chitosan Film  in water:acetic acid 2%
54082
    1CHTO  H203    1   5.934   6.217   4.968 -1.3518 -1.4912  0.6097
    1CHTO   O82    2   5.970   6.151   4.912 -0.2000 -0.2519 -0.1248
    1CHTO  C123    3   6.080   6.184   4.834 -0.4722 -0.7999 -0.3864
    1CHTO  H227    4   6.162   6.187   4.907 -0.7343 -0.5480 -0.1008
    1CHTO   O77    5   6.096   6.069   4.749 -0.0430  0.1609 -0.1483
    1CHTO  C118    6   6.215   6.071   4.671 -0.2590 -0.7225 -0.4118
    1CHTO  H222    7   6.308   6.089   4.726 -1.4391  1.7408  0.8677
    1CHTO  C125    8   6.220   5.934   4.592 -0.1691  0.1472  0.3673
    1CHTO   O84    9   6.221   5.811   4.666  0.0192  0.1161 -0.9468
    1CHTO  H205   10   6.232   5.738   4.609  1.0487  2.1059 -3.4010
    1CHTO  C114   11   6.191   6.187   4.567  0.1411  1.4521 -0.1592
    1CHTO  H218   12   6.103   6.160   4.508 -0.5446 -0.8283  1.8222
    1CHTO  C116   13   6.175   6.323   4.638  0.1900  0.1256  1.0553
    1CHTO  H220   14   6.266   6.355   4.693  1.0603 -2.3419  1.1129
    1CHTO   O79   15   6.152   6.424   4.540  0.3686 -0.1554 -0.1037
    1CHTO  H201   16   6.225   6.412   4.481 -0.0235  0.4743 -0.7265
    1CHTO  C120   17   6.061   6.313   4.748 -0.3215  0.2789 -0.5662
    1CHTO  H224   18   5.962   6.310   4.697 -0.4882 -1.0190 -0.1801
    1CHTO   N21   19   6.054   6.438   4.832 -0.2968  0.1234 -0.1829
    1CHTO  H211   20   5.972   6.499   4.796 -1.7233 -2.5742 -1.7212
    1CHTO  H212   21   6.040   6.413   4.936  1.0774  0.1349  0.0060
    1CHTO   O75   22   6.300   6.178   4.468 -0.2187 -0.0990 -0.6081
    1CHTO  C112   23   6.256   6.184   4.311  0.8870  0.2040 -0.1783
    1CHTO  H216   24   6.190   6.270   4.293 -0.4429 -0.5720  0.8976
    1CHTO   O73   25   6.187   6.058   4.276 -0.0476 -0.3255 -0.8741
    1CHTO  C113   26   6.152   6.053   4.140  0.0077 -0.1436 -0.2381
    1CHTO  H217   27   6.094   6.146   4.126  2.9776  1.9303  0.5833
    1CHTO  C124   28   6.052   5.940   4.136  0.3852  0.9307 -0.7368
    1CHTO   O83   29   6.117   5.809   4.156 -0.3303 -0.0956  0.2514
    1CHTO  H204   30   6.191   5.823   4.213 -1.2610  2.1415  0.9671
    1CHTO  C109   31   6.280   6.036   4.053 -0.5162 -0.5173 -0.0567
    1CHTO  H213   32   6.336   5.948   4.088 -0.0032 -0.1429  0.0888
    1CHTO  C110   33   6.363   6.159   4.073  0.7810  0.0487  0.2995
    1CHTO  H214   34   6.311   6.244   4.027  0.9468 -0.7772 -1.4648
    1CHTO   O78   35   6.488   6.159   3.992  0.1112 -0.2053  0.2813
    1CHTO  H200   36   6.527   6.074   3.986 -0.5835 -0.5765  0.9942
    1CHTO  C111   37   6.394   6.193   4.221  0.4003 -0.2034  0.5706
    1CHTO  H215   38   6.462   6.120   4.267  1.1020  1.7948  2.8427
    1CHTO   N19   39   6.463   6.321   4.240 -0.5659  0.7818  0.5697
    1CHTO  H207   40   6.542   6.311   4.313 -0.6290 -0.5392  0.4649
    1CHTO  H208   41   6.395   6.401   4.262 -2.5074 -0.9914  1.1502
    1CHTO   O74   42   6.246   6.021   3.913 -0.6373  0.1046  0.1949
    1CHTO  C115   43   6.260   5.881   3.859  0.8002  0.2570  0.3848
    1CHTO  H219   44   6.280   5.811   3.940 -1.2375 -0.3307  0.3965
    1CHTO   O76   45   6.123   5.814   3.792 -0.1138 -0.4156  0.3882
    1CHTO  C122   46   6.091   5.879   3.668 -0.9861  0.3692  0.5698
    1CHTO  H226   47   6.080   5.986   3.687 -1.3862  0.5779 -0.7459
    1CHTO  C126   48   5.945   5.834   3.612 -0.1507 -0.0376  0.1636
    1CHTO   O85   49   5.915   5.890   3.484  0.5154  0.1717 -0.1960
    1CHTO  H206   50   5.835   5.855   3.450  0.1037 -0.7611  1.6660
    1CHTO  C121   51   6.205   5.862   3.556 -0.5066  0.3587 -0.2266
    1CHTO  H225   52   6.171   5.791   3.478 -0.6681  0.9234 -0.6722
    1CHTO   O81   53   6.227   5.977   3.476  0.0380  0.1780 -0.3227
    1CHTO  H202   54   6.224   6.056   3.526 -0.9105 -0.7538  1.1418
    1CHTO  C119   55   6.335   5.807   3.623  0.0878  0.0063  0.4981
    1CHTO  H223   56   6.309   5.707   3.658  0.0842  0.3936  1.6274
    1CHTO  C117   57   6.378   5.888   3.754  0.5899 -0.5621  0.4137
    1CHTO  H221   58   6.400   5.994   3.752 -2.1370  0.0382  0.2758
    1CHTO   N20   59   6.499   5.826   3.812  0.7925 -0.0328  0.2376
    1CHTO  H209   60   6.505   5.718   3.804  1.2735  0.1326 -1.9133
    1CHTO  H210   61   6.582   5.883   3.772 -0.5330 -0.5242 -3.3988
    1CHTO   O80   62   6.461   5.782   3.500  0.0486  0.0794  0.6810
    1CHTO  C103   63   6.556   5.638   3.500  0.3327  0.1866  0.3666
    1CHTO  H190   64   6.602   5.622   3.598  1.6284  0.4660 -0.1795
    1CHTO  C101   65   6.470   5.512   3.456  0.4725 -0.1961  0.0053
    1CHTO  H188   66   6.410   5.540   3.369  2.8292 -0.4358 -1.7457
    1CHTO   O68   67   6.373   5.472   3.561 -0.7166  0.1801  0.0834
    1CHTO  H168   68   6.414   5.475   3.645  2.0402 -1.4405 -1.1353
    1CHTO   C99   69   6.557   5.386   3.402 -0.0266  0.5786  0.1676
    1CHTO  H186   70   6.595   5.322   3.485 -2.3128  0.0794  0.8900
    1CHTO   N17   71   6.471   5.295   3.319  0.2127 -0.1599  0.4149
    1CHTO  H174   72   6.395   5.248   3.379 -0.4953  0.6789  0.1984
    1CHTO  H175   73   6.425   5.353   3.239  0.4328  0.7409  0.9319
    1CHTO   C97   74   6.678   5.435   3.317  0.6451  0.0428 -0.0873
    1CHTO  H184   75   6.631   5.479   3.228 -1.8560  0.3442  1.3185
    1CHTO   O64   76   6.752   5.528   3.391  0.4107 -0.9758 -0.1916
    1CHTO  C104   77   6.680   5.652   3.403 -0.2004  0.2481  0.2412
    1CHTO  H191   78   6.642   5.687   3.307  1.2714 -0.2320 -0.5368
    1CHTO  C108   79   6.774   5.758   3.454  0.3690 -0.0268  0.6705
    1CHTO   O71   80   6.885   5.789   3.368  0.5060 -0.0319  0.2588
    1CHTO  H171   81   6.845   5.785   3.284  0.4388 -0.7289  0.3213
    1CHTO   O62   82   6.776   5.337   3.286  0.4061 -0.4785 -0.1615
    1CHTO   C91   83   6.877   5.365   3.187  0.5103 -0.0791 -0.0688
    1CHTO  H178   84   6.895   5.472   3.177  0.7529 -0.0211  0.9918
    1CHTO   C92   85   6.809   5.323   3.052  0.6000  0.1768 -0.8882
    1CHTO  H179   86   6.707   5.365   3.051  0.5033 -0.0475 -0.1724
    1CHTO   O66   87   6.876   5.394   2.955 -0.2335 -0.0952  0.4191
    1CHTO  H166   88   6.970   5.390   2.965  0.0366 -0.5263 -1.8905
    1CHTO   C93   89   6.809   5.164   3.018 -0.1534  0.0601 -0.1177
    1CHTO  H180   90   6.800   5.151   2.909 -0.2522 -0.4754 -0.0442
    1CHTO   N16   91   6.696   5.088   3.079 -0.5376 -0.0301  0.0171
    1CHTO  H172   92   6.709   5.069   3.184 -2.4814  0.8596  0.4345
    1CHTO  H173   93   6.597   5.125   3.055 -0.5013  1.6944  2.2957
    1CHTO   C94   94   6.944   5.098   3.065 -0.0531  0.0518 -0.5021
    1CHTO  H181   95   6.933   5.040   3.156 -2.1079 -0.3570 -0.9960
    1CHTO   O61   96   7.041   5.191   3.105 -0.0242  0.4656 -0.0091
    1CHTO   C95   97   7.011   5.284   3.217 -0.9141 -0.6269 -0.1461
    1CHTO  H182   98   7.009   5.233   3.313 -0.8122  0.4657  0.4496
    1CHTO  C106   99   7.128   5.381   3.227 -0.2373  0.3966  0.2870
    1CHTO   O69  100   7.247   5.329   3.287 -0.7360 -0.8398  0.0850
    1CHTO  H169  101   7.311   5.396   3.300 -0.8714 -0.5967 -0.4742
    1CHTO   O63  102   6.999   4.998   2.947  0.5870 -0.4078  0.3157
    1CHTO   C96  103   7.114   4.898   2.988 -0.0815 -0.3277 -0.4436
    1CHTO  H183  104   7.072   4.819   3.049 -1.2185  0.3935 -0.2877
    1CHTO   C98  105   7.237   4.960   3.062 -0.0212  0.2883  0.2279
    1CHTO  H185  106   7.206   5.035   3.135 -0.7766 -0.1960  0.4070
    1CHTO   O67  107   7.297   4.855   3.127 -0.2110 -0.2747 -0.0347
    1CHTO  H167  108   7.240   4.807   3.184 -0.0937 -0.0594  0.2589
    1CHTO  C102  109   7.343   5.026   2.961  0.1044  0.4272  0.3245
    1CHTO  H189  110   7.434   5.027   3.022  0.6378 -0.4737 -0.4341
    1CHTO   N18  111   7.304   5.161   2.927  0.0414 -0.1071  0.5980
    1CHTO  H176  112   7.371   5.215   2.861 -0.8187  1.5568  1.0434
    1CHTO  H177  113   7.264   5.229   3.001 -0.0434 -0.3262  0.7514
    1CHTO  C105  114   7.377   4.935   2.834 -0.2738  0.2499  0.1986
    1CHTO  H192  115   7.337   4.978   2.743  1.8336  1.5198 -0.1672
    1CHTO   O65  116   7.313   4.809   2.835  0.2418 -0.1412  0.0503
    1CHTO  C100  117   7.166   4.826   2.855  0.0191 -0.0242  0.9017
    1CHTO  H187  118   7.133   4.881   2.766  2.0650 -1.8261 -1.0441
    1CHTO  C107  119   7.098   4.687   2.847 -0.3303 -0.2234 -0.5692
    1CHTO   O70  120   6.957   4.708   2.864  0.7890  0.2627 -0.3122
    1CHTO  H170  121   6.920   4.739   2.784  0.6281 -0.5256 -0.5492
    1CHTO   O57  122   7.522   4.937   2.826 -0.4946 -0.0339  0.5048
    1CHTO   C85  123   7.604   4.823   2.785 -0.3282 -0.4438  0.4842
    1CHTO  H157  124   7.542   4.763   2.714 -0.6276 -1.1264  1.3066
    1CHTO   C83  125   7.620   4.722   2.911 -0.0675 -0.5213  0.6584
    1CHTO  H155  126   7.527   4.670   2.931 -0.9657  0.0186 -1.8882
    1CHTO   O56  127   7.641   4.801   3.036  0.3041 -0.0614  0.4398
    1CHTO  H135  128   7.624   4.742   3.107 -1.3666 -1.1868 -0.8639
    1CHTO   C81  129   7.736   4.623   2.869 -0.0618 -0.0698 -0.2798
    1CHTO  H153  130   7.711   4.582   2.771  0.2382  4.3724 -2.3143
    1CHTO   N14  131   7.737   4.512   2.967  0.8349  0.0331  0.2451
    1CHTO  H141  132   7.796   4.426   2.942  0.1689 -0.0260 -1.1273
    1CHTO  H142  133   7.776   4.554   3.057  2.5829 -0.3999 -0.3008
    1CHTO   C79  134   7.866   4.707   2.854 -0.3029  0.5486 -0.1390
    1CHTO  H151  135   7.950   4.639   2.840  0.2848  1.4298 -0.9615
    1CHTO   O52  136   7.851   4.780   2.729  0.1519 -0.4139 -0.0594
    1CHTO   C86  137   7.740   4.870   2.726 -0.0280 -0.1131 -0.8972
    1CHTO  H158  138   7.775   4.957   2.787  0.4920 -0.0280 -1.3104
    1CHTO   C90  139   7.730   4.923   2.579 -0.4804  0.1699 -0.4326
    1CHTO   O60  140   7.629   5.023   2.558  0.2086  0.4691  0.3911
    1CHTO  H138  141   7.633   5.041   2.466  0.7293 -0.2674  0.2644
    1CHTO   O50  142   7.896   4.806   2.958  0.6963 -0.0371 -0.8342
    1CHTO   C73  143   8.014   4.848   3.038 -0.4890 -0.2409 -0.5517
    1CHTO  H145  144   8.099   4.871   2.972  0.1476 -0.8723  0.0349
    1CHTO   C74  145   8.055   4.727   3.128  0.4511 -0.1321 -0.2047
    1CHTO  H146  146   8.056   4.636   3.066 -0.6090 -0.3691  0.1065
    1CHTO   O54  147   8.187   4.754   3.169  0.0193 -0.5210 -0.0134
    1CHTO  H133  148   8.244   4.746   3.095  1.0313  0.0225  0.6935
    1CHTO   C75  149   7.953   4.710   3.247 -0.3190 -0.5811 -1.0789
    1CHTO  H147  150   7.857   4.672   3.208 -1.6083  3.1636 -1.7122
    1CHTO   N13  151   7.996   4.601   3.346 -0.9541  0.1229 -0.1588
    1CHTO  H139  152   8.103   4.591   3.347 -1.1349 -2.0062  0.4690
    1CHTO  H140  153   7.958   4.505   3.314  1.8364 -0.4939 -1.8251
    1CHTO   C76  154   7.915   4.845   3.317  0.1593 -0.5697 -1.0187
    1CHTO  H148  155   8.006   4.885   3.363 -0.1890  0.6081 -1.3455
    1CHTO   O49  156   7.881   4.948   3.222 -0.1649 -0.1707  0.1305
    1CHTO   C77  157   7.976   4.975   3.121 -0.2511 -0.3210  0.2469
    1CHTO  H149  158   8.067   5.007   3.172  0.2142 -0.4411 -0.4994
    1CHTO   C88  159   7.927   5.092   3.037 -0.1615 -0.0795  0.2655
    1CHTO   O58  160   8.018   5.141   2.936  0.1694 -0.0809  0.1359
    1CHTO  H136  161   7.997   5.233   2.936  2.8872  0.5993  1.9435
    1CHTO   O51  162   7.811   4.848   3.422 -0.1465  0.1455 -0.3010
    1CHTO   C78  163   7.779   4.984   3.508 -0.7492  0.3013  0.2454
    1CHTO  H150  164   7.792   5.072   3.443 -3.6696 -0.3667 -1.3085
    1CHTO   C80  165   7.868   5.000   3.628 -0.3743 -0.7517  0.0433
    1CHTO  H152  166   7.876   4.903   3.681 -0.5015 -0.6587  0.2331
    1CHTO   O55  167   8.000   5.047   3.585 -0.2357  0.1880 -0.2979
    1CHTO  H134  168   8.042   5.104   3.647  0.1678  0.6995 -1.0317
    1CHTO   C84  169   7.811   5.113   3.720  0.1163  0.1830  0.3800
    1CHTO  H156  170   7.811   5.206   3.665 -1.6334  0.5407  0.9561
    1CHTO   N15  171   7.884   5.145   3.854  0.2461  0.1455  0.3536
    1CHTO  H143  172   7.938   5.235   3.836 -0.7026  0.1968 -2.5602
    1CHTO  H144  173   7.949   5.068   3.889  1.4200  0.7390 -0.4906
    1CHTO   C87  174   7.657   5.099   3.752  0.4843  1.1196 -0.2470
    1CHTO  H159  175   7.624   5.021   3.820  0.1305  1.6570  0.2070
    1CHTO   O53  176   7.585   5.076   3.620 -0.4422 -0.1141  0.1249
    1CHTO   C82  177   7.629   4.965   3.544 -0.5039  0.5377 -0.5099
    1CHTO  H154  178   7.621   4.875   3.604  0.1275  1.3078  0.7581
    1CHTO   C89  179   7.540   4.952   3.419  0.0754 -0.5106 -0.6442
    1CHTO   O59  180   7.404   4.928   3.460  0.0302 -0.0220  0.4445
    1CHTO  H137  181   7.380   4.838   3.466  0.5436 -0.3917 -2.5487
    1CHTO   O45  182   7.590   5.245   3.819 -0.8218 -0.1615  0.1252
    1CHTO   C67  183   7.449   5.269   3.807  0.2303 -0.0762  0.3747
    1CHTO  H124  184   7.399   5.172   3.799  0.5157 -0.4190  2.3418
    1CHTO   C65  185   7.412   5.338   3.935  0.1591 -0.9234  0.3193
    1CHTO  H122  186   7.437   5.274   4.020 -0.7998  0.4736  1.6743
    1CHTO   O44  187   7.272   5.353   3.952  0.0575  0.2649 -0.6725
    1CHTO  H102  188   7.244   5.264   3.948  1.5597 -0.3884  1.9820
    1CHTO   C63  189   7.493   5.472   3.953  0.0497 -0.0320 -0.0620
    1CHTO  H120  190   7.599   5.450   3.948  0.1532  0.3285  0.6197
    1CHTO   N11  191   7.485   5.550   4.085 -0.0800 -0.2341 -0.0778
    1CHTO  H108  192   7.555   5.630   4.077  0.2665 -0.3159  2.0563
    1CHTO  H109  193   7.530   5.497   4.166 -0.6762  1.1048  1.1302
    1CHTO   C61  194   7.465   5.564   3.825  0.4749  0.4045 -0.7550
    1CHTO  H118  195   7.553   5.630   3.826  0.7749  0.0031  1.3540
    1CHTO   O40  196   7.466   5.493   3.691  0.4079 -0.5087 -0.2309
    1CHTO   C68  197   7.427   5.349   3.675  0.0387 -0.7354 -0.0966
    1CHTO  H125  198   7.493   5.317   3.591  2.2479  1.1665  0.8283
    1CHTO   C72  199   7.286   5.335   3.632 -0.0059  0.4811  0.4887
    1CHTO   O48  200   7.247   5.213   3.573  0.2799 -0.1034  0.1912
    1CHTO  H105  201   7.165   5.225   3.530 -0.8410 -2.3025  1.6436
    1CHTO   O38  202   7.344   5.644   3.834 -0.2563  0.1115  0.4150
    1CHTO   C55  203   7.354   5.780   3.778  0.1337  0.6409 -0.2180
    1CHTO  H112  204   7.440   5.787   3.710  1.4217  2.0608  1.5113
    1CHTO   C56  205   7.362   5.891   3.891 -0.2718 -0.1268 -0.3023
    1CHTO  H113  206   7.272   5.875   3.952 -1.0538  2.9469 -0.5802
    1CHTO   O42  207   7.481   5.861   3.971  0.2016 -0.3358  0.3618
    1CHTO  H100  208   7.558   5.908   3.947 -0.3976 -0.0324 -1.0477
    1CHTO   C57  209   7.361   6.039   3.826 -0.1928 -0.6076  0.0970
    1CHTO  H114  210   7.456   6.063   3.778 -0.4714  2.4623  0.9838
    1CHTO   N10  211   7.353   6.144   3.932  0.1231  0.5014  0.0015
    1CHTO  H106  212   7.322   6.096   4.023  1.5457  1.7569  1.1628
    1CHTO  H107  213   7.449   6.190   3.946  0.5894 -0.1888 -0.8830
    1CHTO   C58  214   7.245   6.045   3.723  0.0321 -0.5294  0.1802
    1CHTO  H115  215   7.145   6.040   3.773 -0.0924 -0.3268 -0.0478
    1CHTO   O37  216   7.254   5.940   3.629  0.2289 -0.0464  0.1744
    1CHTO   C59  217   7.237   5.811   3.682  0.1019 -0.0100  0.0031
    1CHTO  H116  218   7.147   5.804   3.743 -0.9157 -1.1273 -1.5747
    1CHTO   C70  219   7.208   5.709   3.571  0.2742 -0.3183  0.0854
    1CHTO   O46  220   7.313   5.680   3.479  0.0087 -0.2482  0.3748
    1CHTO  H103  221   7.298   5.593   3.446 -0.3476 -0.4509  1.0601
    1CHTO   O39  222   7.260   6.182   3.639 -0.3543 -0.2833 -0.6853
    1CHTO   C60  223   7.140   6.262   3.623 -0.1636 -0.0503  0.4347
    1CHTO  H117  224   7.054   6.194   3.626 -0.0143 -0.4135 -2.4375
    1CHTO   C62  225   7.114   6.376   3.734 -0.1417  0.5406  0.3892
    1CHTO  H119  226   7.108   6.332   3.835  0.7768  0.6669  0.5024
    1CHTO   O43  227   7.228   6.463   3.742  1.0574 -0.0576 -0.0513
    1CHTO  H101  228   7.249   6.495   3.828  1.0013  2.0173 -0.7903
    1CHTO   C66  229   6.976   6.455   3.695  0.1268  0.1604 -1.0196
    1CHTO  H123  230   6.895   6.383   3.707  1.1965 -0.5201  2.6140
    1CHTO   N12  231   6.940   6.564   3.789  0.6057 -0.2401  0.1860
    1CHTO  H110  232   6.845   6.607   3.761  0.5164 -1.4158 -1.3483
    1CHTO  H111  233   7.027   6.628   3.788  2.4399 -2.6776 -2.7117
    1CHTO   C69  234   6.976   6.507   3.546 -0.6091 -0.2481 -0.3647
    1CHTO  H126  235   7.057   6.582   3.539  0.2748 -0.7329  3.4303
    1CHTO   O41  236   6.993   6.400   3.459 -0.6126 -0.3868  0.0768
    1CHTO   C64  237   7.146   6.329   3.481  0.2539 -0.0237  0.4308
    1CHTO  H121  238   7.242   6.384   3.483  1.3357 -1.8568 -0.0782
    1CHTO   C71  239   7.183   6.218   3.376  0.0762  0.2324 -0.2843
    1CHTO   O47  240   7.200   6.276   3.245 -0.2782 -0.5523  0.3101
    1CHTO  H104  241   7.133   6.341   3.233 -0.5256 -0.5506  1.5493
    1CHTO   O34  242   6.861   6.558   3.511  0.6678  0.5486  0.2323
    1CHTO   C49  243   6.831   6.675   3.384 -0.1364  0.0829  0.9936
    1CHTO   H91  244   6.891   6.763   3.408  0.6164 -0.3070  0.5488
    1CHTO   C47  245   6.681   6.719   3.373  0.0804  0.0070 -0.0719
    1CHTO   H89  246   6.670   6.801   3.299 -1.0257  1.3908  1.6063
    1CHTO   O33  247   6.640   6.768   3.500 -0.1533 -0.4567 -0.0875
    1CHTO   H70  248   6.553   6.745   3.524  0.5572 -3.4693 -0.2225
    1CHTO   C45  249   6.584   6.590   3.321  0.2303 -0.5705  0.9245
    1CHTO   H87  250   6.604   6.500   3.381  0.3550 -3.4848 -3.2997
    1CHTO    N8  251   6.439   6.606   3.317 -1.2924 -0.0902  0.2810
    1CHTO   H75  252   6.407   6.539   3.395  0.3418 -0.3593  0.7374
    1CHTO   H76  253   6.398   6.581   3.220 -2.4070  0.5555  0.5772
    1CHTO   C43  254   6.636   6.555   3.178 -0.3559  0.4291  0.2107
    1CHTO   H85  255   6.578   6.470   3.144 -0.3304  1.6168 -2.9476
    1CHTO   O29  256   6.779   6.519   3.197  0.2881  0.1321  0.1393
    1CHTO   C50  257   6.871   6.616   3.246 -0.4707  0.4232 -0.2190
    1CHTO   H92  258   6.962   6.556   3.262 -0.0002  1.6963  2.0577
    1CHTO   C54  259   6.920   6.737   3.144 -0.2516  0.9518 -0.0304
    1CHTO   O36  260   6.981   6.673   3.035  0.0640  0.2927  0.1644
    1CHTO   H72  261   6.923   6.667   2.961  0.6265 -0.2957 -0.2312
    1CHTO   O27  262   6.623   6.647   3.062  0.2809 -0.5901  0.4054
    1CHTO   C37  263   6.656   6.649   2.921  0.3126 -1.0501  0.0039
    1CHTO   H79  264   6.759   6.681   2.897  0.0691 -1.5518 -1.7849
    1CHTO   C38  265   6.629   6.508   2.857  0.5999  0.7819  0.2956
    1CHTO   H80  266   6.525   6.479   2.881  1.4275  0.1413  3.2010
    1CHTO   O31  267   6.722   6.415   2.915  0.8632  0.0949 -0.0714
    1CHTO   H68  268   6.810   6.447   2.920  0.7590  0.3736  0.0267
    1CHTO   C39  269   6.661   6.519   2.701 -0.2445  0.0160 -0.1886
    1CHTO   H81  270   6.767   6.545   2.692  0.3346 -2.1056  0.3154
    1CHTO    N7  271   6.643   6.392   2.622 -0.5444 -0.3554 -0.7020
    1CHTO   H73  272   6.630   6.303   2.682  0.0695  0.7538  1.1139
    1CHTO   H74  273   6.731   6.375   2.563  0.7250 -1.5190  1.4762
    1CHTO   C40  274   6.576   6.640   2.636 -0.2749 -0.1257 -0.2005
    1CHTO   H82  275   6.475   6.606   2.614 -1.4132  1.6629  1.9782
    1CHTO   O26  276   6.585   6.762   2.714  0.3300  0.2866  0.2485
    1CHTO   C41  277   6.559   6.752   2.857  0.4596 -0.9350 -0.2643
    1CHTO   H83  278   6.458   6.721   2.885  0.1910 -2.5821 -2.8246
    1CHTO   C52  279   6.583   6.894   2.923 -0.1912  0.2075  0.0029
    1CHTO   O35  280   6.493   7.009   2.876 -0.1744 -0.2352  0.3932
    1CHTO   H71  281   6.545   7.087   2.872  0.6465 -0.8719 -2.1095
    1CHTO   O28  282   6.628   6.679   2.510 -0.4217 -0.1211 -0.0286
    1CHTO   C42  283   6.760   6.733   2.470 -0.3304 -0.2246 -0.5085
    1CHTO   H84  284   6.827   6.685   2.542 -0.7371 -0.8025 -0.5131
    1CHTO   C44  285   6.786   6.885   2.488  0.2974  0.0151  0.0631
    1CHTO   H86  286   6.722   6.934   2.414  0.1769 -0.3409 -0.0728
    1CHTO   O32  287   6.767   6.916   2.628  0.4062  0.1862 -0.0781
    1CHTO   H69  288   6.847   6.950   2.663 -0.4879  1.0338  1.1988
    1CHTO   C48  289   6.924   6.935   2.434 -0.4686 -0.0623 -0.2403
    1CHTO   H90  290   7.007   6.890   2.488  1.2210  1.9000 -1.1355
    1CHTO    N9  291   6.932   7.089   2.440  0.7216  0.3366 -0.5073
    1CHTO   H77  292   7.036   7.105   2.416  0.9784 -0.8330 -0.2388
    1CHTO   H78  293   6.907   7.115   2.542  2.4456  2.0162 -0.4909
    1CHTO   C51  294   6.952   6.876   2.287  1.2827  0.2004  0.0697
    1CHTO   H93  295   6.880   6.921   2.219 -0.0463 -2.7244 -0.5591
    1CHTO   O30  296   6.950   6.737   2.280 -0.4205 -0.3061 -0.0768
    1CHTO   C46  297   6.805   6.684   2.328 -0.2960 -0.0525 -0.5775
    1CHTO   H88  298   6.734   6.725   2.257  0.3728 -0.7230 -1.6578
    1CHTO   C53  299   6.812   6.535   2.306  0.3942 -0.1222  0.7320
    1CHTO   O72  300   6.836   6.498   2.171  0.2072 -0.6590  0.4207
    1CHTO  H199  301   6.772   6.547   2.123 -0.6123 -2.2662 -0.1299
    1CHTO   O22  302   7.087   6.899   2.240 -0.4547 -0.0767  0.1145
    1CHTO   C31  303   7.130   6.949   2.115  0.3270  0.1718  0.2493
    1CHTO   H59  304   7.041   6.992   2.065  1.8446  0.3654 -2.4195
    1CHTO   C29  305   7.228   7.060   2.131  0.0278 -0.1865  0.1853
    1CHTO   H57  306   7.315   7.007   2.173  0.3624  0.1448 -0.0777
    1CHTO   O21  307   7.178   7.158   2.223 -0.2106  0.3656 -0.2756
    1CHTO   H37  308   7.235   7.232   2.234  0.0845 -0.1699  2.0317
    1CHTO   C27  309   7.282   7.127   1.999 -0.0618  0.5697 -0.3209
    1CHTO   H55  310   7.204   7.187   1.952 -0.3178  0.5094  0.0253
    1CHTO    N5  311   7.394   7.220   2.027  0.3191  0.0520 -0.2823
    1CHTO   H43  312   7.420   7.271   1.936  1.0369  0.4943  0.1650
    1CHTO   H44  313   7.363   7.295   2.099  0.4745  1.4686 -1.6681
    1CHTO   C25  314   7.309   7.020   1.890  0.5804  0.0141  0.7936
    1CHTO   H53  315   7.407   6.978   1.917  0.7831  0.2466  0.4342
    1CHTO   O17  316   7.212   6.916   1.881 -0.0547 -0.0156 -0.0641
    1CHTO   C32  317   7.196   6.845   2.012 -0.1091 -0.5918 -0.3559
    1CHTO   H60  318   7.298   6.829   2.045 -0.3424 -2.2182 -0.4186
    1CHTO   C36  319   7.112   6.713   1.995 -0.1841 -0.1570 -0.1155
    1CHTO   O25  320   7.187   6.622   1.915  0.1360 -0.2519 -0.6712
    1CHTO   H40  321   7.147   6.537   1.907 -0.9300 -0.0158  1.7432
    1CHTO   O15  322   7.320   7.097   1.758  0.1689  0.7629  0.2123
    1CHTO   C19  323   7.333   7.069   1.615 -0.2542  0.3557 -0.0910
    1CHTO   H47  324   7.370   7.165   1.576 -0.8522  0.3298 -0.7353
    1CHTO   C20  325   7.433   6.950   1.578  0.1596 -0.1075 -0.6828
    1CHTO   H48  326   7.395   6.855   1.617 -1.4511  1.0654  0.7251
    1CHTO   O19  327   7.560   6.984   1.639  0.3485  0.3864 -0.4498
    1CHTO   H35  328   7.542   6.983   1.731  2.4266  1.2054 -0.0018
    1CHTO   C21  329   7.446   6.930   1.421 -0.1211  0.6331 -0.0376
    1CHTO   H49  330   7.492   7.020   1.380  1.8532 -1.0456 -1.5748
    1CHTO    N4  331   7.522   6.815   1.382  0.0221  0.2600  0.4830
    1CHTO   H41  332   7.628   6.829   1.370 -0.1191 -0.0233 -1.3982
    1CHTO   H42  333   7.483   6.765   1.294  3.2522  0.6001 -1.2405
    1CHTO   C22  334   7.300   6.934   1.360 -0.0315 -0.1500 -0.0303
    1CHTO   H50  335   7.243   6.844   1.384 -0.7358  0.2098 -0.3148
    1CHTO   O14  336   7.220   7.046   1.406  0.2179 -0.5855  0.9490
    1CHTO   C23  337   7.196   7.039   1.543  0.1526 -0.2678 -0.7888
    1CHTO   H51  338   7.148   6.947   1.579 -0.6991  0.1835 -0.7523
    1CHTO   C34  339   7.077   7.130   1.591 -0.1581 -0.4451  0.4354
    1CHTO   O23  340   7.047   7.143   1.731 -0.2763 -0.5345  0.0967
    1CHTO   H38  341   7.117   7.130   1.791  0.0095  0.2725 -0.0621
    1CHTO   O16  342   7.299   6.963   1.222 -0.4106  0.3429  0.6379
    1CHTO   C24  343   7.240   6.843   1.113  0.1124  0.2944 -0.6598
    1CHTO   H52  344   7.227   6.747   1.163  1.5598  0.4322 -0.0137
    1CHTO   C26  345   7.341   6.821   0.999 -0.3748 -0.6186  0.3056
    1CHTO   H54  346   7.360   6.911   0.937 -0.0211 -0.9533 -0.0679
    1CHTO   O20  347   7.471   6.782   1.052 -0.4299  0.0451 -0.4636
    1CHTO   H36  348   7.545   6.825   1.013  0.8971 -0.6832  1.2070
    1CHTO   C30  349   7.287   6.722   0.896  0.1450 -0.3568 -0.4818
    1CHTO   H58  350   7.267   6.628   0.950 -4.5302  0.5013 -0.4576
    1CHTO    N6  351   7.375   6.686   0.784  0.2704 -0.2075 -0.8048
    1CHTO   H45  352   7.315   6.612   0.733 -1.9095  1.1198 -0.1954
    1CHTO   H46  353   7.404   6.764   0.716 -0.1914  1.0311  0.4121
    1CHTO   C33  354   7.150   6.772   0.843 -0.3058  0.6006  0.2554
    1CHTO   H61  355   7.166   6.867   0.790 -0.6406  0.9516  0.7800
    1CHTO   O18  356   7.058   6.804   0.955 -0.7815 -0.2907 -0.1970
    1CHTO   C28  357   7.100   6.889   1.063 -0.4612 -0.2103  0.5070
    1CHTO   H56  358   7.101   6.989   1.019 -1.5491 -0.7463 -0.7867
    1CHTO   C35  359   7.004   6.866   1.186 -0.2718  0.2244 -0.0245
    1CHTO   O24  360   6.869   6.918   1.171 -0.0285 -0.2060  0.3222
    1CHTO   H39  361   6.851   6.997   1.219  0.1380 -0.7168  1.2446
    1CHTO    O9  362   7.093   6.682   0.746 -0.0168  0.3586 -0.3295
    1CHTO   C13  363   6.965   6.731   0.664 -0.6465 -0.4059 -0.6387
    1CHTO   H26  364   7.001   6.822   0.612  0.3069 -0.1498  0.4604
    1CHTO   C11  365   6.840   6.753   0.757 -0.4398 -0.2215 -1.0616
    1CHTO   H24  366   6.852   6.843   0.819 -0.7642 -1.3870  0.7409
    1CHTO    O8  367   6.835   6.659   0.865  0.2972  0.3584  0.3817
    1CHTO    H3  368   6.808   6.573   0.838  0.7399  0.7063 -1.1803
    1CHTO    C9  369   6.710   6.758   0.669  0.5702  0.1181 -0.5416
    1CHTO   H22  370   6.729   6.833   0.591 -0.1416 -0.2210 -1.0380
    1CHTO    N2  371   6.598   6.821   0.743 -0.0479 -0.4367 -0.3002
    1CHTO   H10  372   6.619   6.921   0.778  0.3086 -1.1185  1.4644
    1CHTO   H11  373   6.507   6.824   0.684 -0.5791  0.5187  0.5353
    1CHTO    C7  374   6.691   6.619   0.611  0.4927 -0.1055 -0.3777
    1CHTO   H20  375   6.623   6.636   0.525  0.3038 -0.1067 -0.2307
    1CHTO    O4  376   6.808   6.555   0.560  0.6324  0.0993  0.1486
    1CHTO   C14  377   6.929   6.629   0.539 -0.0084 -0.3568 -1.0517
    1CHTO   H27  378   6.924   6.691   0.447 -1.8209  2.0844  0.6161
    1CHTO   C18  379   7.047   6.524   0.518  0.5360 -0.0627  0.0992
    1CHTO   O13  380   7.159   6.604   0.484  0.3335  0.2108  0.0890
    1CHTO    H7  381   7.237   6.551   0.486  0.9888  1.1442 -0.2900
    1CHTO    O2  382   6.613   6.513   0.725 -0.1243  0.2764  0.4391
    1CHTO    C1  383   6.530   6.423   0.650 -0.1205 -0.2013 -0.2054
    1CHTO   H14  384   6.571   6.429   0.547  1.0103 -0.1603  0.2404
    1CHTO    C2  385   6.375   6.460   0.642 -0.4986  0.2985  0.0038
    1CHTO   H15  386   6.340   6.482   0.744 -0.1722  0.4736  0.0775
    1CHTO    O6  387   6.346   6.578   0.568  0.1663  0.0420  0.4087
    1CHTO    H1  388   6.399   6.651   0.593  0.8758  0.0898 -1.1901
    1CHTO    C3  389   6.302   6.335   0.578 -0.1196 -0.0212 -0.1236
    1CHTO   H16  390   6.326   6.341   0.471 -1.1792  0.7437 -0.3304
    1CHTO    N1  391   6.146   6.357   0.588 -0.0154  0.1058  0.2353
    1CHTO    H8  392   6.100   6.279   0.647  0.8233 -0.9211 -0.4372
    1CHTO    H9  393   6.121   6.448   0.641 -3.7263 -0.8936  0.3663
    1CHTO    C4  394   6.348   6.194   0.624  0.2454 -0.5606  0.0868
    1CHTO   H17  395   6.296   6.165   0.715  0.0164  0.3963  0.2640
    1CHTO    O1  396   6.487   6.178   0.641 -0.0888 -0.1473 -0.2059
    1CHTO    C5  397   6.560   6.285   0.711  0.0955  0.4271  0.6743
    1CHTO   H18  398   6.534   6.295   0.816  1.3696  2.3544  0.8269
    1CHTO   C16  399   6.711   6.253   0.700  0.5495 -0.2476 -0.3496
    1CHTO   O11  400   6.755   6.250   0.559  0.0082  0.0278  0.1654
    1CHTO    H5  401   6.844   6.219   0.555  0.2026  0.6892 -0.8050
    1CHTO    O3  402   6.321   6.109   0.516 -0.2879 -1.0347 -0.2998
    1CHTO    C6  403   6.291   5.969   0.556  0.4951 -0.8927  0.2521
    1CHTO   H19  404   6.317   5.944   0.659  2.8244  4.5070  1.1219
    1CHTO    C8  405   6.142   5.931   0.531  0.1737  0.2775  0.3590
    1CHTO   H21  406   6.117   5.959   0.429  1.7056  2.2293  0.4834
    1CHTO    O7  407   6.055   6.002   0.623  0.4769  0.2444 -0.0802
    1CHTO    H2  408   6.069   6.095   0.629 -2.7601  0.7610  0.8485
    1CHTO   C12  409   6.131   5.776   0.543 -0.5169 -0.0994  0.5720
    1CHTO   H25  410   6.139   5.743   0.649 -2.3717 -0.5723  0.5681
    1CHTO    N3  411   5.991   5.728   0.504 -0.4228  0.3787 -0.4516
    1CHTO   H12  412   5.928   5.805   0.462 -0.3217  1.9702  2.1975
    1CHTO   H13  413   5.941   5.681   0.589 -0.9961 -0.5138 -1.2718
    1CHTO   C15  414   6.238   5.704   0.459 -0.1778  0.0163  0.3130
    1CHTO   H28  415   6.230   5.725   0.353 -0.7624  0.5175  0.4529
    1CHTO   O10  416   6.248   5.569   0.489  0.3785 -0.1319  0.1816
    1CHTO    H4  417   6.298   5.524   0.423  1.6034  1.8843 -0.3180
    1CHTO    O5  418   6.366   5.750   0.502  0.3912  0.2550 -0.1985
    1CHTO   C10  419   6.387   5.889   0.470  0.0417 -0.2814 -0.1197
    1CHTO   H23  420   6.365   5.904   0.365  0.1574  0.3573 -0.0528
    1CHTO   C17  421   6.540   5.912   0.491  0.5710  0.2322 -0.5620
    1CHTO   O12  422   6.612   5.926   0.368 -0.2346 -0.4544  0.1422
    1CHTO    H6  423   6.559   5.924   0.290  1.3384 -0.5806 -0.9466
    2CHTO  H203  424   6.327   4.030   5.907 -1.1693 -0.3193 -2.5888
    2CHTO   O82  425   6.253   4.073   5.945 -0.2850 -0.7727 -0.2668
    2CHTO  C123  426   6.225   4.194   5.879 -0.4569  0.1238 -0.0297
    2CHTO  H227  427   6.323   4.235   5.851  0.9536 -3.0362  0.1656
    2CHTO   O77  428   6.149   4.136   5.763  0.2330 -0.4856  0.1137
    2CHTO  C118  429   6.124   4.241   5.661 -0.4084  0.8988 -0.1610
    2CHTO  H222  430   6.217   4.294   5.635  1.0563 -0.3550  2.2636
    2CHTO  C125  431   6.059   4.177   5.531 -0.7079 -0.1441 -0.4389
    2CHTO   O84  432   6.051   4.264   5.418  0.0802 -0.0085 -0.6465
    2CHTO  H205  433   6.020   4.222   5.340 -0.2476 -1.5432  0.2924
    2CHTO  C114  434   6.030   4.353   5.710  0.5515 -0.3221  0.0112
    2CHTO  H218  435   5.929   4.312   5.717  0.1382  0.8360  1.0658
    2CHTO  C116  436   6.058   4.392   5.857 -0.6652 -0.0494 -0.3247
    2CHTO  H220  437   6.127   4.479   5.854 -0.1483 -0.5017 -1.7361
    2CHTO   O79  438   5.939   4.455   5.911 -0.1719 -0.2720  0.4563
    2CHTO  H201  439   5.882   4.399   5.960 -1.1172  1.8468  1.8657
    2CHTO  C120  440   6.121   4.283   5.954  0.0290  0.0424 -0.4512
    2CHTO  H224  441   6.039   4.212   5.980  0.8491 -0.1756  1.6208
    2CHTO   N21  442   6.162   4.331   6.086 -0.5566 -0.1463 -0.3014
    2CHTO  H211  443   6.263   4.371   6.086 -0.2622 -0.7839  2.2827
    2CHTO  H212  444   6.084   4.394   6.125 -0.3380  0.0925 -0.2451
    2CHTO   O75  445   6.052   4.462   5.616 -0.3928 -0.2108  0.3277
    2CHTO  C112  446   5.961   4.593   5.619  0.3180  0.7166 -0.3668
    2CHTO  H216  447   5.995   4.656   5.702  1.7837 -1.2829  0.5755
    2CHTO   O73  448   5.823   4.547   5.638  0.4221 -0.1111  0.2042
    2CHTO  C113  449   5.732   4.661   5.641 -0.3864 -0.0604 -0.5685
    2CHTO  H217  450   5.775   4.749   5.692  1.5928 -0.6214 -1.2143
    2CHTO  C124  451   5.601   4.620   5.697  0.3966 -0.3717  0.0585
    2CHTO   O83  452   5.562   4.685   5.816  0.2450 -0.3771  0.4453
    2CHTO  H204  453   5.637   4.692   5.872 -0.9721  0.8545  1.9400
    2CHTO  C109  454   5.717   4.714   5.494  0.0020  0.4735 -0.3215
    2CHTO  H213  455   5.697   4.625   5.432  0.1442  1.1792 -1.3978
    2CHTO  C110  456   5.857   4.782   5.461 -0.1373 -0.1270  0.1576
    2CHTO  H214  457   5.882   4.866   5.527  1.9813 -0.5954  0.0070
    2CHTO   O78  458   5.840   4.836   5.329  0.0924 -0.1434  0.3549
    2CHTO  H200  459   5.910   4.894   5.305  1.1703 -0.8738  1.6389
    2CHTO  C111  460   5.966   4.669   5.479 -0.1861 -0.1933  0.5225
    2CHTO  H215  461   5.954   4.587   5.406  2.1597  0.3950 -0.5897
    2CHTO   N19  462   6.098   4.721   5.452 -0.0215  0.4640 -0.1836
    2CHTO  H207  463   6.132   4.681   5.358 -2.1038  0.2145 -0.8460
    2CHTO  H208  464   6.113   4.826   5.471 -1.1081  0.8044 -1.1859
    2CHTO   O74  465   5.614   4.817   5.479  0.6760  0.0212 -0.1012
    2CHTO  C115  466   5.500   4.769   5.376 -0.0954  0.1188 -0.2897
    2CHTO  H219  467   5.533   4.684   5.315 -0.2690  0.7034 -1.2148
    2CHTO   O76  468   5.372   4.724   5.446  0.4414  0.4016 -0.4947
    2CHTO  C122  469   5.296   4.830   5.512 -0.0056  0.6465 -0.0451
    2CHTO  H226  470   5.372   4.874   5.576  0.2915  1.7063 -1.1039
    2CHTO  C126  471   5.191   4.772   5.609  0.2008  0.4286 -0.4904
    2CHTO   O85  472   5.088   4.703   5.535  0.2054  0.1559  0.0173
    2CHTO  H206  473   5.054   4.634   5.588 -0.5237  0.1105 -0.5138
    2CHTO  C121  474   5.244   4.948   5.417 -0.3629  0.3358  0.6924
    2CHTO  H225  475   5.134   4.947   5.407 -0.3096  4.6354 -1.5363
    2CHTO   O81  476   5.279   5.075   5.471 -0.5461 -0.1203 -0.0773
    2CHTO  H202  477   5.237   5.141   5.420 -0.9813  0.2031  0.6858
    2CHTO  C119  478   5.315   4.933   5.275  0.5386  0.3799  0.8022
    2CHTO  H223  479   5.274   4.846   5.223  0.9269 -0.5119  1.9663
    2CHTO  C117  480   5.475   4.901   5.285 -0.1705 -0.3239 -0.2737
    2CHTO  H221  481   5.537   4.983   5.322  0.0093 -0.1278 -0.9909
    2CHTO   N20  482   5.530   4.882   5.138 -0.1767 -0.1871 -0.0988
    2CHTO  H209  483   5.531   4.970   5.076 -2.6383  0.5880  0.9058
    2CHTO  H210  484   5.491   4.795   5.087  1.3389 -0.5565 -0.6393
    2CHTO   O80  485   5.268   5.042   5.181 -0.3005  0.1976  0.0445
    2CHTO  C103  486   5.146   5.017   5.088 -0.5430 -0.1324 -0.1981
    2CHTO  H190  487   5.165   4.941   5.013 -1.0623 -0.9015  0.4440
    2CHTO  C101  488   5.019   4.982   5.170 -0.1969  0.1433  0.7417
    2CHTO  H188  489   5.016   5.049   5.256 -0.0208  0.4202  0.5310
    2CHTO   O68  490   5.020   4.841   5.222 -0.3319 -0.0363 -0.1491
    2CHTO  H168  491   5.065   4.779   5.167  1.7797  1.9834 -0.7807
    2CHTO   C99  492   4.890   4.979   5.078 -0.0171 -0.2677  0.1610
    2CHTO  H186  493   4.908   4.910   4.992  2.3436 -0.7564  0.9898
    2CHTO   N17  494   4.755   4.946   5.137 -0.4785  0.0865  0.5319
    2CHTO  H174  495   4.761   4.940   5.245 -0.9388 -1.0545  0.4938
    2CHTO  H175  496   4.741   4.848   5.095  1.4437 -0.6112  1.4587
    2CHTO   C97  497   4.882   5.120   5.018 -0.2765  0.1666  0.6240
    2CHTO  H184  498   4.866   5.196   5.095 -0.4704  2.0817 -1.2689
    2CHTO   O64  499   4.995   5.152   4.940  0.0836  0.0612 -0.2425
    2CHTO  C104  500   5.121   5.151   5.008 -0.4144 -0.4829 -1.0488
    2CHTO  H191  501   5.125   5.231   5.082 -1.1471 -0.3415 -1.1653
    2CHTO  C108  502   5.226   5.179   4.910 -0.4936  0.3576 -0.0380
    2CHTO   O71  503   5.349   5.194   4.980 -0.1124 -0.0319  0.1561
    2CHTO  H171  504   5.400   5.252   4.927 -0.8528  0.0151 -0.5112
    2CHTO   O62  505   4.775   5.133   4.918 -0.5782  1.0568  0.1547
    2CHTO   C91  506   4.717   5.264   4.919 -0.5245 -0.8197  0.2186
    2CHTO  H178  507   4.700   5.294   5.022  1.4065  0.8179  0.0922
    2CHTO   C92  508   4.576   5.240   4.854 -0.1296 -0.0745  0.2535
    2CHTO  H179  509   4.545   5.140   4.889  0.1984 -0.6573 -1.1013
    2CHTO   O66  510   4.487   5.342   4.894 -0.1597 -0.3224 -0.2710
    2CHTO  H166  511   4.399   5.312   4.887  0.2390 -1.5904  0.1572
    2CHTO   C93  512   4.582   5.247   4.697  0.1495  0.3919  0.8444
    2CHTO  H180  513   4.480   5.244   4.655  0.2060  0.7204  0.6846
    2CHTO   N16  514   4.628   5.115   4.635  0.3761 -0.5455 -0.5058
    2CHTO  H172  515   4.646   5.121   4.529  2.2961  1.6760 -0.0818
    2CHTO  H173  516   4.583   5.024   4.672 -0.0233 -0.1525 -0.0056
    2CHTO   C94  517   4.652   5.374   4.642 -1.0482  0.4576 -0.1712
    2CHTO  H181  518   4.731   5.354   4.569 -0.2191  1.7089  0.3645
    2CHTO   O61  519   4.710   5.447   4.746  0.5585  0.3572  0.1491
    2CHTO   C95  520   4.798   5.381   4.838 -0.1154  0.3811  0.4644
    2CHTO  H182  521   4.877   5.332   4.780 -0.8184 -0.2632  0.0422
    2CHTO  C106  522   4.867   5.491   4.912  0.8202 -0.1487  0.4645
    2CHTO   O69  523   4.969   5.444   4.998 -0.0035 -0.8433 -0.1562
    2CHTO  H169  524   5.048   5.483   4.968  0.5587 -1.9485 -0.1392
    2CHTO   O63  525   4.544   5.454   4.559  0.9861  0.1122  0.5560
    2CHTO   C96  526   4.525   5.614   4.595 -0.0018 -0.1271 -0.6522
    2CHTO  H183  527   4.575   5.637   4.689  0.7736  0.2445 -1.1496
    2CHTO   C98  528   4.381   5.662   4.621  0.1646  0.4367 -0.0060
    2CHTO  H185  529   4.318   5.632   4.536 -2.0604  0.6938  1.5212
    2CHTO   O67  530   4.330   5.598   4.740 -0.2342 -0.0344  0.0727
    2CHTO  H167  531   4.246   5.637   4.757  1.0477  2.9603 -0.1719
    2CHTO  C102  532   4.380   5.822   4.623 -0.3346  0.3390 -0.0540
    2CHTO  H189  533   4.456   5.849   4.697 -1.2940  0.4920  0.8975
    2CHTO   N18  534   4.251   5.890   4.665 -0.3890  0.6963  0.1327
    2CHTO  H176  535   4.177   5.822   4.704  0.7394 -0.6133  0.0066
    2CHTO  H177  536   4.275   5.958   4.746  0.3614 -0.3727  0.8199
    2CHTO  C105  537   4.420   5.864   4.477 -0.1484 -0.9359 -0.1456
    2CHTO  H192  538   4.335   5.852   4.410 -0.6678  0.8740  0.1762
    2CHTO   O65  539   4.524   5.795   4.405 -0.1565 -0.2760  0.1984
    2CHTO  C100  540   4.593   5.691   4.479  0.4076 -0.5708 -0.3486
    2CHTO  H187  541   4.611   5.619   4.397 -1.6220 -1.0019 -0.4580
    2CHTO  C107  542   4.736   5.744   4.516  0.4709  0.1554 -0.1384
    2CHTO   O70  543   4.737   5.876   4.582 -0.4837  0.0297 -0.5075
    2CHTO  H170  544   4.777   5.869   4.666 -0.7174  1.2694 -0.2862
    2CHTO   O57  545   4.453   6.017   4.489  0.0189  0.2946 -0.1034
    2CHTO   C85  546   4.453   6.106   4.380  0.4422  0.0087  0.0504
    2CHTO  H157  547   4.377   6.059   4.314 -2.0858  1.5140  1.7844
    2CHTO   C83  548   4.586   6.111   4.291  0.3679  0.8552  0.2178
    2CHTO  H155  549   4.595   6.006   4.263  0.3907  1.0246 -0.4197
    2CHTO   O56  550   4.692   6.138   4.386 -0.1622  0.0458  0.3772
    2CHTO  H135  551   4.717   6.060   4.431  0.8531 -0.0794 -0.3875
    2CHTO   C81  552   4.570   6.195   4.169 -0.2821 -0.4219 -0.0610
    2CHTO  H153  553   4.476   6.164   4.124 -0.0286 -1.1651 -0.0724
    2CHTO   N14  554   4.671   6.165   4.066 -0.1136  0.4352 -0.2396
    2CHTO  H141  555   4.737   6.086   4.093 -2.3066 -1.1549  0.6296
    2CHTO  H142  556   4.726   6.254   4.041  2.3114 -0.9951 -0.1031
    2CHTO   C79  557   4.553   6.345   4.211  1.0587  0.2578  0.5425
    2CHTO  H151  558   4.547   6.399   4.117  2.0840 -0.9670 -0.2527
    2CHTO   O52  559   4.438   6.353   4.297 -0.1790  0.0662 -0.1207
    2CHTO   C86  560   4.417   6.262   4.411  0.2494  0.6168 -0.5031
    2CHTO  H158  561   4.480   6.293   4.497  0.0666  2.3955 -1.0009
    2CHTO   C90  562   4.277   6.284   4.461 -0.8894  0.1905  0.0949
    2CHTO   O60  563   4.256   6.421   4.506 -0.2329  0.0827 -0.3733
    2CHTO  H138  564   4.212   6.464   4.435 -1.9395 -1.2794 -0.1884
    2CHTO   O50  565   4.674   6.400   4.267  0.0668 -0.0674  0.2171
    2CHTO   C73  566   4.763   6.516   4.272  0.3435  0.0440 -0.4443
    2CHTO  H145  567   4.705   6.610   4.268 -1.1875 -0.8178  0.6414
    2CHTO   C74  568   4.869   6.503   4.158  0.1040 -0.2307 -0.1921
    2CHTO  H146  569   4.814   6.486   4.064  1.1606  1.0306 -1.0658
    2CHTO   O54  570   4.927   6.634   4.146 -0.6089  0.1024  0.2776
    2CHTO  H133  571   5.020   6.623   4.146 -0.6351 -0.1586  1.1822
    2CHTO   C75  572   4.973   6.386   4.191 -0.1762  0.2815  0.6061
    2CHTO  H147  573   4.924   6.288   4.184 -1.1739  0.7865  0.5271
    2CHTO   N13  574   5.087   6.384   4.098 -0.4725 -0.0264  0.1087
    2CHTO  H139  575   5.046   6.362   4.001  0.5178 -5.1061  0.7123
    2CHTO  H140  576   5.148   6.473   4.095 -0.6227  0.0504 -0.7018
    2CHTO   C76  577   5.024   6.397   4.336  0.6393 -0.2221  0.2021
    2CHTO  H148  578   5.085   6.486   4.354 -0.0415 -0.0090  1.5231
    2CHTO   O49  579   4.909   6.386   4.422 -0.0577 -0.4995  0.2175
    2CHTO   C77  580   4.838   6.512   4.414  0.1454  0.1669 -0.1875
    2CHTO  H149  581   4.906   6.596   4.410  2.4316 -1.6002  0.7277
    2CHTO   C88  582   4.754   6.534   4.534  0.2859  0.1560 -0.3986
    2CHTO   O58  583   4.687   6.402   4.590  0.0564 -0.2884 -0.5581
    2CHTO  H136  584   4.739   6.350   4.648 -0.4161 -0.6880 -0.4899
    2CHTO   O51  585   5.111   6.269   4.382 -0.0980 -0.3729  0.2063
    2CHTO   C78  586   5.198   6.302   4.523  0.1854 -0.2120 -0.1233
    2CHTO  H150  587   5.150   6.381   4.584  1.0431 -0.1767  0.5125
    2CHTO   C80  588   5.350   6.334   4.496 -0.6955  0.0015  0.1431
    2CHTO  H152  589   5.390   6.251   4.434  0.2357 -0.3188  1.1543
    2CHTO   O55  590   5.343   6.457   4.415  0.1076  0.1097  0.4854
    2CHTO  H134  591   5.331   6.533   4.469  1.2969 -0.0532  0.9956
    2CHTO   C84  592   5.433   6.348   4.623 -0.4390 -0.8985 -0.8247
    2CHTO  H156  593   5.404   6.439   4.674  2.9972  1.1565 -2.3226
    2CHTO   N15  594   5.577   6.366   4.587  0.5834 -0.4505 -0.2736
    2CHTO  H143  595   5.648   6.290   4.612  1.6218 -0.7012 -3.6964
    2CHTO  H144  596   5.584   6.387   4.482  1.3958  1.8385  0.2141
    2CHTO   C87  597   5.413   6.219   4.712 -0.2093  0.3240 -0.6630
    2CHTO  H159  598   5.467   6.134   4.672 -2.3344 -2.6643  2.4454
    2CHTO   O53  599   5.264   6.186   4.735  0.3373  0.1417 -0.6998
    2CHTO   C82  600   5.190   6.178   4.612 -0.2726  0.1773  0.1522
    2CHTO  H154  601   5.234   6.096   4.556  2.5808  1.8549 -0.1652
    2CHTO   C89  602   5.045   6.136   4.641  0.2474  0.1228 -0.1177
    2CHTO   O59  603   4.977   6.215   4.749  0.0958 -0.0674  0.0518
    2CHTO  H137  604   4.938   6.285   4.701 -0.2745  1.8879  3.0935
    2CHTO   O45  605   5.465   6.247   4.869 -0.0755  0.3936 -0.2058
    2CHTO   C67  606   5.463   6.133   4.962 -0.2686 -0.5885  0.2199
    2CHTO  H124  607   5.388   6.062   4.928 -0.7711  0.0598 -0.0555
    2CHTO   C65  608   5.605   6.057   4.966 -0.3125 -0.5014  0.1148
    2CHTO  H122  609   5.683   6.128   4.939 -1.1337 -0.1007 -1.2640
    2CHTO   O44  610   5.604   5.957   4.865  0.3123  0.1754 -0.6709
    2CHTO  H102  611   5.692   5.942   4.836 -0.7612 -1.4174 -3.2743
    2CHTO   C63  612   5.644   6.007   5.110 -0.4661  0.0657  0.3885
    2CHTO  H120  613   5.681   6.092   5.168  1.4693  0.0102 -0.7202
    2CHTO   N11  614   5.762   5.920   5.119  0.1930  0.4472  0.0373
    2CHTO  H108  615   5.855   5.972   5.130 -1.4789  3.3796  0.9217
    2CHTO  H109  616   5.770   5.872   5.024  1.1531 -0.5248  0.5925
    2CHTO   C61  617   5.516   5.955   5.188  0.6478 -0.3739  0.4219
    2CHTO  H118  618   5.540   5.942   5.295 -1.8867  0.1279  1.0680
    2CHTO   O40  619   5.401   6.051   5.180  0.2762 -0.2171  0.3099
    2CHTO   C68  620   5.426   6.173   5.103  0.5577 -0.5706  0.0146
    2CHTO  H125  621   5.511   6.224   5.154 -1.0398 -0.8334  3.0579
    2CHTO   C72  622   5.291   6.257   5.124  0.5707  0.6306 -0.1604
    2CHTO   O48  623   5.311   6.395   5.082 -1.1478 -0.1345  0.8252
    2CHTO  H105  624   5.225   6.431   5.075 -0.4824  1.7469  1.7848
    2CHTO   O38  625   5.466   5.831   5.130 -0.0218 -0.2606  0.0133
    2CHTO   C55  626   5.386   5.745   5.212  0.1258  0.4202 -1.0946
    2CHTO  H112  627   5.333   5.799   5.291  4.2703 -2.2032  3.8029
    2CHTO   C56  628   5.470   5.627   5.275 -0.0735  0.4086 -0.3548
    2CHTO  H113  629   5.542   5.597   5.197 -0.0084  0.1477 -0.1941
    2CHTO   O42  630   5.552   5.686   5.377 -0.3020  0.2730 -0.9218
    2CHTO  H100  631   5.601   5.761   5.350  0.4658 -0.1348 -0.6774
    2CHTO   C57  632   5.388   5.509   5.336  0.6089  0.0417 -0.3411
    2CHTO  H114  633   5.358   5.537   5.437  2.0516  0.7993 -0.1173
    2CHTO   N10  634   5.477   5.393   5.358  0.2165  0.0857  0.0708
    2CHTO  H106  635   5.552   5.386   5.280  0.7678 -1.5376  0.7298
    2CHTO  H107  636   5.521   5.377   5.455 -0.4253  2.2709  0.7710
    2CHTO   C58  637   5.263   5.473   5.255  0.6611 -0.1726  0.0771
    2CHTO  H115  638   5.291   5.410   5.168  1.4153  1.6333 -1.0190
    2CHTO   O37  639   5.193   5.586   5.204  0.4487 -0.4402 -0.2936
    2CHTO   C59  640   5.268   5.678   5.123  0.1768 -0.5760  0.5956
    2CHTO  H116  641   5.305   5.630   5.032 -2.0664  1.1393 -1.2631
    2CHTO   C70  642   5.172   5.782   5.070  0.3304  0.2490 -0.0721
    2CHTO   O46  643   5.041   5.742   5.017 -0.5336 -0.1703  0.0468
    2CHTO  H103  644   5.037   5.650   5.032  0.0920 -0.4912 -1.5928
    2CHTO   O39  645   5.160   5.377   5.357  0.2132 -0.0461 -0.4832
    2CHTO   C60  646   5.033   5.430   5.393 -0.1067 -0.0450  0.0580
    2CHTO  H117  647   5.007   5.521   5.338 -1.8201 -0.1275  0.7096
    2CHTO   C62  648   4.933   5.315   5.373  0.6901  0.5116 -0.1501
    2CHTO  H119  649   4.944   5.286   5.267 -0.4388  1.7534 -0.6128
    2CHTO   O43  650   4.965   5.193   5.447 -0.2914  0.3054  0.3226
    2CHTO  H101  651   4.975   5.215   5.538 -0.3691 -0.2666  0.4709
    2CHTO   C66  652   4.785   5.371   5.394  0.0766 -0.6774  0.5299
    2CHTO  H123  653   4.766   5.453   5.324 -1.7126 -2.0995 -0.7039
    2CHTO   N12  654   4.678   5.274   5.369 -0.0451 -0.0465 -0.3242
    2CHTO  H110  655   4.684   5.193   5.440  1.3502 -0.2253 -0.6379
    2CHTO  H111  656   4.698   5.219   5.278 -0.0388 -1.8634  0.7626
    2CHTO   C69  657   4.762   5.444   5.530 -0.3774 -0.0970  0.0715
    2CHTO  H126  658   4.738   5.364   5.604  1.4863  0.1546  0.9764
    2CHTO   O41  659   4.895   5.535   5.581  0.1579  0.0057  0.3013
    2CHTO   C64  660   5.033   5.479   5.544 -0.6823 -0.0405 -0.0433
    2CHTO  H121  661   5.067   5.400   5.615 -1.2747 -0.9548 -0.7660
    2CHTO   C71  662   5.134   5.596   5.564 -0.1097 -0.0758 -0.4959
    2CHTO   O47  663   5.080   5.717   5.529 -0.1195 -0.4584 -0.0483
    2CHTO  H104  664   5.142   5.776   5.568 -0.0020 -1.1651  0.8522
    2CHTO   O34  665   4.634   5.543   5.530 -0.3747 -0.0656  0.0397
    2CHTO   C49  666   4.579   5.680   5.497  0.3297 -0.1008  0.4699
    2CHTO   H91  667   4.524   5.718   5.583 -1.0359 -2.4429  0.6653
    2CHTO   C47  668   4.495   5.687   5.371 -0.7483 -1.0105 -0.3043
    2CHTO   H89  669   4.452   5.789   5.366  0.7897 -0.2610  1.2270
    2CHTO   O33  670   4.388   5.601   5.390 -0.4827  1.3045  0.4804
    2CHTO   H70  671   4.319   5.636   5.337 -1.4876  0.2126  1.0248
    2CHTO   C45  672   4.587   5.655   5.237 -0.6044  0.4620 -0.4531
    2CHTO   H87  673   4.629   5.555   5.256 -0.5572  0.0462 -2.6223
    2CHTO    N8  674   4.515   5.656   5.113 -0.2325  0.6530  0.5373
    2CHTO   H75  675   4.420   5.606   5.118 -0.0578  0.0991 -1.1794
    2CHTO   H76  676   4.504   5.761   5.088 -1.1904  0.3730 -0.2433
    2CHTO   C43  677   4.719   5.750   5.242 -0.5750 -0.6666 -0.1907
    2CHTO   H85  678   4.788   5.707   5.169  1.6966 -0.3922  1.7280
    2CHTO   O29  679   4.777   5.767   5.372 -0.4301  0.3654  0.0207
    2CHTO   C50  680   4.693   5.787   5.487  0.2005 -0.8120  0.2438
    2CHTO   H92  681   4.756   5.770   5.575 -0.2327  1.5569  1.0433
    2CHTO   C54  682   4.636   5.935   5.498  0.0551  0.1232 -0.0306
    2CHTO   O36  683   4.735   6.026   5.528  0.0953 -0.4898  0.2395
    2CHTO   H72  684   4.784   5.989   5.598  0.6816  0.3093  0.2579
    2CHTO   O27  685   4.699   5.888   5.199 -0.2376 -0.3816  0.1189
    2CHTO   C37  686   4.764   5.968   5.097 -0.5731  0.3895 -0.2077
    2CHTO   H79  687   4.856   5.919   5.063 -0.7058 -0.7474  1.0195
    2CHTO   C38  688   4.669   5.974   4.970 -0.6303  0.9793  0.0979
    2CHTO   H80  689   4.564   5.975   5.004 -0.7135  0.4165 -0.1370
    2CHTO   O31  690   4.691   5.858   4.898  0.2009 -0.0672  0.1022
    2CHTO   H68  691   4.618   5.859   4.840  1.7273  0.0586 -1.8596
    2CHTO   C39  692   4.689   6.101   4.877  0.4743  0.6164  0.7893
    2CHTO   H81  693   4.775   6.080   4.812 -0.0624 -1.8599  0.8253
    2CHTO    N7  694   4.575   6.117   4.782  0.1734  0.7603  0.3064
    2CHTO   H73  695   4.606   6.102   4.680  0.1403  1.4284  0.1987
    2CHTO   H74  696   4.498   6.044   4.801  2.5503 -2.0225 -0.4049
    2CHTO   C40  697   4.721   6.227   4.966  0.2591  0.5517 -0.0342
    2CHTO   H82  698   4.628   6.252   5.017  0.1447  0.2503 -0.0948
    2CHTO   O26  699   4.829   6.192   5.054  0.4988  0.2063  0.0023
    2CHTO   C41  700   4.802   6.104   5.157 -0.2054 -0.3506  0.1120
    2CHTO   H83  701   4.712   6.142   5.208  1.4153  1.9622  1.3191
    2CHTO   C52  702   4.918   6.093   5.256 -0.4547  0.0374 -0.1031
    2CHTO   O35  703   4.967   6.236   5.334 -0.1044  0.0856 -0.3030
    2CHTO   H71  704   4.899   6.256   5.396 -0.6187  1.1806 -1.2014
    2CHTO   O28  705   4.749   6.348   4.893  0.2999  0.4569 -0.0716
    2CHTO   C42  706   4.726   6.479   4.950 -0.2995 -0.5525 -0.8511
    2CHTO   H84  707   4.758   6.554   4.877 -0.9113  1.6843  1.1049
    2CHTO   C44  708   4.805   6.508   5.080  0.2994 -0.2041  0.0127
    2CHTO   H86  709   4.793   6.421   5.145 -0.1713  0.0299  0.2465
    2CHTO   O32  710   4.943   6.523   5.046  0.2441 -0.2752 -0.4693
    2CHTO   H69  711   4.988   6.486   5.119 -1.5960  0.5542  1.1133
    2CHTO   C48  712   4.760   6.637   5.161 -0.7465  0.3440 -0.1801
    2CHTO   H90  713   4.806   6.715   5.101  2.3993 -0.0052  1.6801
    2CHTO    N9  714   4.831   6.651   5.295 -0.2821 -0.5390 -0.8920
    2CHTO   H77  715   4.937   6.662   5.282 -0.5040  2.3775 -0.4957
    2CHTO   H78  716   4.785   6.733   5.348 -0.0307 -0.3456 -0.9786
    2CHTO   C51  717   4.605   6.655   5.170  0.4414  0.3151 -0.1024
    2CHTO   H93  718   4.569   6.577   5.237  1.7718 -0.6214 -0.4624
    2CHTO   O30  719   4.548   6.640   5.040  0.2496  0.1643  0.3645
    2CHTO   C46  720   4.577   6.507   4.972  0.3776  0.2632  0.4496
    2CHTO   H88  721   4.535   6.430   5.038  0.3736 -0.4315 -0.3499
    2CHTO   C53  722   4.500   6.496   4.845  0.6230 -0.3093  0.2506
    2CHTO   O72  723   4.359   6.491   4.882 -0.0282 -0.1769 -0.0897
    2CHTO  H199  724   4.326   6.411   4.920 -1.1614  1.5872  2.8230
    2CHTO   O22  725   4.574   6.786   5.220 -0.1592  0.2192 -0.9122
    2CHTO   C31  726   4.434   6.850   5.237  0.3387 -0.7536  0.1618
    2CHTO   H59  727   4.451   6.955   5.267 -0.5444 -0.2161 -1.1585
    2CHTO   C29  728   4.357   6.862   5.106 -0.3514 -0.3748  0.2187
    2CHTO   H57  729   4.336   6.763   5.062  2.0512 -2.3904  3.4117
    2CHTO   O21  730   4.441   6.933   5.014 -0.0957 -0.0796  0.0711
    2CHTO   H37  731   4.466   7.021   5.038 -0.7356  0.2020 -0.2901
    2CHTO   C27  732   4.218   6.939   5.123  0.2593 -0.1746 -0.0862
    2CHTO   H55  733   4.242   7.040   5.161 -1.1251  0.0626  0.1929
    2CHTO    N5  734   4.131   6.953   5.005 -0.3743 -0.0318  0.1476
    2CHTO   H43  735   4.092   6.854   4.987  1.6500 -0.8667  0.3008
    2CHTO   H44  736   4.178   6.979   4.912 -2.5600  1.7305 -0.5179
    2CHTO   C25  737   4.146   6.855   5.233 -0.3476  0.1987  0.5248
    2CHTO   H53  738   4.124   6.753   5.198 -0.1647  0.3140  0.0784
    2CHTO   O17  739   4.223   6.858   5.355 -0.3199 -0.7079 -0.3458
    2CHTO   C32  740   4.349   6.787   5.349 -0.7109 -0.7438 -0.0099
    2CHTO   H60  741   4.319   6.687   5.317  2.2030 -1.1449 -1.7049
    2CHTO   C36  742   4.426   6.784   5.493 -0.4120  0.3977  0.5655
    2CHTO   O25  743   4.341   6.708   5.581  0.5467  0.3152  0.2067
    2CHTO   H40  744   4.367   6.621   5.602 -0.6761  0.0605  0.7466
    2CHTO   O15  745   4.007   6.933   5.283  0.0575 -0.1682 -0.0751
    2CHTO   C19  746   3.928   6.892   5.402  0.0839 -0.2721 -0.1132
    2CHTO   H47  747   3.822   6.919   5.389 -0.2359 -0.3735  2.0038
    2CHTO   C20  748   3.932   6.734   5.412  0.2536 -0.8908  0.6676
    2CHTO   H48  749   4.036   6.698   5.407  0.3648 -0.7954  2.1949
    2CHTO   O19  750   3.871   6.689   5.291 -0.0515  0.1070 -0.0256
    2CHTO   H35  751   3.888   6.749   5.221 -1.1382  1.0148  0.4561
    2CHTO   C21  752   3.857   6.674   5.532 -0.8851 -0.5895 -0.0175
    2CHTO   H49  753   3.749   6.680   5.515 -1.2998 -1.5853  2.1532
    2CHTO    N4  754   3.878   6.529   5.519  0.1508 -0.0921  0.1635
    2CHTO   H41  755   3.850   6.470   5.605 -1.7181  0.3527 -0.1282
    2CHTO   H42  756   3.833   6.484   5.432 -0.5195 -2.6923  1.8097
    2CHTO   C22  757   3.899   6.748   5.663  0.3625  0.0594  0.3729
    2CHTO   H50  758   4.002   6.719   5.687 -0.1314 -2.1582 -0.0356
    2CHTO   O14  759   3.878   6.891   5.636 -0.4408 -0.0454  0.1246
    2CHTO   C23  760   3.966   6.952   5.537 -0.0696  0.2058  0.3321
    2CHTO   H51  761   4.069   6.928   5.567  0.0656  0.9703  0.5000
    2CHTO   C34  762   3.955   7.102   5.535  0.4433 -0.1972 -0.4404
    2CHTO   O23  763   4.018   7.163   5.648  0.1967 -0.0678 -0.6655
    2CHTO   H38  764   4.012   7.113   5.727  0.1451  0.3498 -0.4014
    2CHTO   O16  765   3.809   6.716   5.769 -0.1906 -0.0185  0.2005
    2CHTO   C24  766   3.867   6.736   5.917  0.2699 -0.6289 -0.3451
    2CHTO   H52  767   3.956   6.799   5.916 -0.0030 -0.1695  2.1031
    2CHTO   C26  768   3.907   6.598   5.970  0.3009  0.4478 -0.3267
    2CHTO   H54  769   3.828   6.523   5.950 -0.8115  1.1803  1.2334
    2CHTO   O20  770   4.015   6.543   5.886 -0.0448  0.7595 -0.9064
    2CHTO   H36  771   4.086   6.604   5.885 -2.3800  3.6069  0.3121
    2CHTO   C30  772   3.933   6.603   6.124 -0.1553 -0.3607 -0.1160
    2CHTO   H58  773   4.026   6.657   6.148 -0.8733  1.6053 -1.6994
    2CHTO    N6  774   3.957   6.465   6.185 -0.6649  0.1832 -0.0007
    2CHTO   H45  775   4.060   6.436   6.180 -0.5045  0.9081 -0.9501
    2CHTO   H46  776   3.927   6.461   6.289  2.1612  1.6349  0.9082
    2CHTO   C33  777   3.818   6.680   6.199 -0.2075  0.0585  0.1295
    2CHTO   H61  778   3.725   6.622   6.198  0.2141 -0.6085 -1.4453
    2CHTO   O18  779   3.802   6.807   6.141  0.0290  0.2558 -0.1534
    2CHTO   C28  780   3.762   6.808   6.003  0.0792  0.5262 -1.1325
    2CHTO   H56  781   3.666   6.761   5.985  0.2542 -0.1003 -0.4505
    2CHTO   C35  782   3.748   6.962   5.966  0.0625  0.1118  0.7606
    2CHTO   O24  783   3.626   7.019   6.009  0.7173 -0.3764  0.3338
    2CHTO   H39  784   3.561   6.995   5.945 -0.6652  0.6109  1.3340
    2CHTO    O9  785   3.851   6.689   6.340 -0.0784 -0.1839 -0.0147
    2CHTO   C13  786   3.757   6.797   6.431 -0.2704  0.2843  0.0064
    2CHTO   H26  787   3.659   6.806   6.381 -0.6830 -1.8560  0.3901
    2CHTO   C11  788   3.831   6.934   6.438  0.6440 -0.3385  1.0925
    2CHTO   H24  789   3.831   6.979   6.338 -0.5904  1.7299  1.9771
    2CHTO    O8  790   3.974   6.912   6.468 -0.0002 -0.1937 -0.3314
    2CHTO    H3  791   3.983   6.906   6.562  0.4788 -0.7189 -0.4077
    2CHTO    C9  792   3.749   7.022   6.537  0.3969  0.1198  0.0051
    2CHTO   H22  793   3.646   7.023   6.496  0.5239  0.8451 -0.3119
    2CHTO    N2  794   3.801   7.161   6.540 -0.0923 -0.2649  0.0873
    2CHTO   H10  795   3.766   7.222   6.458  1.4422  0.8597  0.2532
    2CHTO   H11  796   3.902   7.177   6.575  0.4504 -1.3978 -0.9011
    2CHTO    C7  797   3.744   6.961   6.680 -0.1143 -0.2535 -0.0728
    2CHTO   H20  798   3.680   7.034   6.735 -1.4135 -1.0533 -0.4924
    2CHTO    O4  799   3.684   6.822   6.677  0.2788  0.0074 -0.1464
    2CHTO   C14  800   3.723   6.732   6.574 -0.3779  0.5297  0.2255
    2CHTO   H27  801   3.646   6.654   6.557 -0.3658  0.6136 -0.1982
    2CHTO   C18  802   3.844   6.659   6.640  0.2447 -0.1542  0.0292
    2CHTO   O13  803   3.816   6.577   6.757 -0.5292  0.2419  0.0842
    2CHTO    H7  804   3.762   6.625   6.817  0.7893  1.1673  0.5476
    2CHTO    O2  805   3.881   6.948   6.760 -0.3097  0.1343  0.2189
    2CHTO    C1  806   3.882   6.990   6.894 -0.6256 -0.0860 -0.1704
    2CHTO   H14  807   3.799   6.941   6.949 -1.2618  2.0397  0.7950
    2CHTO    C2  808   3.868   7.144   6.914  0.0124  0.2422 -0.9960
    2CHTO   H15  809   3.941   7.179   6.839  1.3060 -0.6104 -0.1424
    2CHTO    O6  810   3.736   7.195   6.892  0.0241  0.1802  0.6647
    2CHTO    H1  811   3.715   7.275   6.936 -0.2396  0.7232 -0.4200
    2CHTO    C3  812   3.922   7.189   7.064  0.1512  0.8852  0.6061
    2CHTO   H16  813   3.855   7.148   7.141  1.8417 -0.2061  1.5443
    2CHTO    N1  814   3.929   7.338   7.074  0.9107  0.0399 -0.0090
    2CHTO    H8  815   3.998   7.388   7.008  1.1441 -0.1069  0.1207
    2CHTO    H9  816   3.838   7.395   7.081  1.9234  1.6047  0.6321
    2CHTO    C4  817   4.064   7.134   7.103  0.6625 -0.2346 -0.4092
    2CHTO   H17  818   4.137   7.181   7.037  0.0620  1.7413  0.2849
    2CHTO    O1  819   4.046   6.994   7.089  0.0290 -0.4483 -0.2794
    2CHTO    C5  820   4.020   6.940   6.956 -0.7660  0.0744 -0.5499
    2CHTO   H18  821   4.100   6.981   6.894 -1.4096 -0.8608 -2.0150
    2CHTO   C16  822   4.034   6.778   6.964 -0.2064  0.0981  0.3732
    2CHTO   O11  823   3.944   6.703   7.048 -0.6347 -0.0782  0.2870
    2CHTO    H5  824   3.959   6.729   7.137  2.4601 -0.9960  0.0751
    2CHTO    O3  825   4.113   7.148   7.237  0.1767 -0.2912  0.2255
    2CHTO    C6  826   4.252   7.187   7.255 -0.8299  0.5594 -0.3147
    2CHTO   H19  827   4.303   7.169   7.160 -1.0425  4.4041 -1.2255
    2CHTO    C8  828   4.265   7.337   7.300  0.6925  0.6051  0.4575
    2CHTO   H21  829   4.191   7.359   7.377 -1.2130 -1.6049 -0.6796
    2CHTO    O7  830   4.228   7.420   7.186  0.7363  0.4631  0.1524
    2CHTO    H2  831   4.248   7.512   7.195 -0.9767  0.7391  1.4895
    2CHTO   C12  832   4.405   7.368   7.361  0.1329 -0.2003 -0.4233
    2CHTO   H25  833   4.467   7.354   7.269 -0.0508 -3.3043 -0.1188
    2CHTO    N3  834   4.417   7.506   7.423 -0.3670  0.2518  0.0965
    2CHTO   H12  835   4.524   7.518   7.432 -0.0542  0.5226 -3.2479
    2CHTO   H13  836   4.373   7.509   7.521  1.8085  1.4173  1.0575
    2CHTO   C15  837   4.438   7.261   7.469 -0.2375  0.1063  0.8133
    2CHTO   H28  838   4.357   7.253   7.541 -0.2694  1.9583  1.0128
    2CHTO   O10  839   4.578   7.282   7.533 -0.1477 -0.1815  0.4806
    2CHTO    H4  840   4.582   7.372   7.561  0.7576  0.0016 -0.2047
    2CHTO    O5  841   4.446   7.135   7.399 -0.5533  0.3161 -0.3384
    2CHTO   C10  842   4.318   7.089   7.355 -0.4682  1.0896 -0.0206
    2CHTO   H23  843   4.257   7.078   7.445 -0.6349 -0.4132 -0.2922
    2CHTO   C17  844   4.338   6.955   7.295  0.4094 -0.2903  0.2117
    2CHTO   O12  845   4.417   6.860   7.372 -0.2611 -0.1289  0.0778
    2CHTO    H6  846   4.419   6.889   7.461 -3.4514 -0.6948  0.3719
    3CHTO  H203  847   6.340   3.316   3.236  0.5258  1.2708 -1.9717
    3CHTO   O82  848   6.377   3.240   3.195  0.6611  0.2338 -0.0167
    3CHTO  C123  849   6.298   3.186   3.087 -0.4826  0.1374 -0.2368
    3CHTO  H227  850   6.198   3.176   3.132 -0.6020  0.2574 -0.4729
    3CHTO   O77  851   6.310   3.290   2.988  0.0678 -0.2587 -0.0634
    3CHTO  C118  852   6.229   3.269   2.865 -0.2563  0.2639  0.1060
    3CHTO  H222  853   6.125   3.258   2.899 -0.4495 -0.5693 -0.7508
    3CHTO  C125  854   6.241   3.401   2.784  0.1395  0.5946 -0.3410
    3CHTO   O84  855   6.368   3.414   2.711  0.0057 -0.2216 -0.6183
    3CHTO  H205  856   6.351   3.485   2.652  0.0877 -0.9579 -1.5481
    3CHTO  C114  857   6.283   3.152   2.787 -0.1150 -0.3534 -0.0681
    3CHTO  H218  858   6.388   3.174   2.764  0.2741  0.7887  2.6224
    3CHTO  C116  859   6.296   3.023   2.879 -0.3633 -0.4230 -0.3604
    3CHTO  H220  860   6.195   2.979   2.877 -0.8511  0.6428  0.6973
    3CHTO   O79  861   6.383   2.937   2.811 -0.0298 -0.1397 -0.2762
    3CHTO  H201  862   6.337   2.856   2.812  0.0887 -0.1965  1.3192
    3CHTO  C120  863   6.349   3.053   3.027  0.5519  0.7524 -0.0569
    3CHTO  H224  864   6.460   3.063   3.023  0.8059 -2.0732 -1.2956
    3CHTO   N21  865   6.320   2.930   3.111  0.2975 -0.5210  0.1274
    3CHTO  H211  866   6.228   2.943   3.165  2.0809  1.9190  2.6936
    3CHTO  H212  867   6.313   2.844   3.045 -0.6498  0.3543 -0.9207
    3CHTO   O75  868   6.202   3.133   2.669 -0.1489 -0.0704 -0.0885
    3CHTO  C112  869   6.298   3.069   2.536  0.9116  0.3036  0.8781
    3CHTO  H216  870   6.317   2.962   2.553 -3.1837 -0.2874  2.2845
    3CHTO   O73  871   6.421   3.144   2.532  0.2080  0.4991 -0.1792
    3CHTO  C113  872   6.519   3.089   2.450 -0.6272 -0.5991  0.8288
    3CHTO  H217  873   6.527   2.983   2.481  0.7068 -1.3512 -1.8678
    3CHTO  C124  874   6.653   3.155   2.480 -0.8681  0.1640 -0.1083
    3CHTO   O83  875   6.762   3.085   2.415 -0.5545  0.0790  0.5413
    3CHTO  H204  876   6.826   3.150   2.393 -1.0112  1.0526  2.0638
    3CHTO  C109  877   6.470   3.089   2.302 -0.7754  0.3662 -0.0984
    3CHTO  H213  878   6.470   3.193   2.265  1.1624  0.2396 -0.4868
    3CHTO  C110  879   6.314   3.025   2.294 -0.3434 -0.2399 -0.5395
    3CHTO  H214  880   6.320   2.918   2.317 -0.1892  0.1548  1.3427
    3CHTO   O78  881   6.268   3.037   2.165  0.4981 -0.1365 -0.0119
    3CHTO  H200  882   6.329   3.005   2.101  0.7918  1.4304 -0.5497
    3CHTO  C111  883   6.219   3.085   2.402 -0.9216  0.7706  0.1130
    3CHTO  H215  884   6.212   3.193   2.384  2.7085  1.3065  1.5895
    3CHTO   N19  885   6.081   3.032   2.409 -0.1169  0.0716 -0.2393
    3CHTO  H207  886   6.002   3.104   2.388  1.0240  1.4720  0.1770
    3CHTO  H208  887   6.085   2.942   2.351 -1.4760 -1.9179  2.6191
    3CHTO   O74  888   6.560   3.011   2.221 -0.1535 -0.4216 -0.1432
    3CHTO  C115  889   6.645   3.119   2.101 -0.1310  0.0892  0.3123
    3CHTO  H219  890   6.617   3.224   2.116  0.1523 -0.0117  1.6223
    3CHTO   O76  891   6.799   3.116   2.119  0.1585 -0.1479 -0.2663
    3CHTO  C122  892   6.863   2.981   2.105  0.0979 -0.0247 -0.0479
    3CHTO  H226  893   6.869   2.933   2.203 -0.7057  2.1204  1.0920
    3CHTO  C126  894   7.010   3.010   2.065  0.1697  0.6382 -0.0745
    3CHTO   O85  895   7.088   2.888   2.062 -0.2818 -1.0801  0.1194
    3CHTO  H206  896   7.178   2.911   2.051 -0.8383  0.2749 -1.9729
    3CHTO  C121  897   6.778   2.890   2.006 -0.0042 -0.4506  0.7913
    3CHTO  H225  898   6.843   2.820   1.950 -0.9071 -1.3599  0.8640
    3CHTO   O81  899   6.693   2.805   2.079 -0.3528 -0.3376  0.3494
    3CHTO  H202  900   6.650   2.863   2.139 -0.3273 -0.4003  0.4273
    3CHTO  C119  901   6.713   2.980   1.900 -0.1044  0.5547  0.1762
    3CHTO  H223  902   6.786   3.053   1.864 -1.0776  2.3395  1.7365
    3CHTO  C117  903   6.602   3.069   1.960 -0.1406 -0.2498 -0.4626
    3CHTO  H221  904   6.511   3.017   1.987  0.8056 -2.4412 -1.3993
    3CHTO   N20  905   6.560   3.179   1.868  1.1360  1.1416  0.3362
    3CHTO  H209  906   6.520   3.261   1.926  1.6038  0.7999  1.1412
    3CHTO  H210  907   6.476   3.144   1.810  0.9768 -1.1294  1.8993
    3CHTO   O80  908   6.665   2.909   1.765 -0.0403 -0.0753  0.3475
    3CHTO  C103  909   6.606   2.772   1.764  0.2507 -0.1037  0.0148
    3CHTO  H190  910   6.633   2.710   1.850  0.2442 -1.3900 -0.8934
    3CHTO  C101  911   6.443   2.778   1.750  0.4166 -0.2387 -0.0186
    3CHTO  H188  912   6.417   2.820   1.653 -1.8587 -0.9482  0.2599
    3CHTO   O68  913   6.364   2.845   1.856 -0.7900  0.0943 -0.3674
    3CHTO  H168  914   6.410   2.914   1.900  0.4576 -1.0855  0.2164
    3CHTO   C99  915   6.393   2.629   1.739 -0.4194 -0.0520  0.1167
    3CHTO  H186  916   6.413   2.569   1.831 -0.6369  0.5138  0.5348
    3CHTO   N17  917   6.245   2.618   1.723 -0.3615  0.1254  0.3487
    3CHTO  H174  918   6.189   2.711   1.725 -3.9918 -1.9568  0.8440
    3CHTO  H175  919   6.210   2.555   1.643  1.0609  1.2530 -1.1817
    3CHTO   C97  920   6.457   2.560   1.618  0.4458  0.3966 -0.5465
    3CHTO  H184  921   6.431   2.620   1.530 -0.6021  0.1597 -0.4005
    3CHTO   O64  922   6.599   2.562   1.643  0.6093 -0.6312 -0.0487
    3CHTO  C104  923   6.663   2.694   1.639 -0.3511 -0.3043  0.1399
    3CHTO  H191  924   6.635   2.745   1.547 -0.6961 -0.8854 -0.0782
    3CHTO  C108  925   6.815   2.672   1.638  0.1043 -0.3190  0.4015
    3CHTO   O71  926   6.892   2.782   1.620  0.0514 -0.2443  0.1539
    3CHTO  H171  927   6.876   2.849   1.556  0.7750  0.0691  0.2934
    3CHTO   O62  928   6.422   2.417   1.610  0.3943 -0.0496 -0.4081
    3CHTO   C91  929   6.385   2.373   1.477  0.2968  0.2060  0.4030
    3CHTO  H178  930   6.306   2.441   1.444  0.4314  1.4751  2.5586
    3CHTO   C92  931   6.326   2.239   1.497 -0.1056  0.0491 -0.5664
    3CHTO  H179  932   6.392   2.170   1.550 -1.3856  0.3357  1.4794
    3CHTO   O66  933   6.213   2.256   1.579 -0.1133 -0.0376  0.0219
    3CHTO  H166  934   6.173   2.173   1.596 -1.1564  0.9084  2.4423
    3CHTO   C93  935   6.271   2.171   1.365 -0.4032  0.1630  0.5576
    3CHTO  H180  936   6.184   2.232   1.336  0.8716  1.6923 -0.1309
    3CHTO   N16  937   6.223   2.030   1.374  0.0519  0.7414 -0.3189
    3CHTO  H172  938   6.231   1.990   1.274  0.9267  1.3646 -0.5026
    3CHTO  H173  939   6.121   2.027   1.410 -0.0974  2.4903 -0.5522
    3CHTO   C94  940   6.392   2.182   1.253 -0.1650  0.4796 -0.2152
    3CHTO  H181  941   6.433   2.083   1.234 -0.7991 -0.6503  3.7464
    3CHTO   O61  942   6.517   2.246   1.302  0.1635  0.0425 -0.7851
    3CHTO   C95  943   6.503   2.371   1.368  0.7666 -0.2823 -0.6037
    3CHTO  H182  944   6.593   2.397   1.424  0.2028 -0.5839  0.4611
    3CHTO  C106  945   6.492   2.497   1.269  0.1398  0.3743  0.4485
    3CHTO   O69  946   6.620   2.508   1.206 -0.2714 -0.1020 -0.0027
    3CHTO  H169  947   6.625   2.561   1.130  1.0840 -2.0536 -1.3393
    3CHTO   O63  948   6.344   2.265   1.118  0.1467 -0.0241 -0.2842
    3CHTO   C96  949   6.236   2.230   1.053 -0.0263 -0.0342 -0.0501
    3CHTO  H183  950   6.163   2.192   1.125  0.4270 -3.2320 -1.1996
    3CHTO   C98  951   6.258   2.116   0.945  0.0301  0.6060 -0.0656
    3CHTO  H185  952   6.352   2.130   0.890  0.8660  0.3066  1.2701
    3CHTO   O67  953   6.273   2.000   1.027 -0.1723  0.0512 -0.2944
    3CHTO  H167  954   6.363   1.978   1.042 -0.5792 -0.1076  2.1147
    3CHTO  C102  955   6.137   2.096   0.849  0.2108 -0.1739 -0.0711
    3CHTO  H189  956   6.055   2.061   0.913  0.3766 -0.6062 -0.0952
    3CHTO   N18  957   6.152   1.994   0.745  0.1763  0.0686 -0.2958
    3CHTO  H176  958   6.218   1.911   0.765  1.0786  0.7849 -0.3188
    3CHTO  H177  959   6.056   1.953   0.715 -0.8805  2.0881  0.2356
    3CHTO  C105  960   6.090   2.236   0.797 -0.1248  1.1168  0.2258
    3CHTO  H192  961   6.165   2.279   0.730  0.8887  0.8971  1.2120
    3CHTO   O65  962   6.070   2.341   0.892 -0.0299 -0.2711  0.1116
    3CHTO  C100  963   6.183   2.360   0.984  0.4113  0.0054 -0.0276
    3CHTO  H187  964   6.261   2.399   0.917  0.7300  0.0870  0.3965
    3CHTO  C107  965   6.146   2.467   1.095 -0.5867  0.4269 -0.0170
    3CHTO   O70  966   6.059   2.421   1.197  0.2569 -0.6082  0.0309
    3CHTO  H170  967   6.070   2.480   1.269  0.6157 -1.3945  0.6341
    3CHTO   O57  968   5.948   2.217   0.725  0.1934 -0.4076  0.4926
    3CHTO   C85  969   5.921   2.308   0.620 -0.6833  0.0401  0.8651
    3CHTO  H157  970   6.018   2.313   0.566 -1.2631 -0.3550 -0.2314
    3CHTO   C83  971   5.905   2.457   0.666 -0.5552 -0.3230  0.1106
    3CHTO  H155  972   5.996   2.500   0.708  0.2132  0.3779 -2.1934
    3CHTO   O56  973   5.816   2.464   0.777 -0.1876 -0.4425  0.4696
    3CHTO  H135  974   5.817   2.549   0.816  0.8948 -0.4203  0.3917
    3CHTO   C81  975   5.864   2.542   0.541  0.0064 -0.0911  0.3955
    3CHTO  H153  976   5.943   2.526   0.467  0.7261 -1.2575  1.4004
    3CHTO   N14  977   5.875   2.693   0.558  0.0391 -0.2367  0.3633
    3CHTO  H141  978   5.973   2.728   0.532  0.3900 -0.5353  1.2453
    3CHTO  H142  979   5.803   2.753   0.508 -0.4313  0.2205  1.5597
    3CHTO   C79  980   5.730   2.492   0.478  0.2368 -0.5567  0.0990
    3CHTO  H151  981   5.707   2.556   0.393  0.7688 -0.6192 -0.0990
    3CHTO   O52  982   5.753   2.350   0.434 -0.0898 -0.2183  0.3944
    3CHTO   C86  983   5.804   2.255   0.527  0.1073  0.0277 -0.8001
    3CHTO  H158  984   5.712   2.232   0.584  1.3825 -2.3366  0.3379
    3CHTO   C90  985   5.843   2.123   0.459 -0.3239  0.6255  0.0747
    3CHTO   O60  986   5.847   2.024   0.559  0.1883 -0.6463  0.4097
    3CHTO  H138  987   5.914   2.040   0.624 -0.0107 -1.2909  0.7767
    3CHTO   O50  988   5.617   2.496   0.562  0.1227  0.2286 -0.0904
    3CHTO   C73  989   5.472   2.511   0.561  0.0384  0.3814 -0.5185
    3CHTO  H145  990   5.421   2.462   0.477 -1.9780 -0.8833  1.3923
    3CHTO   C74  991   5.430   2.663   0.561  0.5102 -0.5976 -0.2463
    3CHTO  H146  992   5.480   2.697   0.469  0.3501  1.1525  0.2861
    3CHTO   O54  993   5.288   2.674   0.544  0.5463  0.1679  0.1909
    3CHTO  H133  994   5.261   2.758   0.514 -0.7180 -0.0333  0.7281
    3CHTO   C75  995   5.498   2.729   0.690  0.3070 -0.1604  0.0357
    3CHTO  H147  996   5.606   2.711   0.687  0.2962 -0.1260 -0.6899
    3CHTO   N13  997   5.483   2.871   0.684 -0.0157 -0.1870 -0.7989
    3CHTO  H139  998   5.468   2.915   0.586 -2.8527 -0.1924 -0.4090
    3CHTO  H140  999   5.401   2.897   0.750 -1.0906 -4.6319 -0.2097
    3CHTO   C76 1000   5.430   2.663   0.813  0.0706 -0.7257  0.3511
    3CHTO  H148 1001   5.323   2.681   0.803  0.7614  1.8578 -3.5424
    3CHTO   O49 1002   5.465   2.518   0.807 -0.2239 -0.1509  0.0138
    3CHTO   C77 1003   5.414   2.447   0.694  0.5749  0.2902 -0.0887
    3CHTO  H149 1004   5.308   2.467   0.704  1.1841  3.1328  1.0830
    3CHTO   C88 1005   5.444   2.290   0.689 -0.4197  0.3009  0.7224
    3CHTO   O58 1006   5.352   2.217   0.806  0.3680  0.0197 -0.2955
    3CHTO  H136 1007   5.371   2.234   0.896 -1.3437 -2.3035  0.5278
    3CHTO   O51 1008   5.501   2.711   0.944 -0.2829  0.1356 -0.7678
    3CHTO   C78 1009   5.401   2.710   1.054 -0.0712  0.0845  0.0265
    3CHTO  H150 1010   5.312   2.648   1.026  0.7608 -0.2061 -2.0892
    3CHTO   C80 1011   5.352   2.856   1.074  0.4375 -0.4765 -0.6827
    3CHTO  H152 1012   5.440   2.924   1.076 -0.4046  0.6963 -2.2454
    3CHTO   O55 1013   5.273   2.895   0.956  0.1831  0.1727 -0.3967
    3CHTO  H134 1014   5.220   2.828   0.917  0.8844  1.2302 -3.3280
    3CHTO   C84 1015   5.267   2.865   1.206  0.3846  0.0182 -0.2482
    3CHTO  H156 1016   5.184   2.797   1.189 -0.8167  1.3306  0.3205
    3CHTO   N15 1017   5.221   3.005   1.240 -0.7071 -0.2631  0.1964
    3CHTO  H143 1018   5.266   3.033   1.333  2.3446 -2.5668 -0.4969
    3CHTO  H144 1019   5.248   3.077   1.166 -1.4158  1.3830  1.5217
    3CHTO   C87 1020   5.351   2.804   1.323 -0.0135 -0.0939 -0.4038
    3CHTO  H159 1021   5.436   2.870   1.341  2.4209 -2.7786 -1.7180
    3CHTO   O53 1022   5.388   2.650   1.287  0.0548 -0.0452  0.4526
    3CHTO   C82 1023   5.471   2.643   1.178  0.6175 -0.3803 -0.1238
    3CHTO  H154 1024   5.564   2.696   1.202  1.8338 -2.8700  0.8525
    3CHTO   C89 1025   5.509   2.494   1.159 -0.3195  0.3081 -0.5056
    3CHTO   O59 1026   5.642   2.486   1.102  0.5867  0.2481 -0.1106
    3CHTO  H137 1027   5.643   2.534   1.022 -4.1551 -0.1412 -0.5831
    3CHTO   O45 1028   5.261   2.802   1.464 -0.4047  0.7181  0.2110
    3CHTO   C67 1029   5.342   2.772   1.571 -0.5797  0.7304  0.3233
    3CHTO  H124 1030   5.443   2.746   1.538 -0.1864  0.1743  1.8965
    3CHTO   C65 1031   5.349   2.902   1.661  0.9888  0.0190 -1.0884
    3CHTO  H122 1032   5.305   2.984   1.604  0.0395  1.8441  2.1331
    3CHTO   O44 1033   5.487   2.939   1.703  0.4448  0.1656 -0.1060
    3CHTO  H102 1034   5.481   3.013   1.759 -2.8725  0.8976 -1.2633
    3CHTO   C63 1035   5.250   2.892   1.786  0.0635 -0.6388  0.0336
    3CHTO  H120 1036   5.149   2.867   1.751  0.0511 -1.8555  0.8911
    3CHTO   N11 1037   5.229   3.017   1.860 -0.0275 -0.3896  0.2091
    3CHTO  H108 1038   5.304   3.086   1.826 -1.2981  0.6058 -0.6234
    3CHTO  H109 1039   5.247   3.008   1.965 -1.2959 -4.1032  0.1562
    3CHTO   C61 1040   5.310   2.771   1.868  0.0087 -0.2305  0.3133
    3CHTO  H118 1041   5.225   2.747   1.932 -1.5481 -0.3206 -1.7335
    3CHTO   O40 1042   5.340   2.651   1.793  0.2734 -0.0259 -0.4045
    3CHTO   C68 1043   5.289   2.646   1.655 -0.7305 -0.7486 -0.5729
    3CHTO  H125 1044   5.178   2.647   1.660 -0.6581 -1.0172  1.3037
    3CHTO   C72 1045   5.327   2.510   1.594 -0.2056 -0.0081 -0.6947
    3CHTO   O48 1046   5.462   2.482   1.562 -0.3381  0.0965  0.2715
    3CHTO  H105 1047   5.480   2.524   1.480  0.2924  1.9793  1.3545
    3CHTO   O38 1048   5.434   2.809   1.933  0.5402  0.3651  0.2402
    3CHTO   C55 1049   5.474   2.734   2.052 -0.2525  0.7157 -0.2013
    3CHTO  H112 1050   5.428   2.635   2.047  1.8254 -0.3234  0.8120
    3CHTO   C56 1051   5.418   2.819   2.176 -0.6736  0.0555 -0.0400
    3CHTO  H113 1052   5.447   2.923   2.157 -0.1587  0.2214  1.5603
    3CHTO   O42 1053   5.275   2.815   2.181 -0.5870 -0.0681  0.0654
    3CHTO  H100 1054   5.232   2.846   2.103 -1.1948  0.6260  0.6603
    3CHTO   C57 1055   5.489   2.759   2.304 -0.0924 -0.8361  0.1909
    3CHTO  H114 1056   5.443   2.664   2.330 -1.1279  0.0424  1.5861
    3CHTO   N10 1057   5.460   2.837   2.429 -0.0994 -0.0588  0.3592
    3CHTO  H106 1058   5.499   2.936   2.415 -1.7192  0.5465  0.0506
    3CHTO  H107 1059   5.353   2.836   2.449 -0.6503  0.1001 -2.4809
    3CHTO   C58 1060   5.644   2.741   2.283 -0.2669 -0.1558  0.3654
    3CHTO  H115 1061   5.689   2.843   2.273  0.1140 -0.4684 -1.2487
    3CHTO   O37 1062   5.679   2.668   2.164  0.4569 -0.3510  0.4660
    3CHTO   C59 1063   5.627   2.726   2.041  0.1120  0.0694  0.3077
    3CHTO  H116 1064   5.675   2.822   2.021 -1.7351  1.0193  0.3424
    3CHTO   C70 1065   5.686   2.640   1.928  0.2180  0.2951 -0.3215
    3CHTO   O46 1066   5.647   2.683   1.796 -0.4060 -0.4625  0.3822
    3CHTO  H103 1067   5.632   2.609   1.741 -0.7369 -1.1641  1.4063
    3CHTO   O39 1068   5.717   2.649   2.421 -0.0974  0.1309 -0.3186
    3CHTO   C60 1069   5.858   2.638   2.422  0.4714 -0.3573 -0.5070
    3CHTO  H117 1070   5.894   2.694   2.336 -1.0182 -1.0689 -1.6050
    3CHTO   C62 1071   5.911   2.695   2.556  0.1290 -0.3533 -0.0584
    3CHTO  H119 1072   5.883   2.802   2.550  2.2061  0.1528 -1.1059
    3CHTO   O43 1073   5.825   2.635   2.657  0.2301  0.4569  0.3458
    3CHTO  H101 1074   5.830   2.542   2.668  2.1311  0.3592 -0.9848
    3CHTO   C66 1075   6.068   2.674   2.564 -0.2479  0.5304  0.2508
    3CHTO  H123 1076   6.115   2.728   2.482  0.7002 -1.5025 -0.5693
    3CHTO   N12 1077   6.121   2.743   2.684 -0.1657 -0.2135 -0.1164
    3CHTO  H110 1078   6.218   2.702   2.707 -0.6308 -0.9434  0.5928
    3CHTO  H111 1079   6.111   2.849   2.668 -4.7961 -0.3554  1.1940
    3CHTO   C69 1080   6.116   2.524   2.547 -0.5652  0.3443  0.5293
    3CHTO  H126 1081   6.079   2.463   2.632  0.6249  0.2601  0.9830
    3CHTO   O41 1082   6.060   2.460   2.427  0.0613 -0.3506  0.1569
    3CHTO   C64 1083   5.895   2.486   2.405  0.1491  0.0606  0.3470
    3CHTO  H121 1084   5.841   2.434   2.488  0.1118  0.4676  0.5809
    3CHTO   C71 1085   5.858   2.420   2.262  1.1778 -0.9137  0.2937
    3CHTO   O47 1086   5.934   2.479   2.152  0.0533  0.0494 -0.0854
    3CHTO  H104 1087   5.917   2.429   2.075  1.3458  1.1301 -1.0989
    3CHTO   O34 1088   6.262   2.519   2.537  0.0231  0.1559 -0.1108
    3CHTO   C49 1089   6.392   2.494   2.486 -0.3424  0.0852 -0.2560
    3CHTO   H91 1090   6.451   2.502   2.578 -1.1179 -0.9109  0.3463
    3CHTO   C47 1091   6.424   2.606   2.384  0.8545  0.4635  0.3820
    3CHTO   H89 1092   6.533   2.600   2.364  0.9852  0.9941  0.9099
    3CHTO   O33 1093   6.405   2.731   2.446 -0.6840 -0.1121 -0.6359
    3CHTO   H70 1094   6.339   2.732   2.513 -0.9245 -1.7412 -0.8469
    3CHTO   C45 1095   6.325   2.585   2.250 -0.1965 -0.5070 -0.3238
    3CHTO   H87 1096   6.220   2.593   2.281  0.4791  1.4923  1.5808
    3CHTO    N8 1097   6.346   2.684   2.140  0.2970 -0.8274  0.7779
    3CHTO   H75 1098   6.444   2.688   2.096 -0.0561  1.3465  0.1146
    3CHTO   H76 1099   6.320   2.786   2.168  3.3371  0.4418 -0.7826
    3CHTO   C43 1100   6.346   2.436   2.200  0.4201  0.9020  0.0405
    3CHTO   H85 1101   6.271   2.426   2.121  0.5604 -0.2828  0.0419
    3CHTO   O29 1102   6.340   2.332   2.301  1.0279  0.4320  0.1231
    3CHTO   C50 1103   6.416   2.355   2.422 -0.2677  0.2950 -0.0539
    3CHTO   H92 1104   6.384   2.277   2.494 -0.1767  1.6238  1.4576
    3CHTO   C54 1105   6.566   2.335   2.404  0.4345  0.6477  0.8614
    3CHTO   O36 1106   6.623   2.318   2.531  0.2937 -0.5759 -0.5000
    3CHTO   H72 1107   6.716   2.314   2.531  0.4935  2.6100  1.2919
    3CHTO   O27 1108   6.462   2.412   2.122  0.2522 -0.0882  0.0355
    3CHTO   C37 1109   6.547   2.313   2.058 -1.0702  0.4905  0.3487
    3CHTO   H79 1110   6.614   2.272   2.136  1.3690 -0.6858 -2.2680
    3CHTO   C38 1111   6.460   2.197   2.005 -0.2801 -0.1412  0.1312
    3CHTO   H80 1112   6.380   2.236   1.941 -1.6888 -3.1249 -0.0079
    3CHTO   O31 1113   6.390   2.126   2.114  0.2627 -0.2552  0.5260
    3CHTO   H68 1114   6.338   2.064   2.067  0.7743  1.3207 -2.2227
    3CHTO   C39 1115   6.546   2.092   1.920  0.7982  0.3529 -0.1308
    3CHTO   H81 1116   6.610   2.036   1.989 -0.0176 -0.1470  0.2235
    3CHTO    N7 1117   6.463   1.994   1.844  0.7747 -0.7831 -0.2287
    3CHTO   H73 1118   6.523   1.922   1.790 -1.5526 -1.0634 -2.5352
    3CHTO   H74 1119   6.404   2.053   1.776 -1.9173 -0.2027  2.5634
    3CHTO   C40 1120   6.633   2.175   1.818 -0.2720 -0.6217  0.7398
    3CHTO   H82 1121   6.572   2.219   1.740 -0.5897  0.2729  1.4791
    3CHTO   O26 1122   6.714   2.274   1.879 -0.1857 -0.3657  0.3820
    3CHTO   C41 1123   6.636   2.383   1.946 -0.2113 -0.0229  0.3351
    3CHTO   H83 1124   6.574   2.441   1.876 -0.8814 -0.4740  0.5541
    3CHTO   C52 1125   6.730   2.486   2.010  0.0038 -0.2991 -0.7509
    3CHTO   O35 1126   6.833   2.531   1.909  0.0260  0.0144  0.2802
    3CHTO   H71 1127   6.794   2.529   1.824 -0.2845 -3.6452  0.4635
    3CHTO   O28 1128   6.738   2.096   1.757  0.0282  0.0732 -0.9450
    3CHTO   C42 1129   6.797   2.111   1.624  0.4230 -0.1456 -0.2097
    3CHTO   H84 1130   6.891   2.054   1.629 -0.1138 -1.0291 -0.0641
    3CHTO   C44 1131   6.835   2.256   1.586  0.9661 -0.3170  0.8514
    3CHTO   H86 1132   6.743   2.312   1.574 -0.2819 -2.2123  1.3466
    3CHTO   O32 1133   6.909   2.317   1.689 -0.4491 -0.3715  0.9910
    3CHTO   H69 1134   6.935   2.404   1.664  0.8520 -1.2454 -0.8140
    3CHTO   C48 1135   6.915   2.262   1.446 -0.1745 -0.0340 -0.5435
    3CHTO   H90 1136   7.006   2.202   1.451 -0.1202 -0.0420 -1.5133
    3CHTO    N9 1137   6.959   2.395   1.406 -0.0931 -0.2236  0.0713
    3CHTO   H77 1138   7.005   2.452   1.486  0.9768  1.3224 -1.6089
    3CHTO   H78 1139   7.031   2.390   1.326 -0.2074  0.1912 -0.0609
    3CHTO   C51 1140   6.837   2.186   1.331 -0.2566 -0.3204 -1.0452
    3CHTO   H93 1141   6.763   2.256   1.294  0.7428  0.2852 -1.9355
    3CHTO   O30 1142   6.779   2.067   1.370 -0.1301 -0.4641 -0.2906
    3CHTO   C46 1143   6.706   2.057   1.508 -0.1800  0.5042  0.2904
    3CHTO   H88 1144   6.616   2.117   1.495  1.3727  2.8666  0.1857
    3CHTO   C53 1145   6.673   1.907   1.524  0.3268  0.3881  0.4995
    3CHTO   O72 1146   6.595   1.853   1.415 -0.4217  0.4063  0.2871
    3CHTO  H199 1147   6.568   1.913   1.348  1.4879  1.3674  0.3533
    3CHTO   O22 1148   6.920   2.158   1.216 -0.3359  0.1626  0.0157
    3CHTO   C31 1149   6.859   2.131   1.085 -0.0555 -0.4774 -0.5480
    3CHTO   H59 1150   6.945   2.100   1.022 -0.0956 -0.2429 -0.7160
    3CHTO   C29 1151   6.758   2.013   1.084 -0.1238  0.8778 -0.4297
    3CHTO   H57 1152   6.676   2.040   1.153  0.9347 -2.1759  2.1578
    3CHTO   O21 1153   6.829   1.905   1.154 -0.1772  0.0194  0.2187
    3CHTO   H37 1154   6.764   1.849   1.194 -1.2256 -0.4845 -2.1296
    3CHTO   C27 1155   6.696   1.984   0.944  0.4845  0.0693 -0.8982
    3CHTO   H55 1156   6.780   1.955   0.880  1.3071  1.6998 -0.6056
    3CHTO    N5 1157   6.586   1.885   0.942 -0.6210 -0.0691 -0.6028
    3CHTO   H43 1158   6.528   1.869   1.032  2.3252 -1.6420  1.0792
    3CHTO   H44 1159   6.613   1.793   0.893  0.5929  0.4263 -0.8869
    3CHTO   C25 1160   6.641   2.117   0.882  0.5817 -0.5542  0.0541
    3CHTO   H53 1161   6.555   2.153   0.940  0.3758 -1.1947  0.1500
    3CHTO   O17 1162   6.746   2.220   0.881  0.2609  0.1408 -0.3159
    3CHTO   C32 1163   6.802   2.258   1.008 -0.5610  0.0412  0.0435
    3CHTO   H60 1164   6.730   2.309   1.073  0.5085  0.1893  1.1111
    3CHTO   C36 1165   6.922   2.347   0.985 -0.0337  0.5624 -0.3325
    3CHTO   O25 1166   6.894   2.486   0.970 -0.8692  0.1976  0.0346
    3CHTO   H40 1167   6.949   2.518   0.900 -0.4750  1.1083  0.7505
    3CHTO   O15 1168   6.596   2.097   0.720  0.1707 -0.4422  0.1996
    3CHTO   C19 1169   6.539   2.150   0.602  1.4323 -1.1844  0.5909
    3CHTO   H47 1170   6.622   2.182   0.537 -0.7687 -0.1186 -1.7671
    3CHTO   C20 1171   6.452   2.046   0.517 -0.7860 -0.4330 -0.2251
    3CHTO   H48 1172   6.368   2.007   0.577 -0.9314  0.1727 -0.0342
    3CHTO   O19 1173   6.532   1.926   0.498 -0.1411 -0.0702  0.1833
    3CHTO   H35 1174   6.582   1.932   0.419 -0.0014  1.7426  0.3939
    3CHTO   C21 1175   6.389   2.110   0.381 -0.1375  0.6833  0.7604
    3CHTO   H49 1176   6.473   2.140   0.319 -1.9732  0.2603 -1.9847
    3CHTO    N4 1177   6.290   2.021   0.315  0.0119  0.1189 -0.0935
    3CHTO   H41 1178   6.203   1.999   0.375 -0.7260  0.6824 -0.9505
    3CHTO   H42 1179   6.330   1.926   0.282 -4.4495 -1.9230  0.0328
    3CHTO   C22 1180   6.318   2.244   0.423 -0.2912 -1.1078  0.7942
    3CHTO   H50 1181   6.236   2.209   0.486  0.0685  0.0746  1.9279
    3CHTO   O14 1182   6.403   2.323   0.498  0.7243  0.4283  0.7427
    3CHTO   C23 1183   6.454   2.275   0.624 -0.4102  0.1745 -0.1389
    3CHTO   H51 1184   6.369   2.260   0.692 -1.3222  4.3553 -0.2052
    3CHTO   C34 1185   6.532   2.394   0.689 -0.2114  0.0878 -0.7123
    3CHTO   O23 1186   6.646   2.445   0.628 -0.4568  1.1103  0.6904
    3CHTO   H38 1187   6.621   2.493   0.551  2.2611 -0.6590 -1.3738
    3CHTO   O16 1188   6.295   2.316   0.301 -0.1583  0.4826  0.2242
    3CHTO   C24 1189   6.158   2.425   0.298  0.1518 -0.7904 -0.0403
    3CHTO   H52 1190   6.097   2.419   0.388 -2.8038 -1.2866 -2.0188
    3CHTO   C26 1191   6.073   2.392   0.173  0.0534 -0.6217 -0.3652
    3CHTO   H54 1192   6.135   2.404   0.082  3.1247 -0.7942  1.6329
    3CHTO   O20 1193   6.033   2.259   0.183  0.3285 -0.2116 -0.1154
    3CHTO   H36 1194   6.060   2.207   0.109  1.5492 -2.5336  1.8770
    3CHTO   C30 1195   5.954   2.493   0.168 -0.5021 -0.2377 -0.0010
    3CHTO   H58 1196   5.890   2.492   0.257  0.3921  1.3885  0.6805
    3CHTO    N6 1197   5.864   2.466   0.053 -0.0156 -0.2102 -0.1111
    3CHTO   H45 1198   5.794   2.389   0.080 -1.8200  1.4532  0.0253
    3CHTO   H46 1199   5.813   2.559   0.031  1.9254  1.2864  1.5756
    3CHTO   C33 1200   6.017   2.637   0.161  0.0958  0.2956  0.5680
    3CHTO   H61 1201   6.084   2.637   0.073 -1.8879 -0.0720 -0.9816
    3CHTO   O18 1202   6.102   2.661   0.277  0.2714 -0.2229  0.2826
    3CHTO   C28 1203   6.215   2.575   0.296  0.7144  0.0913  0.3469
    3CHTO   H56 1204   6.278   2.592   0.208  1.2177  0.5667  0.7970
    3CHTO   C35 1205   6.279   2.626   0.428  0.4103  0.1997  0.6810
    3CHTO   O24 1206   6.233   2.576   0.555 -0.2340  1.2712  0.0044
    3CHTO   H39 1207   6.189   2.641   0.607 -0.4446 -0.8526  2.5872
    3CHTO    O9 1208   5.918   2.740   0.142  0.0700 -0.6044 -0.3520
    3CHTO   C13 1209   5.941   2.864   0.025  0.7863 -0.3507 -0.3040
    3CHTO   H26 1210   5.873   2.842  -0.060 -1.6760  0.4399  1.4043
    3CHTO   C11 1211   6.091   2.883  -0.022 -0.5399 -0.1100  0.1422
    3CHTO   H24 1212   6.131   2.805  -0.089  0.5177  1.2242 -0.8280
    3CHTO    O8 1213   6.190   2.880   0.081 -0.3487 -0.1648 -0.7743
    3CHTO    H3 1214   6.245   2.804   0.072 -0.0527 -0.2245  1.3617
    3CHTO    C9 1215   6.101   3.022  -0.095  0.0577  0.4882 -0.2381
    3CHTO   H22 1216   6.016   3.026  -0.164 -0.9062 -0.7166  0.8473
    3CHTO    N2 1217   6.218   3.036  -0.183 -0.3545 -0.3147  0.5204
    3CHTO   H10 1218   6.202   3.130  -0.233 -0.5897 -1.3617 -1.3877
    3CHTO   H11 1219   6.227   2.949  -0.247  0.9724 -0.8027  1.3350
    3CHTO    C7 1220   6.073   3.138   0.017 -0.1347  0.3852  0.1432
    3CHTO   H20 1221   6.043   3.228  -0.042  0.3722  0.7170  0.3867
    3CHTO    O4 1222   5.975   3.098   0.110 -0.0651 -0.1368  0.5441
    3CHTO   C14 1223   5.877   3.002   0.068 -0.9781  0.4796  0.4813
    3CHTO   H27 1224   5.828   3.045  -0.022 -0.5303 -0.0242 -0.0047
    3CHTO   C18 1225   5.765   2.985   0.182 -0.1007 -0.5415 -0.5161
    3CHTO   O13 1226   5.702   3.116   0.206  0.3349 -0.0683  0.0879
    3CHTO    H7 1227   5.695   3.159   0.123  0.6131  1.0420  0.6326
    3CHTO    O2 1228   6.214   3.175   0.098 -0.1320 -0.4805 -0.0789
    3CHTO    C1 1229   6.195   3.227   0.230  0.1604 -0.5242 -0.3782
    3CHTO   H14 1230   6.105   3.178   0.273 -1.2827  1.4399 -1.0971
    3CHTO    C2 1231   6.162   3.387   0.229  0.1050 -0.4444  0.6257
    3CHTO   H15 1232   6.243   3.435   0.173 -0.3884  0.4001  0.6308
    3CHTO    O6 1233   6.037   3.421   0.162 -0.0359  0.5111 -0.6534
    3CHTO    H1 1234   6.055   3.470   0.084  0.1726 -0.0790 -0.9827
    3CHTO    C3 1235   6.158   3.440   0.380  0.1456 -0.6452 -0.1611
    3CHTO   H16 1236   6.070   3.403   0.434 -0.5446  2.2511  0.7673
    3CHTO    N1 1237   6.144   3.586   0.386  0.3765 -0.0869 -0.0601
    3CHTO    H8 1238   6.047   3.626   0.362  1.1849  1.8502 -0.2671
    3CHTO    H9 1239   6.218   3.640   0.328 -1.3496  1.8700 -0.5112
    3CHTO    C4 1240   6.272   3.378   0.466 -0.7473 -0.1890  0.4507
    3CHTO   H17 1241   6.367   3.425   0.443  0.6083 -1.8195  2.4517
    3CHTO    O1 1242   6.291   3.236   0.446  0.3812  0.3834  0.6257
    3CHTO    C5 1243   6.326   3.204   0.312  0.1982 -0.1583 -0.0554
    3CHTO   H18 1244   6.399   3.271   0.267 -0.1776 -0.8503 -1.7345
    3CHTO   C16 1245   6.381   3.061   0.304  0.0330  0.6095 -0.3852
    3CHTO   O11 1246   6.490   3.020   0.390  0.0339  0.2376  0.1661
    3CHTO    H5 1247   6.452   2.982   0.467  0.3148 -2.6421 -1.0535
    3CHTO    O3 1248   6.241   3.398   0.606  0.2961 -0.0212  0.2066
    3CHTO    C6 1249   6.327   3.348   0.712 -0.0747 -0.6138  0.2719
    3CHTO   H19 1250   6.394   3.269   0.678 -1.0791 -1.0867 -0.6731
    3CHTO    C8 1251   6.422   3.461   0.779  0.1557 -1.2131 -0.1406
    3CHTO   H21 1252   6.358   3.537   0.825  0.0791 -1.3263 -0.0614
    3CHTO    O7 1253   6.506   3.525   0.681 -0.1787  0.3559  0.0670
    3CHTO    H2 1254   6.457   3.581   0.624 -0.9700  0.0869  0.4744
    3CHTO   C12 1255   6.503   3.400   0.897  0.0811  0.1209  0.3088
    3CHTO   H25 1256   6.572   3.328   0.850 -1.6968 -2.0222  0.8749
    3CHTO    N3 1257   6.578   3.515   0.969  0.1567  0.8725  0.5339
    3CHTO   H12 1258   6.671   3.473   1.004 -1.0333 -1.6532  0.8248
    3CHTO   H13 1259   6.524   3.562   1.050  0.5869  1.5849  0.4111
    3CHTO   C15 1260   6.411   3.318   1.000 -0.4411  0.3499 -0.3067
    3CHTO   H28 1261   6.359   3.383   1.071 -1.0813  0.2598 -0.6828
    3CHTO   O10 1262   6.492   3.201   1.078  0.3692  0.2574 -0.4280
    3CHTO    H4 1263   6.555   3.247   1.130  0.9330 -0.9619 -0.0206
    3CHTO    O5 1264   6.323   3.236   0.924 -0.4252  0.3217 -0.1549
    3CHTO   C10 1265   6.232   3.285   0.820 -0.7235 -1.1423  0.5128
    3CHTO   H23 1266   6.171   3.358   0.875 -0.2864  0.8337 -1.5568
    3CHTO   C17 1267   6.144   3.168   0.777  0.1638  0.2465  0.7966
    3CHTO   O12 1268   6.220   3.076   0.700 -0.3386  0.0197  0.7044
    3CHTO    H6 1269   6.269   3.021   0.759 -0.3362  1.0314  1.6728
    4CHTO  H203 1270   6.534   7.016   2.264 -0.1851  0.9489 -0.4890
    4CHTO   O82 1271   6.590   7.004   2.189  0.7073  0.2525  0.2787
    4CHTO  C123 1272   6.597   7.116   2.103 -0.5721 -0.3308 -0.3450
    4CHTO  H227 1273   6.509   7.179   2.122 -0.1688 -0.1999  1.1216
    4CHTO   O77 1274   6.718   7.185   2.150  0.1203 -0.0947  0.0977
    4CHTO  C118 1275   6.723   7.317   2.105 -0.2538 -1.2474 -0.0480
    4CHTO  H222 1276   6.632   7.378   2.121 -0.2720 -1.6310  1.3730
    4CHTO  C125 1277   6.848   7.381   2.169  0.6172  0.2936 -0.1156
    4CHTO   O84 1278   6.821   7.393   2.311  0.3528 -0.2486  0.5472
    4CHTO  H205 1279   6.742   7.444   2.321 -0.6986 -1.1995 -2.2999
    4CHTO  C114 1280   6.753   7.319   1.950 -0.1484 -0.1670  0.1708
    4CHTO  H218 1281   6.842   7.257   1.936 -0.0436 -0.1415  0.7142
    4CHTO  C116 1282   6.636   7.231   1.875  0.5021  0.0954 -0.3104
    4CHTO  H220 1283   6.544   7.291   1.857  0.4390  0.7375  1.9575
    4CHTO   O79 1284   6.682   7.197   1.743  0.1081 -0.0686 -0.1791
    4CHTO  H201 1285   6.610   7.179   1.686 -0.9337  0.8009  0.8408
    4CHTO  C120 1286   6.609   7.093   1.946 -0.4052 -0.4252 -0.3964
    4CHTO  H224 1287   6.692   7.025   1.919 -0.0875 -0.9243  1.7522
    4CHTO   N21 1288   6.487   7.022   1.907 -0.0624  0.6366  0.6920
    4CHTO  H211 1289   6.501   6.915   1.905  0.5901  0.7124 -2.3415
    4CHTO  H212 1290   6.472   7.049   1.803 -2.1590 -0.8881  0.5768
    4CHTO   O75 1291   6.766   7.461   1.917  0.6078  0.2614 -0.7358
    4CHTO  C112 1292   6.841   7.515   1.789 -0.1140  0.1739  0.0549
    4CHTO  H216 1293   6.793   7.476   1.698 -1.9805  1.0353  0.6455
    4CHTO   O73 1294   6.980   7.465   1.802 -0.4784  0.0740 -0.0292
    4CHTO  C113 1295   7.083   7.524   1.717 -0.5812 -0.6303  0.1034
    4CHTO  H217 1296   7.079   7.486   1.613  1.5140  1.0511 -0.6125
    4CHTO  C124 1297   7.216   7.472   1.769 -0.4830  0.4555 -0.0913
    4CHTO   O83 1298   7.307   7.470   1.662  0.1505  0.1877  0.2105
    4CHTO  H204 1299   7.286   7.404   1.599 -0.0343 -0.6729  1.1449
    4CHTO  C109 1300   7.076   7.680   1.723 -0.2363  1.1163 -0.0772
    4CHTO  H213 1301   7.098   7.701   1.829 -1.3536 -0.6059  0.5186
    4CHTO  C110 1302   6.932   7.725   1.683 -0.2634  0.3043  0.1224
    4CHTO  H214 1303   6.911   7.693   1.581  0.4042 -0.9898  0.3849
    4CHTO   O78 1304   6.934   7.871   1.679  0.1158 -0.7619 -0.3245
    4CHTO  H200 1305   6.904   7.923   1.751  0.0180 -0.4489 -0.5930
    4CHTO  C111 1306   6.833   7.676   1.792 -0.7988  0.6065  0.1946
    4CHTO  H215 1307   6.872   7.713   1.888 -2.3012  1.8555  0.3613
    4CHTO   N19 1308   6.693   7.726   1.781  0.7539 -0.1477 -0.2533
    4CHTO  H207 1309   6.680   7.795   1.698 -1.4819  0.6206  0.6919
    4CHTO  H208 1310   6.652   7.776   1.867  1.6082 -0.4381  0.3294
    4CHTO   O74 1311   7.177   7.732   1.637 -0.0622 -0.4544 -0.1200
    4CHTO  C115 1312   7.242   7.888   1.680 -0.1875  0.3589  0.5426
    4CHTO  H219 1313   7.166   7.957   1.717 -3.0848 -2.8611  0.8142
    4CHTO   O76 1314   7.351   7.874   1.794  0.8132  0.0134 -0.0274
    4CHTO  C122 1315   7.454   7.782   1.754  0.2420 -0.3704 -0.6638
    4CHTO  H226 1316   7.396   7.690   1.759 -1.0738  0.4437 -0.3197
    4CHTO  C126 1317   7.560   7.774   1.865  0.1179  0.1489  0.1009
    4CHTO   O85 1318   7.621   7.894   1.912 -0.6721 -0.6192 -0.7360
    4CHTO  H206 1319   7.605   7.906   2.004  0.5853 -1.9288 -0.3291
    4CHTO  C121 1320   7.514   7.801   1.617  0.3607 -0.4720 -0.1734
    4CHTO  H225 1321   7.623   7.799   1.636  0.3064 -1.0340  0.1105
    4CHTO   O81 1322   7.476   7.691   1.526 -0.6738 -0.1349  0.2232
    4CHTO  H202 1323   7.512   7.609   1.551 -2.5228 -1.3303 -0.9293
    4CHTO  C119 1324   7.466   7.942   1.564 -0.3326 -0.8473  0.0400
    4CHTO  H223 1325   7.501   8.021   1.629  0.1258  0.5230 -1.8291
    4CHTO  C117 1326   7.306   7.947   1.547  0.7693  0.8388  0.1878
    4CHTO  H221 1327   7.265   7.886   1.466 -0.3177 -2.8501  3.3669
    4CHTO   N20 1328   7.260   8.087   1.515  0.4146  0.5345 -0.1164
    4CHTO  H209 1329   7.291   8.131   1.421  1.8936 -1.9547 -0.8410
    4CHTO  H210 1330   7.243   8.150   1.601 -0.7875  1.7761 -1.2404
    4CHTO   O80 1331   7.539   7.984   1.436 -0.1739  0.4927  0.4094
    4CHTO  C103 1332   7.681   8.066   1.440  0.1405 -0.6958  0.5229
    4CHTO  H190 1333   7.659   8.170   1.466 -1.9455 -1.4513  1.8471
    4CHTO  C101 1334   7.800   8.013   1.520  0.0938  0.2752  0.4456
    4CHTO  H188 1335   7.801   7.906   1.500  0.4498  0.5858 -1.2974
    4CHTO   O68 1336   7.779   8.035   1.673  0.3766  0.0504 -0.7857
    4CHTO  H168 1337   7.761   8.127   1.685 -0.5045 -0.1197 -0.7577
    4CHTO   C99 1338   7.939   8.078   1.462  0.0124 -0.3652  0.0584
    4CHTO  H186 1339   7.945   8.179   1.509  0.8155  0.4750 -1.7858
    4CHTO   N17 1340   8.056   8.007   1.509 -0.1476 -0.2622  0.4992
    4CHTO  H174 1341   8.029   7.927   1.577 -2.1714 -0.4496 -0.4970
    4CHTO  H175 1342   8.135   8.069   1.548  0.2465 -0.1185 -0.5237
    4CHTO   C97 1343   7.940   8.108   1.316  0.3680  0.8316 -0.0480
    4CHTO  H184 1344   7.969   8.015   1.264 -3.1597 -1.6015  2.0802
    4CHTO   O64 1345   7.818   8.158   1.264 -0.1742  0.0648  0.4291
    4CHTO  C104 1346   7.714   8.063   1.283 -0.1288  0.4351  0.2892
    4CHTO  H191 1347   7.743   7.961   1.258 -2.7048 -0.2511 -0.0438
    4CHTO  C108 1348   7.596   8.105   1.191  0.5182 -0.2669  0.1162
    4CHTO   O71 1349   7.535   8.230   1.231  0.3141 -0.2542 -0.0313
    4CHTO  H171 1350   7.599   8.298   1.239  1.1043 -1.0493  0.5697
    4CHTO   O62 1351   8.032   8.218   1.290  0.3255 -0.3756  0.1100
    4CHTO   C91 1352   8.103   8.194   1.164  0.0441  0.7172 -0.1735
    4CHTO  H178 1353   8.143   8.093   1.168 -0.6803  0.4629  0.5836
    4CHTO   C92 1354   8.238   8.268   1.158  0.0038 -0.3873 -0.0386
    4CHTO  H179 1355   8.298   8.247   1.248  0.3248  1.4505  0.1862
    4CHTO   O66 1356   8.318   8.205   1.055  0.4933  0.2096 -0.5911
    4CHTO  H166 1357   8.405   8.241   1.058  0.2485  0.7537  0.4786
    4CHTO   C93 1358   8.219   8.416   1.126  0.2996  0.5167  0.0379
    4CHTO  H180 1359   8.313   8.455   1.086 -0.8964  2.8076 -0.6264
    4CHTO   N16 1360   8.189   8.495   1.251  0.1948  0.0178 -0.1139
    4CHTO  H172 1361   8.207   8.444   1.345 -0.5337 -1.4216 -0.7432
    4CHTO  H173 1362   8.111   8.569   1.249 -0.7638 -0.9733  0.2220
    4CHTO   C94 1363   8.112   8.443   1.012  0.3523  0.2396 -0.4787
    4CHTO  H181 1364   8.014   8.472   1.050 -0.1982 -1.2700 -0.7471
    4CHTO   O61 1365   8.092   8.316   0.944 -0.0984 -0.8580 -0.5788
    4CHTO   C95 1366   8.019   8.223   1.030 -0.1380 -0.2719  0.4632
    4CHTO  H182 1367   7.924   8.268   1.057  0.8697  2.1271  0.2078
    4CHTO  C106 1368   8.006   8.106   0.929  0.8024  0.4262  0.3552
    4CHTO   O69 1369   7.917   8.014   0.988  0.0666 -0.3928 -0.0387
    4CHTO  H169 1370   7.898   7.952   0.921  1.9383 -1.8238  0.6930
    4CHTO   O63 1371   8.168   8.545   0.925  0.6283 -0.3741  0.3903
    4CHTO   C96 1372   8.064   8.589   0.814  0.5675  0.4852 -0.0692
    4CHTO  H183 1373   7.970   8.534   0.824  1.7615 -1.3350  1.6178
    4CHTO   C98 1374   8.117   8.547   0.673 -0.2354  0.4001  0.2197
    4CHTO  H185 1375   8.217   8.588   0.655  0.4202 -0.9240  0.7301
    4CHTO   O67 1376   8.145   8.405   0.672 -0.2932 -0.1104  0.0191
    4CHTO  H167 1377   8.188   8.383   0.592  0.8784  0.7231  0.3998
    4CHTO  C102 1378   8.016   8.590   0.559  0.5421  0.4728 -0.0103
    4CHTO  H189 1379   7.935   8.516   0.565 -1.0130  2.1153 -0.3517
    4CHTO   N18 1380   8.057   8.580   0.420 -0.0031  0.6418  0.3675
    4CHTO  H176 1381   8.163   8.576   0.398 -0.2278 -0.4569 -0.5210
    4CHTO  H177 1382   7.998   8.512   0.362  0.4338  0.0161  0.6541
    4CHTO  C105 1383   7.944   8.729   0.591  0.2293 -0.7581  0.1392
    4CHTO  H192 1384   7.943   8.789   0.500 -1.8200  0.9617  1.2709
    4CHTO   O65 1385   8.016   8.806   0.687  0.4952  0.7720 -0.0942
    4CHTO  C100 1386   8.047   8.745   0.819 -0.0755 -0.1179  0.0282
    4CHTO  H187 1387   8.137   8.800   0.849  0.7189  0.0175 -2.4772
    4CHTO  C107 1388   7.950   8.800   0.922 -0.2906  0.0515  0.8353
    4CHTO   O70 1389   7.933   8.939   0.901  0.3727 -0.2862  0.3120
    4CHTO  H170 1390   8.007   8.994   0.914 -0.6194  1.8519 -2.4179
    4CHTO   O57 1391   7.785   8.692   0.641 -0.4602  0.3091  0.3366
    4CHTO   C85 1392   7.680   8.752   0.559  0.3835  0.0694 -0.2047
    4CHTO  H157 1393   7.727   8.788   0.464 -1.7818  4.7489  0.3637
    4CHTO   C83 1394   7.631   8.888   0.628  0.7973 -0.3791  0.1304
    4CHTO  H155 1395   7.708   8.965   0.628 -0.6434  1.0927  0.1930
    4CHTO   O56 1396   7.616   8.861   0.766  0.4794 -0.4637 -0.0467
    4CHTO  H135 1397   7.552   8.920   0.801 -0.1866  0.5090 -2.7363
    4CHTO   C81 1398   7.508   8.948   0.551 -0.1958  0.5965 -0.1253
    4CHTO  H153 1399   7.536   8.971   0.448 -0.8111  1.3300 -0.1321
    4CHTO   N14 1400   7.458   9.076   0.611 -0.0911 -0.1466 -0.0628
    4CHTO  H141 1401   7.379   9.115   0.550 -0.5851 -1.4462 -0.2842
    4CHTO  H142 1402   7.419   9.052   0.707  0.2652 -0.9995 -0.1296
    4CHTO   C79 1403   7.388   8.837   0.540  0.4649 -0.4706 -0.2541
    4CHTO  H151 1404   7.313   8.880   0.473  1.1466  0.7497 -0.2510
    4CHTO   O52 1405   7.444   8.716   0.477 -0.1850 -0.3212 -0.1908
    4CHTO   C86 1406   7.565   8.656   0.536 -0.1126 -0.1754  0.3101
    4CHTO  H158 1407   7.532   8.614   0.634 -2.0888 -0.5771 -0.4861
    4CHTO   C90 1408   7.618   8.531   0.454 -0.1983 -0.2200  0.0693
    4CHTO   O60 1409   7.555   8.410   0.497 -0.0604  0.4206  0.3356
    4CHTO  H138 1410   7.578   8.382   0.584 -2.9369  0.0239  0.9941
    4CHTO   O50 1411   7.324   8.788   0.662 -0.4833  0.1884  0.4077
    4CHTO   C73 1412   7.197   8.763   0.718 -0.2074  0.4398 -0.6555
    4CHTO  H145 1413   7.119   8.831   0.682 -1.9416 -0.5108  1.1927
    4CHTO   C74 1414   7.212   8.780   0.870 -0.0060  0.4854  0.5072
    4CHTO  H146 1415   7.241   8.886   0.879  0.6554  0.5346 -1.8973
    4CHTO   O54 1416   7.086   8.769   0.931 -0.8378  0.1263  0.0467
    4CHTO  H133 1417   7.010   8.802   0.888 -1.2021 -1.5139 -0.6154
    4CHTO   C75 1418   7.323   8.680   0.920  0.1220  1.0715 -0.2225
    4CHTO  H147 1419   7.416   8.696   0.864  0.1670 -0.6294 -0.6667
    4CHTO   N13 1420   7.341   8.691   1.068 -0.3619  0.3666 -0.2632
    4CHTO  H139 1421   7.403   8.606   1.092  0.6333  0.3973 -2.5994
    4CHTO  H140 1422   7.405   8.778   1.081  0.1123 -0.1855  1.1512
    4CHTO   C76 1423   7.279   8.527   0.875  1.1388  0.2641  0.1609
    4CHTO  H148 1424   7.186   8.506   0.929  1.6802  0.2663  1.1188
    4CHTO   O49 1425   7.263   8.525   0.732  0.4184  0.0505 -0.1556
    4CHTO   C77 1426   7.164   8.615   0.683 -0.0043 -0.3159  0.4210
    4CHTO  H149 1427   7.070   8.588   0.730  0.5157 -0.0134  1.6391
    4CHTO   C88 1428   7.148   8.579   0.538  0.1935  0.1500 -0.0197
    4CHTO   O58 1429   7.059   8.437   0.521 -0.1946 -0.8723  0.1149
    4CHTO  H136 1430   7.094   8.388   0.449 -0.7090  1.3293 -1.7148
    4CHTO   O51 1431   7.402   8.416   0.918  0.0325 -0.1856 -0.3231
    4CHTO   C78 1432   7.459   8.318   0.808 -0.3010  0.5362  0.4400
    4CHTO  H150 1433   7.461   8.379   0.715  2.2351  1.4590  1.0432
    4CHTO   C80 1434   7.372   8.190   0.788 -0.5772 -0.5990 -0.4494
    4CHTO  H152 1435   7.355   8.146   0.889  2.5819 -0.9973 -0.0294
    4CHTO   O55 1436   7.239   8.221   0.745  0.4237 -0.4270  0.4168
    4CHTO  H134 1437   7.204   8.154   0.689 -0.4593  2.8326 -3.1658
    4CHTO   C84 1438   7.444   8.081   0.693 -0.0409 -0.6021  0.0088
    4CHTO  H156 1439   7.431   8.111   0.590  0.3408  1.0501  0.4301
    4CHTO   N15 1440   7.367   7.952   0.704 -0.4380  0.6847  0.4305
    4CHTO  H143 1441   7.344   7.931   0.806 -1.6387  0.4804  0.1240
    4CHTO  H144 1442   7.276   7.963   0.649 -0.2293 -1.8678 -0.4869
    4CHTO   C87 1443   7.591   8.060   0.733 -0.5316 -0.1926  0.0700
    4CHTO  H159 1444   7.615   8.015   0.830  0.2041 -1.0986 -0.5195
    4CHTO   O53 1445   7.649   8.206   0.737  0.0985 -0.4408  0.3293
    4CHTO   C82 1446   7.602   8.281   0.849  0.5166  0.3373  0.0398
    4CHTO  H154 1447   7.609   8.219   0.938  1.2688 -0.3061 -0.4534
    4CHTO   C89 1448   7.703   8.388   0.857  0.1820  0.8573  0.4326
    4CHTO   O59 1449   7.670   8.488   0.950 -0.8492  0.1887  0.7077
    4CHTO  H137 1450   7.684   8.460   1.038  0.3153  2.2134  1.1782
    4CHTO   O45 1451   7.688   7.983   0.610 -0.1141  0.0233 -0.3504
    4CHTO   C67 1452   7.808   7.915   0.656 -0.0756 -0.0207 -0.4800
    4CHTO  H124 1453   7.870   7.991   0.704  1.1827 -0.6169 -1.1454
    4CHTO   C65 1454   7.778   7.795   0.761  0.0240 -0.5575  0.6353
    4CHTO  H122 1455   7.703   7.829   0.832  0.7320  2.5135  0.0224
    4CHTO   O44 1456   7.902   7.757   0.831  0.3069  0.4154 -0.2333
    4CHTO  H102 1457   7.881   7.725   0.917 -0.3786 -3.2009 -1.6270
    4CHTO   C63 1458   7.707   7.683   0.682  0.1778  0.4849 -0.5824
    4CHTO  H120 1459   7.625   7.726   0.624 -1.7388 -1.7561  0.3997
    4CHTO   N11 1460   7.645   7.576   0.774  0.5104  0.7620  0.1146
    4CHTO  H108 1461   7.717   7.501   0.799 -0.6233 -0.3769 -0.0057
    4CHTO  H109 1462   7.557   7.537   0.728  1.4375  1.5711 -2.4810
    4CHTO   C61 1463   7.795   7.624   0.563  0.2787 -0.1384  0.5702
    4CHTO  H118 1464   7.725   7.564   0.503  2.4766 -1.1251 -1.0934
    4CHTO   O40 1465   7.838   7.734   0.478 -0.0430  0.5405 -0.0489
    4CHTO   C68 1466   7.894   7.855   0.536 -0.5391  0.1495 -0.6497
    4CHTO  H125 1467   7.895   7.923   0.447  0.4689  2.8069  1.3153
    4CHTO   C72 1468   8.045   7.822   0.561  0.9368 -0.0355  0.4317
    4CHTO   O48 1469   8.097   7.901   0.667 -0.0491  1.2577  0.2152
    4CHTO  H105 1470   8.140   7.970   0.619 -1.0506 -0.5007 -3.3957
    4CHTO   O38 1471   7.909   7.539   0.593 -0.3823  0.0087 -0.1142
    4CHTO   C55 1472   7.920   7.400   0.544  0.1165  0.0792 -0.0711
    4CHTO  H112 1473   7.849   7.391   0.461 -0.1790  1.9605 -0.0445
    4CHTO   C56 1474   7.910   7.278   0.638 -0.3267 -0.0151 -0.2531
    4CHTO  H113 1475   7.992   7.287   0.712 -0.0797 -1.6319 -0.3168
    4CHTO   O42 1476   7.782   7.270   0.711  0.1238 -0.2322  0.2225
    4CHTO  H100 1477   7.792   7.223   0.792 -1.0207 -2.4230 -0.8754
    4CHTO   C57 1478   7.937   7.141   0.567  0.0203 -0.0434  0.0577
    4CHTO  H114 1479   7.861   7.124   0.491  0.2052 -0.0339 -0.1298
    4CHTO   N10 1480   7.945   7.024   0.655  0.0708 -0.5483 -0.3575
    4CHTO  H106 1481   7.900   6.947   0.594 -0.8319 -0.6134  0.3852
    4CHTO  H107 1482   7.873   7.055   0.730 -0.6400  1.6135 -1.8750
    4CHTO   C58 1483   8.080   7.157   0.497  0.1865 -0.3766  0.1732
    4CHTO  H115 1484   8.157   7.175   0.574 -1.1332 -0.6140  1.5630
    4CHTO   O37 1485   8.073   7.272   0.409  0.3391  0.0974 -0.0882
    4CHTO   C59 1486   8.055   7.396   0.474  0.6577  0.2735 -0.2626
    4CHTO  H116 1487   8.141   7.421   0.536  0.5870 -1.3530  0.5239
    4CHTO   C70 1488   8.056   7.500   0.361 -0.1807 -0.1026 -0.1827
    4CHTO   O46 1489   8.179   7.514   0.290 -0.2755  0.0227 -0.1227
    4CHTO  H103 1490   8.161   7.576   0.222 -2.0787  2.1196  2.1778
    4CHTO   O39 1491   8.119   7.027   0.394  0.9234  0.2854 -0.3790
    4CHTO   C60 1492   8.024   7.008   0.284 -0.6468  0.5872  0.8076
    4CHTO  H117 1493   7.923   7.025   0.321 -0.7180  2.9519 -0.4107
    4CHTO   C62 1494   8.048   7.099   0.158  0.3678  0.3720 -0.7108
    4CHTO  H119 1495   8.035   7.207   0.182  1.2068  0.5620 -1.1155
    4CHTO   O43 1496   8.184   7.091   0.113  0.4092 -0.0668  0.4727
    4CHTO  H101 1497   8.190   7.146   0.037 -1.5203  0.4637  0.6923
    4CHTO   C66 1498   7.943   7.060   0.033  0.2973  0.5919  0.1891
    4CHTO  H123 1499   7.842   7.087   0.065 -0.9612 -1.2774 -2.0698
    4CHTO   N12 1500   7.968   7.139  -0.092 -0.0528  0.4581 -0.0061
    4CHTO  H110 1501   7.936   7.093  -0.185 -1.4526  0.2458  0.5727
    4CHTO  H111 1502   8.062   7.190  -0.106  0.0405 -0.1378 -1.7511
    4CHTO   C69 1503   7.952   6.911  -0.005 -0.3856  1.6359 -0.1290
    4CHTO  H126 1504   8.057   6.883  -0.026 -0.4836  0.9185  0.3008
    4CHTO   O41 1505   7.908   6.849   0.121  0.3343  0.0244 -0.0456
    4CHTO   C64 1506   8.023   6.859   0.236 -0.0319  0.4158 -0.4105
    4CHTO  H121 1507   8.125   6.829   0.203 -0.2494  0.1527 -0.8413
    4CHTO   C71 1508   7.980   6.779   0.360  0.5510 -0.5098  0.5365
    4CHTO   O47 1509   7.973   6.642   0.317  0.1633 -0.1531  0.2997
    4CHTO  H104 1510   8.052   6.596   0.338 -1.3392 -2.0395  2.1838
    4CHTO   O34 1511   7.877   6.857  -0.132  0.8017  0.0304 -0.1869
    4CHTO   C49 1512   7.901   6.704  -0.134  0.1305  0.0434  0.3956
    4CHTO   H91 1513   7.962   6.670  -0.051 -2.1910  0.4948  2.3158
    4CHTO   C47 1514   7.983   6.668  -0.257 -0.1788  0.6690  0.3393
    4CHTO   H89 1515   8.005   6.560  -0.241 -0.1879  0.9890  2.6605
    4CHTO   O33 1516   8.103   6.746  -0.266  0.1463 -0.2596 -0.1268
    4CHTO   H70 1517   8.076   6.834  -0.249 -2.7160 -0.8129 -1.5282
    4CHTO   C45 1518   7.896   6.696  -0.388 -0.4406  0.8778  0.5436
    4CHTO   H87 1519   7.877   6.804  -0.397  1.0430  1.2082  1.1933
    4CHTO    N8 1520   7.973   6.659  -0.510 -0.5994  0.2423 -0.0411
    4CHTO   H75 1521   7.924   6.587  -0.574  0.9988 -0.9279  0.0194
    4CHTO   H76 1522   8.011   6.740  -0.570  2.0382  0.2133  1.5282
    4CHTO   C43 1523   7.756   6.618  -0.380 -0.1700 -0.1928  0.2691
    4CHTO   H85 1524   7.697   6.658  -0.462  2.2033  0.9614 -0.9365
    4CHTO   O29 1525   7.697   6.636  -0.249  0.2495  0.2379 -0.3774
    4CHTO   C50 1526   7.768   6.630  -0.127 -0.3721  0.1124  0.1560
    4CHTO   H92 1527   7.707   6.682  -0.052 -2.5791 -0.2061 -1.3753
    4CHTO   C54 1528   7.778   6.483  -0.078 -0.3293 -0.0932  0.1533
    4CHTO   O36 1529   7.808   6.471   0.064  0.5119 -0.2669 -0.2492
    4CHTO   H72 1530   7.729   6.464   0.114  0.2578  2.6343 -0.2018
    4CHTO   O27 1531   7.771   6.474  -0.391 -0.2087  0.3466  0.1471
    4CHTO   C37 1532   7.727   6.357  -0.460  0.2236  0.1743  0.1959
    4CHTO   H79 1533   7.700   6.380  -0.564  3.1676 -1.2279 -0.9240
    4CHTO   C38 1534   7.850   6.256  -0.473  0.0791  0.2188 -0.0323
    4CHTO   H80 1535   7.907   6.258  -0.379  2.0397  0.8885 -1.2287
    4CHTO   O31 1536   7.934   6.290  -0.583 -0.3660  0.3153 -0.1924
    4CHTO   H68 1537   7.917   6.377  -0.615 -0.5616  0.4197  0.1922
    4CHTO   C39 1538   7.796   6.106  -0.489 -0.2491  0.1916  0.5617
    4CHTO   H81 1539   7.772   6.102  -0.595 -1.3022 -1.8174  0.8503
    4CHTO    N7 1540   7.913   6.009  -0.466  0.5669  0.2841 -0.0997
    4CHTO   H73 1541   7.991   6.007  -0.541 -1.2577 -0.6948 -2.0210
    4CHTO   H74 1542   7.883   5.911  -0.433 -1.7085  1.1520  0.5195
    4CHTO   C40 1543   7.670   6.067  -0.406 -0.1976  0.2169  0.1692
    4CHTO   H82 1544   7.695   6.071  -0.300  0.2881  1.4995  0.0197
    4CHTO   O26 1545   7.572   6.169  -0.443  0.1400  0.0798  0.3323
    4CHTO   C41 1546   7.602   6.302  -0.385  0.7901  0.2378 -0.3739
    4CHTO   H83 1547   7.616   6.302  -0.276  1.3114 -1.7700 -0.4123
    4CHTO   C52 1548   7.487   6.398  -0.397 -0.2367 -0.0770 -0.0168
    4CHTO   O35 1549   7.360   6.342  -0.366 -0.0103 -0.2012 -0.2559
    4CHTO   H71 1550   7.378   6.290  -0.290  2.5394  0.2422 -0.5017
    4CHTO   O28 1551   7.607   5.943  -0.444  0.1619  0.3467 -0.0148
    4CHTO   C42 1552   7.485   5.886  -0.396 -0.0191 -0.3435 -0.1446
    4CHTO   H84 1553   7.485   5.791  -0.448  0.9821 -0.5832  0.2922
    4CHTO   C44 1554   7.342   5.951  -0.428 -0.1110 -0.3384 -0.2093
    4CHTO   H86 1555   7.341   6.053  -0.388 -0.3033 -1.4248  2.6785
    4CHTO   O32 1556   7.344   5.954  -0.574  0.6016 -0.0247 -0.3305
    4CHTO   H69 1557   7.279   6.010  -0.612  0.3549 -0.6755 -0.8740
    4CHTO   C48 1558   7.222   5.869  -0.370  0.5212  0.6120 -0.7628
    4CHTO   H90 1559   7.216   5.772  -0.421 -1.3448 -0.1887  0.8844
    4CHTO    N9 1560   7.088   5.935  -0.384 -0.0816  0.3750  0.0788
    4CHTO   H77 1561   7.015   5.864  -0.347 -1.5540  1.9529  0.2484
    4CHTO   H78 1562   7.072   5.949  -0.490 -0.2134  0.4855  0.1131
    4CHTO   C51 1563   7.249   5.837  -0.218 -0.4332 -0.2133 -0.0493
    4CHTO   H93 1564   7.242   5.930  -0.161  0.9490 -1.3125  2.0042
    4CHTO   O30 1565   7.376   5.773  -0.200  0.0886 -0.0638  0.4873
    4CHTO   C46 1566   7.502   5.855  -0.246 -0.1407  0.0141  0.3817
    4CHTO   H88 1567   7.522   5.948  -0.192 -0.9635  0.9487 -0.8944
    4CHTO   C53 1568   7.614   5.754  -0.228  0.1600 -0.5189 -0.0085
    4CHTO   O72 1569   7.741   5.817  -0.226  0.0615 -0.3081 -0.1966
    4CHTO  H199 1570   7.778   5.802  -0.311 -0.3447 -0.5957 -0.3241
    4CHTO   O22 1571   7.155   5.744  -0.151 -0.0749 -0.0318  0.2746
    4CHTO   C31 1572   7.149   5.727  -0.010 -0.7274  0.3499 -0.6508
    4CHTO   H59 1573   7.247   5.752   0.034 -1.9893  1.2625  1.7131
    4CHTO   C29 1574   7.052   5.816   0.049  0.0456 -0.4204 -0.8654
    4CHTO   H57 1575   6.962   5.807  -0.013 -0.5879  1.1114 -0.2092
    4CHTO   O21 1576   7.091   5.951   0.033 -0.0705 -0.0882  0.6501
    4CHTO   H37 1577   7.011   6.001   0.025  0.4059  0.4899 -0.6991
    4CHTO   C27 1578   7.012   5.786   0.204  0.1945  0.3308 -0.2312
    4CHTO   H55 1579   7.098   5.810   0.269 -0.6448  2.0415  0.2595
    4CHTO    N5 1580   6.899   5.869   0.252  0.2489 -1.1647 -0.0718
    4CHTO   H43 1581   6.803   5.831   0.218  0.1165 -0.0492 -0.9996
    4CHTO   H44 1582   6.899   5.870   0.360  0.9352 -0.5109 -0.0791
    4CHTO   C25 1583   6.989   5.631   0.230 -0.9909 -0.3925 -0.1904
    4CHTO   H53 1584   6.899   5.598   0.175  0.7974 -0.7160 -3.0445
    4CHTO   O17 1585   7.110   5.564   0.172  0.4857 -0.3087  0.0574
    4CHTO   C32 1586   7.119   5.579   0.034  0.0068  0.1803 -0.3347
    4CHTO   H60 1587   7.025   5.546  -0.012 -0.8596  2.2836 -0.1263
    4CHTO   C36 1588   7.231   5.481  -0.009 -0.4782 -0.3751  1.0937
    4CHTO   O25 1589   7.231   5.472  -0.152 -0.2056  0.3465  0.0199
    4CHTO   H40 1590   7.318   5.490  -0.182 -0.4089  3.1152  0.9746
    4CHTO   O15 1591   6.997   5.604   0.383  0.2422  0.1793  0.0243
    4CHTO   C19 1592   7.076   5.614   0.505 -0.0752 -0.1222  0.7959
    4CHTO   H47 1593   7.033   5.543   0.576  1.1038 -0.3670  1.2813
    4CHTO   C20 1594   7.225   5.579   0.472 -0.0093  0.0880 -0.2161
    4CHTO   H48 1595   7.260   5.628   0.380 -1.4008  1.3570 -0.0794
    4CHTO   O19 1596   7.223   5.433   0.448  0.0746 -0.5484  0.3433
    4CHTO   H35 1597   7.231   5.391   0.532  0.6924  0.9235  1.0241
    4CHTO   C21 1598   7.334   5.605   0.584  0.5968 -0.3408 -0.4451
    4CHTO   H49 1599   7.322   5.531   0.663 -1.3052  0.8400  0.3816
    4CHTO    N4 1600   7.475   5.604   0.533 -0.4607  0.0785  0.2934
    4CHTO   H41 1601   7.543   5.607   0.617 -0.3616  0.4955  0.2010
    4CHTO   H42 1602   7.496   5.695   0.478  0.1379  0.1360  0.6053
    4CHTO   C22 1603   7.303   5.739   0.662  0.7512  0.3463 -0.1911
    4CHTO   H50 1604   7.349   5.825   0.614 -1.3293  1.3197 -0.4652
    4CHTO   O14 1605   7.161   5.750   0.693  0.0659 -0.4043  0.1210
    4CHTO   C23 1606   7.070   5.756   0.579 -0.6930 -0.3542  0.4381
    4CHTO   H51 1607   7.103   5.835   0.510 -0.2798 -3.1187 -2.6921
    4CHTO   C34 1608   6.923   5.778   0.612  0.0927 -0.3904 -0.6012
    4CHTO   O23 1609   6.898   5.905   0.663 -0.0445 -0.1691 -0.4243
    4CHTO   H38 1610   6.813   5.913   0.701  0.1357  1.8404 -0.3499
    4CHTO   O16 1611   7.363   5.724   0.793 -0.7254 -0.2714  0.6425
    4CHTO   C24 1612   7.417   5.851   0.856 -0.1046 -0.3995 -0.3690
    4CHTO   H52 1613   7.371   5.943   0.821  2.1870  1.4322  1.2254
    4CHTO   C26 1614   7.564   5.857   0.841  0.3425  1.1182 -0.2823
    4CHTO   H54 1615   7.603   5.757   0.869 -1.5440  0.5833  0.5273
    4CHTO   O20 1616   7.602   5.882   0.703 -0.1827 -0.1040  0.1873
    4CHTO   H36 1617   7.695   5.879   0.694 -0.2395  1.2041 -1.0451
    4CHTO   C30 1618   7.625   5.961   0.941 -0.5538  0.5438  0.7440
    4CHTO   H58 1619   7.606   6.065   0.911 -1.2454  0.5520  1.2056
    4CHTO    N6 1620   7.777   5.953   0.940 -0.2475 -0.3900 -0.3762
    4CHTO   H45 1621   7.807   5.973   1.042 -0.4446  1.0371 -0.5932
    4CHTO   H46 1622   7.814   6.027   0.871  0.5948  0.4671  0.9911
    4CHTO   C33 1623   7.575   5.940   1.082  0.5930  0.3340 -0.4611
    4CHTO   H61 1624   7.599   5.839   1.119 -1.8335 -1.5629 -3.8167
    4CHTO   O18 1625   7.434   5.945   1.082  0.5997  0.1322 -0.5195
    4CHTO   C28 1626   7.372   5.837   1.005  0.0825 -0.5627 -0.7633
    4CHTO   H56 1627   7.413   5.745   1.046 -0.3634 -0.1390  0.6491
    4CHTO   C35 1628   7.216   5.846   1.012 -0.2392 -0.0695  0.1955
    4CHTO   O24 1629   7.174   5.980   0.983  0.3271  0.0444 -0.2539
    4CHTO   H39 1630   7.121   6.016   1.051  1.3425 -1.4442  1.3758
    4CHTO    O9 1631   7.625   6.029   1.178 -0.1073 -0.1254 -0.1827
    4CHTO   C13 1632   7.635   5.987   1.334 -0.9655 -0.4692  0.8562
    4CHTO   H26 1633   7.682   5.887   1.338  2.2482  0.9604  0.5851
    4CHTO   C11 1634   7.497   5.981   1.400 -0.9310 -0.2257  0.4894
    4CHTO   H24 1635   7.459   5.888   1.356  0.0464 -0.0065 -0.8783
    4CHTO    O8 1636   7.420   6.100   1.359 -0.0002  0.2062  0.2444
    4CHTO    H3 1637   7.330   6.099   1.384  0.2275  0.5934  1.0995
    4CHTO    C9 1638   7.527   5.968   1.550 -0.4129 -0.0965 -0.2702
    4CHTO   H22 1639   7.599   5.885   1.560 -0.5308 -0.3181 -1.1998
    4CHTO    N2 1640   7.410   5.932   1.629  0.4772 -0.6077 -0.0448
    4CHTO   H10 1641   7.328   5.894   1.570 -0.1175  1.4504 -0.5804
    4CHTO   H11 1642   7.376   6.012   1.694  0.9178 -0.1238 -0.4120
    4CHTO    C7 1643   7.602   6.101   1.599 -0.1713  0.0039  1.1357
    4CHTO   H20 1644   7.677   6.049   1.662  0.0659 -2.6307 -1.2319
    4CHTO    O4 1645   7.674   6.175   1.499 -0.0908 -0.1763 -0.5051
    4CHTO   C14 1646   7.740   6.091   1.407  0.7252 -0.3173  0.3677
    4CHTO   H27 1647   7.810   6.036   1.473  0.5825  0.8021  1.4765
    4CHTO   C18 1648   7.820   6.173   1.313 -0.6379 -0.2003 -0.4153
    4CHTO   O13 1649   7.919   6.259   1.375  0.7845  0.5916  0.0904
    4CHTO    H7 1650   7.915   6.243   1.468 -0.6465 -0.3458 -0.1122
    4CHTO    O2 1651   7.503   6.217   1.680  0.6459 -0.6291  0.0636
    4CHTO    C1 1652   7.556   6.251   1.807 -0.4521 -0.0160  0.4111
    4CHTO   H14 1653   7.664   6.248   1.786 -0.5288 -2.1006  0.2371
    4CHTO    C2 1654   7.531   6.147   1.930  0.1662  0.1452  0.0937
    4CHTO   H15 1655   7.430   6.107   1.914  1.2203 -2.4821 -0.2268
    4CHTO    O6 1656   7.623   6.036   1.917  0.5679  0.2579  0.2343
    4CHTO    H1 1657   7.602   5.985   1.841  1.7352 -2.3004  1.5696
    4CHTO    C3 1658   7.547   6.213   2.072 -0.0847  0.0810  0.0967
    4CHTO   H16 1659   7.653   6.233   2.092  0.0331 -0.1667 -0.2808
    4CHTO    N1 1660   7.493   6.136   2.182 -0.5605 -0.0513  0.3933
    4CHTO    H8 1661   7.531   6.035   2.187 -0.5608 -0.0740 -0.0281
    4CHTO    H9 1662   7.527   6.176   2.277 -0.8620  0.0191  0.4705
    4CHTO    C4 1663   7.472   6.357   2.070 -0.6554  0.4272 -0.1543
    4CHTO   H17 1664   7.365   6.342   2.059 -0.3262 -1.6353 -0.7891
    4CHTO    O1 1665   7.524   6.439   1.968  0.5889  0.2251 -1.0954
    4CHTO    C5 1666   7.503   6.401   1.832 -0.3259  0.7657  0.0000
    4CHTO   H18 1667   7.394   6.404   1.819 -0.5669  1.5466  2.0146
    4CHTO   C16 1668   7.565   6.495   1.741  0.2793  0.2477 -0.3994
    4CHTO   O11 1669   7.484   6.614   1.715  0.2467  1.2537  0.1734
    4CHTO    H5 1670   7.487   6.671   1.790 -2.0772  0.3800  0.9988
    4CHTO    O3 1671   7.507   6.428   2.197 -0.4056 -0.0599 -0.4679
    4CHTO    C6 1672   7.410   6.536   2.232 -0.5201 -0.4875 -0.3761
    4CHTO   H19 1673   7.351   6.557   2.142  0.1301 -1.9714 -1.1848
    4CHTO    C8 1674   7.314   6.488   2.345 -1.0712  0.1169 -0.2168
    4CHTO   H21 1675   7.378   6.449   2.425 -0.0895  0.2556 -0.9297
    4CHTO    O7 1676   7.227   6.386   2.290 -0.2186  0.2955 -0.6582
    4CHTO    H2 1677   7.138   6.401   2.314  0.3361  0.0280  1.6499
    4CHTO   C12 1678   7.228   6.603   2.408 -0.3506  0.2607  0.6970
    4CHTO   H25 1679   7.157   6.635   2.330 -0.7373  0.5932  1.1816
    4CHTO    N3 1680   7.151   6.547   2.530  0.3056  0.2973 -0.3843
    4CHTO   H12 1681   7.103   6.632   2.575 -0.5155  0.2916 -1.2230
    4CHTO   H13 1682   7.080   6.477   2.489  0.2273  0.9664 -1.4228
    4CHTO   C15 1683   7.325   6.725   2.439  0.0900  0.2557 -0.1035
    4CHTO   H28 1684   7.396   6.706   2.520  0.2678 -0.6974 -0.4728
    4CHTO   O10 1685   7.245   6.850   2.482 -0.4937  0.5899 -0.5310
    4CHTO    H4 1686   7.200   6.826   2.560 -0.9764 -0.7865 -1.2239
    4CHTO    O5 1687   7.396   6.766   2.321 -0.3051  0.2988  0.1454
    4CHTO   C10 1688   7.487   6.661   2.277 -0.7325  0.1078  0.3813
    4CHTO   H23 1689   7.550   6.639   2.362 -0.7347 -0.8779  0.1344
    4CHTO   C17 1690   7.575   6.712   2.161  0.4266 -0.7413 -0.0090
    4CHTO   O12 1691   7.693   6.626   2.146 -0.3964 -0.4267 -0.1286
    4CHTO    H6 1692   7.750   6.638   2.220  2.3575 -4.2627 -1.4522
    5CHTO  H203 1693   7.629   3.761   3.131  0.1099  0.3699 -0.5057
    5CHTO   O82 1694   7.580   3.841   3.124 -0.3064  0.1813  0.1950
    5CHTO  C123 1695   7.555   3.887   3.257  0.7959 -0.3158  0.1808
    5CHTO  H227 1696   7.651   3.929   3.291  0.6086  1.1210 -1.0153
    5CHTO   O77 1697   7.459   3.998   3.242  0.1016 -0.0337  0.0732
    5CHTO  C118 1698   7.423   4.069   3.360 -0.4147  0.1045 -0.3908
    5CHTO  H222 1699   7.511   4.122   3.401 -2.6140  1.3443  2.9308
    5CHTO  C125 1700   7.319   4.177   3.319  1.0021 -0.2197  0.4658
    5CHTO   O84 1701   7.365   4.273   3.217 -0.2627 -0.4678  0.0461
    5CHTO  H205 1702   7.459   4.275   3.210 -0.2778 -1.2522 -0.3804
    5CHTO  C114 1703   7.356   3.977   3.467  0.1395 -0.1432 -0.6538
    5CHTO  H218 1704   7.261   3.944   3.425  0.7330 -0.9910 -1.3655
    5CHTO  C116 1705   7.457   3.856   3.492 -0.1148 -0.3270  0.0177
    5CHTO  H220 1706   7.550   3.894   3.541 -0.5391 -1.6478  1.9173
    5CHTO   O79 1707   7.400   3.763   3.588 -0.0956  0.0226 -0.0548
    5CHTO  H201 1708   7.308   3.752   3.577 -0.4083  1.7217  0.6988
    5CHTO  C120 1709   7.493   3.782   3.354  0.8017  0.2030 -0.1214
    5CHTO  H224 1710   7.404   3.737   3.305 -0.8496  0.5158  2.4498
    5CHTO   N21 1711   7.590   3.670   3.368 -0.2266 -0.0048 -0.2660
    5CHTO  H211 1712   7.646   3.696   3.456 -2.8363 -0.3853  1.5747
    5CHTO  H212 1713   7.650   3.651   3.280 -0.1202  2.8483 -0.8515
    5CHTO   O75 1714   7.347   4.058   3.579 -0.2488  0.3677  0.7746
    5CHTO  C112 1715   7.235   4.011   3.690  0.1981  0.0185 -0.2695
    5CHTO  H216 1716   7.215   3.903   3.680 -2.1622  0.2005  2.0586
    5CHTO   O73 1717   7.119   4.086   3.657 -0.1351 -0.4397 -0.0503
    5CHTO  C113 1718   7.012   4.064   3.749  0.3694 -0.6237 -0.2235
    5CHTO  H217 1719   6.985   3.957   3.739  1.3796 -0.6277 -3.3977
    5CHTO  C124 1720   6.887   4.137   3.693 -0.2832 -0.1363  0.3664
    5CHTO   O83 1721   6.768   4.096   3.759  0.2449 -0.0578 -0.0826
    5CHTO  H204 1722   6.699   4.159   3.745  0.6392  0.3843 -0.0730
    5CHTO  C109 1723   7.045   4.113   3.890 -0.4510 -0.3293  0.3065
    5CHTO  H213 1724   7.075   4.218   3.881  2.2954 -0.9810  1.3500
    5CHTO  C110 1725   7.172   4.042   3.938  0.6500 -0.7062 -0.2766
    5CHTO  H214 1726   7.154   3.937   3.961  1.5908 -1.0940 -1.2425
    5CHTO   O78 1727   7.205   4.089   4.068  0.0131  0.2621  0.1992
    5CHTO  H200 1728   7.296   4.102   4.085 -0.2496  0.5860  1.4134
    5CHTO  C111 1729   7.289   4.046   3.836 -0.2070 -0.1247 -0.0259
    5CHTO  H215 1730   7.326   4.150   3.833  2.1321 -0.7708  3.4253
    5CHTO   N19 1731   7.405   3.964   3.872 -0.0513  0.1248 -0.1778
    5CHTO  H207 1732   7.395   3.911   3.966  0.1507  2.2750  1.0970
    5CHTO  H208 1733   7.411   3.889   3.794 -2.1861  0.4523 -0.6872
    5CHTO   O74 1734   6.934   4.091   3.983  0.0400 -0.6033  0.2802
    5CHTO  C115 1735   6.919   4.194   4.096 -1.0521  0.5519 -0.3663
    5CHTO  H219 1736   6.981   4.171   4.182 -2.4856  2.8393  1.3429
    5CHTO   O76 1737   6.957   4.336   4.052  1.1432  0.0982 -0.0964
    5CHTO  C122 1738   6.859   4.404   3.975  0.1228 -0.7254 -0.0169
    5CHTO  H226 1739   6.881   4.367   3.875  0.6932 -1.6853  0.4550
    5CHTO  C126 1740   6.908   4.554   3.977 -0.6008 -0.1636  0.5509
    5CHTO   O85 1741   6.886   4.605   3.845 -0.5034  0.3117 -0.3414
    5CHTO  H206 1742   6.909   4.695   3.849 -0.1926  0.1764  1.3584
    5CHTO  C121 1743   6.714   4.399   4.033 -0.5861  0.9328 -0.7427
    5CHTO  H225 1744   6.677   4.503   4.050 -0.0046  1.1001 -0.4960
    5CHTO   O81 1745   6.632   4.331   3.941 -0.4840  0.2005  0.5902
    5CHTO  H202 1746   6.546   4.316   3.975 -0.0614  0.5024  1.7957
    5CHTO  C119 1747   6.705   4.318   4.167  0.2956 -0.4389  0.0355
    5CHTO  H223 1748   6.776   4.369   4.233  0.7168  0.8070 -1.3671
    5CHTO  C117 1749   6.768   4.176   4.144  0.1324 -0.4681  0.3442
    5CHTO  H221 1750   6.721   4.114   4.068  1.5015 -0.1957 -0.7621
    5CHTO   N20 1751   6.754   4.097   4.274 -0.2626 -0.7128  0.3920
    5CHTO  H209 1752   6.756   3.992   4.247 -0.3055 -0.6464  0.1297
    5CHTO  H210 1753   6.678   4.133   4.342  1.2421 -1.0891  2.2877
    5CHTO   O80 1754   6.549   4.356   4.251  0.4006 -0.2010 -0.4845
    5CHTO  C103 1755   6.407   4.305   4.187 -0.2630 -0.2521 -0.1360
    5CHTO  H190 1756   6.397   4.321   4.080  3.7558 -0.6434 -0.6391
    5CHTO  C101 1757   6.379   4.148   4.215  0.0650  0.8254 -0.1584
    5CHTO  H188 1758   6.415   4.120   4.314 -2.0508 -1.3248  0.0574
    5CHTO   O68 1759   6.459   4.056   4.109  0.3305 -0.5541  0.1457
    5CHTO  H168 1760   6.550   4.066   4.125  0.4513 -0.7086 -0.4192
    5CHTO   C99 1761   6.217   4.123   4.190  0.1520 -1.0451 -0.9100
    5CHTO  H186 1762   6.191   4.149   4.085  0.6747  0.1793 -0.7361
    5CHTO   N17 1763   6.182   3.976   4.199  0.1905  0.0827 -1.3067
    5CHTO  H174 1764   6.076   3.961   4.192 -0.1918  1.3573  1.4168
    5CHTO  H175 1765   6.233   3.919   4.275 -0.6217 -2.2759 -2.4725
    5CHTO   C97 1766   6.135   4.213   4.283  0.1053 -0.5595 -0.5149
    5CHTO  H184 1767   6.169   4.196   4.386 -0.2276  0.2362 -0.2665
    5CHTO   O64 1768   6.161   4.347   4.245 -0.3673  0.2857 -0.2248
    5CHTO  C104 1769   6.297   4.393   4.258  0.3776 -0.1414  0.0372
    5CHTO  H191 1770   6.326   4.400   4.363  0.2471 -1.9102  0.2139
    5CHTO  C108 1771   6.310   4.536   4.205 -0.0218 -0.1422  0.4947
    5CHTO   O71 1772   6.238   4.621   4.294  0.7052  0.4657 -0.4888
    5CHTO  H171 1773   6.298   4.671   4.345 -0.1462  0.7374  0.2607
    5CHTO   O62 1774   5.994   4.198   4.292  0.0660  0.2319  0.3817
    5CHTO   C91 1775   5.897   4.249   4.191  0.0849  0.4253 -0.5259
    5CHTO  H178 1776   5.924   4.352   4.172  3.3232 -0.1266  0.8947
    5CHTO   C92 1777   5.742   4.234   4.248 -0.5060  0.4479  0.2233
    5CHTO  H179 1778   5.747   4.290   4.343  2.1846 -0.0339  0.4175
    5CHTO   O66 1779   5.655   4.310   4.155  0.6966 -0.9433 -0.6161
    5CHTO  H166 1780   5.645   4.401   4.175  1.1144 -0.8935 -0.6256
    5CHTO   C93 1781   5.686   4.083   4.245 -0.2648 -0.0772 -0.0221
    5CHTO  H180 1782   5.577   4.094   4.232 -0.1494 -0.2735 -1.2579
    5CHTO   N16 1783   5.704   4.005   4.371  0.9610 -0.3131  0.7802
    5CHTO  H172 1784   5.805   4.018   4.409  0.9121  1.2327  0.4347
    5CHTO  H173 1785   5.624   4.026   4.440 -0.9657 -1.1048 -1.1368
    5CHTO   C94 1786   5.734   4.003   4.117 -0.4066 -0.5537 -0.5494
    5CHTO  H181 1787   5.823   3.943   4.137  1.7333  2.8533  0.6057
    5CHTO   O61 1788   5.787   4.092   4.017  0.4870  0.0241 -0.2686
    5CHTO   C95 1789   5.906   4.167   4.047  0.3418  0.3182 -0.3854
    5CHTO  H182 1790   5.992   4.101   4.033 -0.1156 -0.6470  1.2901
    5CHTO  C106 1791   5.927   4.284   3.939 -0.2477  0.4057 -0.2044
    5CHTO   O69 1792   6.056   4.337   3.968  0.1469 -0.1168  0.3362
    5CHTO  H169 1793   6.056   4.424   3.933 -2.3916 -0.5801 -0.9653
    5CHTO   O63 1794   5.610   3.905   4.046  0.1650 -0.2633  0.7001
    5CHTO   C96 1795   5.667   3.821   3.915 -0.1431  0.3958  0.1915
    5CHTO  H183 1796   5.734   3.889   3.862  2.1081  0.6247  3.1861
    5CHTO   C98 1797   5.566   3.771   3.805 -0.2786 -0.0009 -0.0979
    5CHTO  H185 1798   5.487   3.845   3.784  0.2229  0.4272 -0.4900
    5CHTO   O67 1799   5.645   3.776   3.686  0.1162  0.6090  0.3709
    5CHTO  H167 1800   5.636   3.861   3.646 -1.2935 -1.0418 -2.9468
    5CHTO  C102 1801   5.507   3.626   3.813  0.3395 -0.6465  0.5913
    5CHTO  H189 1802   5.482   3.596   3.710 -1.6333  2.6632  0.0447
    5CHTO   N18 1803   5.374   3.618   3.894  0.3072 -0.1718  0.3793
    5CHTO  H176 1804   5.350   3.713   3.939 -0.4107 -0.3909  0.4562
    5CHTO  H177 1805   5.297   3.604   3.820  1.0350 -0.3818 -0.3413
    5CHTO  C105 1806   5.613   3.528   3.866  0.3242  0.9030  0.1201
    5CHTO  H192 1807   5.561   3.442   3.909  0.4135  0.0408 -1.4824
    5CHTO   O65 1808   5.706   3.561   3.970 -0.0905  0.4846 -0.0507
    5CHTO  C100 1809   5.762   3.698   3.961 -0.1446  0.3611 -1.0864
    5CHTO  H187 1810   5.796   3.724   4.062  2.0673  1.6026 -2.0887
    5CHTO  C107 1811   5.896   3.700   3.878 -0.5092  0.4719  0.3240
    5CHTO   O70 1812   5.980   3.810   3.911 -0.3274 -0.3704 -0.0390
    5CHTO  H170 1813   5.988   3.873   3.842  1.1102  2.7325  2.8332
    5CHTO   O57 1814   5.682   3.476   3.727 -0.0304 -0.6060  0.3052
    5CHTO   C85 1815   5.622   3.356   3.675 -0.5808 -0.3654 -0.0254
    5CHTO  H157 1816   5.515   3.364   3.704 -0.9291  1.5052 -1.7174
    5CHTO   C83 1817   5.667   3.225   3.749  0.7591 -0.1631  0.4168
    5CHTO  H155 1818   5.635   3.230   3.853 -0.2806 -0.1820  0.1058
    5CHTO   O56 1819   5.817   3.226   3.747 -0.2578 -0.0550  0.1185
    5CHTO  H135 1820   5.854   3.292   3.803 -0.5167 -0.8280  1.2137
    5CHTO   C81 1821   5.595   3.103   3.680  0.2252  0.1744  0.0325
    5CHTO  H153 1822   5.487   3.116   3.685  0.2800  1.1398 -1.0402
    5CHTO   N14 1823   5.607   2.981   3.761 -0.1037 -0.0091  0.4921
    5CHTO  H141 1824   5.641   3.005   3.860 -0.7490 -3.5123  1.6299
    5CHTO  H142 1825   5.662   2.894   3.732 -0.3034  0.5907 -1.7938
    5CHTO   C79 1826   5.641   3.090   3.531 -0.0610 -0.2762 -0.1466
    5CHTO  H151 1827   5.590   3.001   3.494  1.3850 -1.2375  0.1199
    5CHTO   O52 1828   5.589   3.211   3.464 -0.3210 -0.3238  0.7371
    5CHTO   C86 1829   5.649   3.337   3.519 -0.5476  0.3901  0.2171
    5CHTO  H158 1830   5.759   3.321   3.515 -0.6080  0.1964 -0.5802
    5CHTO   C90 1831   5.625   3.456   3.431  0.1058  0.1076 -0.4190
    5CHTO   O60 1832   5.685   3.425   3.303 -0.4087 -0.2820 -0.0831
    5CHTO  H138 1833   5.778   3.427   3.312 -0.4830 -0.7838  0.8784
    5CHTO   O50 1834   5.782   3.078   3.506  0.2308  0.6510 -0.0917
    5CHTO   C73 1835   5.865   2.995   3.418  0.0958 -0.6528 -0.2201
    5CHTO  H145 1836   5.805   2.939   3.346 -0.9463 -0.0815  0.1856
    5CHTO   C74 1837   5.942   2.886   3.501  0.3086 -0.2593  0.2504
    5CHTO  H146 1838   5.867   2.824   3.553  0.3577 -0.5162  0.0124
    5CHTO   O54 1839   6.006   2.790   3.412 -0.5278  0.1431  0.3641
    5CHTO  H133 1840   6.099   2.790   3.419 -0.4927 -1.6887  0.0882
    5CHTO   C75 1841   6.033   2.963   3.597  0.2604 -0.1672  0.1685
    5CHTO  H147 1842   5.967   3.026   3.657 -0.7738 -0.3340 -0.7730
    5CHTO   N13 1843   6.108   2.882   3.689  0.8178 -0.1073  0.0699
    5CHTO  H139 1844   6.174   2.950   3.739 -0.3792  2.2632 -1.4676
    5CHTO  H140 1845   6.041   2.844   3.764 -0.4198  0.7715 -0.5612
    5CHTO   C76 1846   6.132   3.055   3.523  0.4954 -0.5801  0.1842
    5CHTO  H148 1847   6.196   2.985   3.469 -2.3972 -1.5926 -2.0513
    5CHTO   O49 1848   6.053   3.149   3.443  0.0355  0.4190  0.1447
    5CHTO   C77 1849   5.969   3.087   3.345  0.4656  0.0070 -0.2770
    5CHTO  H149 1850   6.037   3.032   3.280  0.7729  0.3895 -0.2798
    5CHTO   C88 1851   5.907   3.206   3.272  0.2402 -0.0844  0.4937
    5CHTO   O58 1852   5.786   3.164   3.182 -0.3954 -0.0971 -0.0596
    5CHTO  H136 1853   5.715   3.139   3.238 -1.4567  1.1319 -0.8450
    5CHTO   O51 1854   6.218   3.156   3.629  0.0273  0.0097 -0.4305
    5CHTO   C78 1855   6.318   3.271   3.585 -0.1103 -0.9704 -0.4039
    5CHTO  H150 1856   6.286   3.311   3.487 -0.6170 -1.6582 -0.5234
    5CHTO   C80 1857   6.463   3.217   3.568 -0.4573 -0.3205 -0.0607
    5CHTO  H152 1858   6.493   3.159   3.658  1.3450  0.8074  0.0919
    5CHTO   O55 1859   6.472   3.137   3.450 -0.0751 -0.7730 -0.7179
    5CHTO  H134 1860   6.465   3.048   3.481 -0.5405  0.1014  1.7823
    5CHTO   C84 1861   6.576   3.336   3.562 -0.1112 -0.3065 -0.8395
    5CHTO  H156 1862   6.557   3.383   3.466  1.2876  0.0725 -0.9428
    5CHTO   N15 1863   6.711   3.281   3.560 -0.0492 -0.2066 -0.3416
    5CHTO  H143 1864   6.724   3.235   3.464 -3.5405 -0.5745 -0.7223
    5CHTO  H144 1865   6.714   3.212   3.641 -2.0794  0.5968  0.4653
    5CHTO   C87 1866   6.548   3.435   3.680 -0.2935 -0.3242 -0.2059
    5CHTO  H159 1867   6.571   3.388   3.775  0.8274  2.2347  0.8231
    5CHTO   O53 1868   6.412   3.479   3.659  0.4789 -0.4832 -0.4314
    5CHTO   C82 1869   6.313   3.383   3.686 -0.0334  0.1690 -0.1695
    5CHTO  H154 1870   6.326   3.331   3.781  1.4928  0.2116 -0.3425
    5CHTO   C89 1871   6.180   3.462   3.683 -0.2291 -0.7156 -0.7498
    5CHTO   O59 1872   6.060   3.387   3.716  0.5394  0.0994  0.5310
    5CHTO  H137 1873   6.029   3.350   3.636  0.7279 -1.5261  1.1765
    5CHTO   O45 1874   6.643   3.554   3.670  0.6334 -0.0272  0.5363
    5CHTO   C67 1875   6.660   3.618   3.797  0.1326 -0.3154 -0.0300
    5CHTO  H124 1876   6.599   3.574   3.876  0.1778 -2.7362 -1.2933
    5CHTO   C65 1877   6.812   3.603   3.845 -0.2431  0.5259 -0.7927
    5CHTO  H122 1878   6.876   3.620   3.758 -1.2317  2.0044 -1.2625
    5CHTO   O44 1879   6.828   3.459   3.883  0.3544 -0.0560  0.6776
    5CHTO  H102 1880   6.872   3.406   3.821  0.9730  0.5000  0.6342
    5CHTO   C63 1881   6.853   3.719   3.944  0.0658 -0.5536  0.1419
    5CHTO  H120 1882   6.887   3.801   3.881  1.1037 -1.2558 -0.2207
    5CHTO   N11 1883   6.968   3.685   4.027 -0.6025 -0.0165  0.1958
    5CHTO  H108 1884   7.047   3.657   3.960 -0.4970  1.5199 -0.3470
    5CHTO  H109 1885   6.937   3.612   4.098  1.8656 -1.4265 -0.1222
    5CHTO   C61 1886   6.734   3.777   4.021 -0.1865 -0.4071 -0.0248
    5CHTO  H118 1887   6.771   3.860   4.083  0.0339 -0.6901  0.2262
    5CHTO   O40 1888   6.643   3.832   3.927 -0.5454  0.2562 -0.2237
    5CHTO   C68 1889   6.635   3.775   3.789  0.5664 -0.0904  0.2584
    5CHTO  H125 1890   6.715   3.827   3.733  1.6596 -0.5106  1.4288
    5CHTO   C72 1891   6.503   3.819   3.714 -0.0853  0.1447 -0.2695
    5CHTO   O48 1892   6.512   3.961   3.711  0.0587 -0.5468 -0.1615
    5CHTO  H105 1893   6.556   4.000   3.638 -0.8088  1.7053  0.4576
    5CHTO   O38 1894   6.673   3.680   4.110 -0.2620 -0.2256 -0.3806
    5CHTO   C55 1895   6.599   3.719   4.230 -0.5198  0.4811 -0.5568
    5CHTO  H112 1896   6.581   3.827   4.230 -0.0964  0.5625  0.7597
    5CHTO   C56 1897   6.665   3.672   4.368 -0.9218  0.1088  0.2349
    5CHTO  H113 1898   6.679   3.563   4.366  1.6167  0.4267 -0.2622
    5CHTO   O42 1899   6.803   3.707   4.382 -0.5220  0.3176 -0.9451
    5CHTO  H100 1900   6.837   3.699   4.469  1.8777  2.7335 -1.5904
    5CHTO   C57 1901   6.572   3.712   4.487  0.1667  0.4197 -0.3646
    5CHTO  H114 1902   6.568   3.821   4.492  1.4543  0.4869 -0.5840
    5CHTO   N10 1903   6.618   3.656   4.616 -0.3736 -0.9726  0.0747
    5CHTO  H106 1904   6.693   3.722   4.658  1.2355 -2.5060 -0.3327
    5CHTO  H107 1905   6.538   3.640   4.687  0.9770  1.1653  2.1348
    5CHTO   C58 1906   6.426   3.665   4.457 -0.1387 -0.2978  0.2042
    5CHTO  H115 1907   6.428   3.554   4.446  1.4343 -0.1404 -1.4675
    5CHTO   O37 1908   6.379   3.711   4.327 -0.2663 -0.4238 -0.0504
    5CHTO   C59 1909   6.456   3.658   4.218 -0.1982 -0.4868 -0.0742
    5CHTO  H116 1910   6.463   3.549   4.221 -0.9365 -0.5972 -2.0013
    5CHTO   C70 1911   6.383   3.702   4.083  0.0952  0.2558  0.9939
    5CHTO   O46 1912   6.246   3.659   4.055  0.2345 -0.0982 -0.2656
    5CHTO  H103 1913   6.249   3.566   4.041 -1.7379 -0.2237 -0.0252
    5CHTO   O39 1914   6.322   3.712   4.584 -0.0734 -0.2751  0.4326
    5CHTO   C60 1915   6.189   3.758   4.558  0.2743  0.5708  0.7256
    5CHTO  H117 1916   6.198   3.845   4.492  3.1060 -0.0150  0.2981
    5CHTO   C62 1917   6.102   3.650   4.501 -0.1560  0.2949  0.3901
    5CHTO  H119 1918   6.141   3.627   4.399 -0.5020  0.1628  0.2865
    5CHTO   O43 1919   6.125   3.531   4.577  0.0208  0.0229  0.9133
    5CHTO  H101 1920   6.101   3.456   4.527 -0.2613 -0.7299  2.1435
    5CHTO   C66 1921   5.947   3.701   4.505  0.2508  0.2119 -0.4147
    5CHTO  H123 1922   5.939   3.796   4.452  0.3969  0.0809 -0.6711
    5CHTO   N12 1923   5.863   3.610   4.426  0.2172  0.1709 -0.2513
    5CHTO  H110 1924   5.812   3.665   4.349  0.7861 -0.9802 -1.4757
    5CHTO  H111 1925   5.917   3.526   4.385 -0.3804 -0.6048  0.5087
    5CHTO   C69 1926   5.900   3.727   4.650 -0.0834  0.1746 -1.0574
    5CHTO  H126 1927   5.904   3.642   4.721 -1.2637  2.0138  1.2803
    5CHTO   O41 1928   5.983   3.841   4.704  0.0844 -0.1754 -0.5818
    5CHTO   C64 1929   6.137   3.815   4.696  0.7121 -0.2912  0.0905
    5CHTO  H121 1930   6.158   3.744   4.780  0.2358  1.4266  1.6903
    5CHTO   C71 1931   6.209   3.952   4.725  0.1537  0.1569  0.1018
    5CHTO   O47 1932   6.184   4.056   4.637 -0.0538  0.0922 -0.3340
    5CHTO  H104 1933   6.226   4.135   4.665  2.0743 -1.1404  0.0784
    5CHTO   O34 1934   5.763   3.788   4.652 -0.9307  0.1213  0.4749
    5CHTO   C49 1935   5.660   3.803   4.782  0.0330  0.8152  0.0098
    5CHTO   H91 1936   5.671   3.710   4.838  2.5808  0.7937 -0.4560
    5CHTO   C47 1937   5.511   3.801   4.732  0.3077  0.0522  0.3893
    5CHTO   H89 1938   5.460   3.772   4.826 -0.2789 -0.2524 -0.0228
    5CHTO   O33 1939   5.503   3.688   4.642 -0.0448 -0.3511 -0.0794
    5CHTO   H70 1940   5.415   3.657   4.645 -0.6838  1.4212  0.2512
    5CHTO   C45 1941   5.471   3.944   4.673 -0.0699  0.1558  0.2364
    5CHTO   H87 1942   5.538   3.971   4.590 -0.9560 -1.2436 -0.9648
    5CHTO    N8 1943   5.336   3.934   4.614 -0.4329 -0.6432  0.3071
    5CHTO   H75 1944   5.337   3.861   4.535  1.0411  0.4430 -0.7150
    5CHTO   H76 1945   5.298   4.032   4.588  0.2001 -0.5891 -0.4449
    5CHTO   C43 1946   5.483   4.045   4.791  0.9240  0.5371  0.5870
    5CHTO   H85 1947   5.455   4.143   4.753 -5.7296 -2.4325 -3.0309
    5CHTO   O29 1948   5.621   4.042   4.832  0.1880  0.0753  0.1255
    5CHTO   C50 1949   5.684   3.922   4.872 -0.2728 -0.1199 -0.4672
    5CHTO   H92 1950   5.792   3.938   4.880 -0.3457 -0.2852  0.8877
    5CHTO   C54 1951   5.653   3.874   5.015 -0.1798 -0.5060 -0.0040
    5CHTO   O36 1952   5.681   3.981   5.110 -0.0595 -0.4241 -0.7141
    5CHTO   H72 1953   5.599   4.024   5.130 -1.6075 -3.7361  0.4000
    5CHTO   O27 1954   5.398   4.020   4.898  0.3336  0.0999 -0.5030
    5CHTO   C37 1955   5.297   4.094   4.967  0.4863 -0.5589 -0.4518
    5CHTO   H79 1956   5.338   4.191   4.997 -1.3058  0.6125 -1.7166
    5CHTO   C38 1957   5.172   4.114   4.876  0.0900 -1.1963  0.7617
    5CHTO   H80 1958   5.148   4.021   4.823  0.3173 -0.2893 -0.9567
    5CHTO   O31 1959   5.209   4.208   4.776 -0.2175 -0.1583 -0.1042
    5CHTO   H68 1960   5.138   4.229   4.718  0.5591  1.1023 -0.6154
    5CHTO   C39 1961   5.044   4.166   4.955 -0.1362 -0.2616  0.0477
    5CHTO   H81 1962   5.068   4.264   4.998 -0.2751 -0.1314 -0.1692
    5CHTO    N7 1963   4.927   4.175   4.865 -0.3261  0.0669  0.2342
    5CHTO   H73 1964   4.862   4.254   4.898  0.7675  0.9448  0.3210
    5CHTO   H74 1965   4.867   4.085   4.857  2.3011 -1.7716  0.5737
    5CHTO   C40 1966   5.028   4.071   5.081  0.5072 -0.5232 -0.3617
    5CHTO   H82 1967   5.018   3.973   5.034  1.5901 -0.8318  0.0576
    5CHTO   O26 1968   5.139   4.084   5.157  0.0673 -0.0693 -0.4541
    5CHTO   C41 1969   5.250   4.015   5.089 -0.5685  0.4249  0.1835
    5CHTO   H83 1970   5.210   3.917   5.057 -1.2837 -0.0021  2.2244
    5CHTO   C52 1971   5.362   3.982   5.191  0.8032 -0.0643  0.2163
    5CHTO   O35 1972   5.313   3.922   5.323  0.2391 -0.2487  0.3139
    5CHTO   H71 1973   5.367   3.850   5.349 -0.2446 -0.4134  0.8779
    5CHTO   O28 1974   4.908   4.109   5.152 -0.3208  0.4744 -0.7256
    5CHTO   C42 1975   4.892   4.051   5.288  0.1824 -0.4870  0.0874
    5CHTO   H84 1976   4.784   4.065   5.299  0.2786 -0.2139  0.6756
    5CHTO   C44 1977   4.961   4.139   5.397  0.4295 -0.6980 -0.4088
    5CHTO   H86 1978   5.066   4.148   5.370  0.7043  0.1400  0.8958
    5CHTO   O32 1979   4.900   4.269   5.393  0.2023  0.0908 -0.4327
    5CHTO   H69 1980   4.955   4.335   5.430  2.0036 -1.0437 -1.0602
    5CHTO   C48 1981   4.956   4.069   5.539  0.4872  1.2147 -0.0594
    5CHTO   H90 1982   4.854   4.055   5.576  1.1279 -1.1033  0.9110
    5CHTO    N9 1983   5.015   4.153   5.643 -0.0465 -0.0048  0.1975
    5CHTO   H77 1984   4.983   4.255   5.623  0.1735  0.0611  0.1851
    5CHTO   H78 1985   4.980   4.124   5.740 -0.7782 -0.9159 -0.3291
    5CHTO   C51 1986   5.007   3.923   5.532  0.4671  0.1383  0.0129
    5CHTO   H93 1987   5.108   3.922   5.492  1.6107  1.0344  2.7702
    5CHTO   O30 1988   4.915   3.852   5.450  0.1973  0.2244 -0.0662
    5CHTO   C46 1989   4.917   3.896   5.296 -0.0998 -0.3449  0.5199
    5CHTO   H88 1990   5.011   3.869   5.246  1.4681  4.5341  0.6053
    5CHTO   C53 1991   4.802   3.812   5.231  0.3277 -0.7725  0.9374
    5CHTO   O72 1992   4.669   3.817   5.288 -0.7161 -0.6664  0.1298
    5CHTO  H199 1993   4.633   3.903   5.281  0.9744  0.0216 -0.5485
    5CHTO   O22 1994   5.000   3.842   5.655  0.4251 -0.1629  0.7029
    5CHTO   C31 1995   5.114   3.751   5.679 -0.9318  0.1606  0.4209
    5CHTO   H59 1996   5.087   3.691   5.769 -0.1347 -1.9251 -0.6845
    5CHTO   C29 1997   5.142   3.646   5.567  0.0343 -0.3804 -0.5139
    5CHTO   H57 1998   5.158   3.710   5.478  1.0059 -0.7251 -0.5884
    5CHTO   O21 1999   5.020   3.568   5.548 -0.1805 -0.4531  0.3406
    5CHTO   H37 2000   4.948   3.625   5.527 -0.1374 -1.0997 -1.6354
    5CHTO   C27 2001   5.278   3.567   5.590 -0.0966  0.1216 -0.7010
    5CHTO   H55 2002   5.259   3.494   5.670  0.3279  0.1522 -0.5697
    5CHTO    N5 2003   5.326   3.499   5.464 -0.4045  0.1738 -0.2415
    5CHTO   H43 2004   5.294   3.561   5.381 -2.4363 -0.1763  0.2449
    5CHTO   H44 2005   5.273   3.405   5.452 -2.0161  0.8343  1.4809
    5CHTO   C25 2006   5.388   3.672   5.628 -0.3650  0.4841 -0.5817
    5CHTO   H53 2007   5.392   3.740   5.541 -1.0391 -1.0751 -1.8609
    5CHTO   O17 2008   5.354   3.744   5.747 -0.2984 -0.4305  0.9636
    5CHTO   C32 2009   5.242   3.832   5.721 -0.0993 -0.4735 -0.0276
    5CHTO   H60 2010   5.267   3.898   5.638 -1.6196 -1.0867 -0.9906
    5CHTO   C36 2011   5.222   3.911   5.858  0.4390 -0.4074  0.2642
    5CHTO   O25 2012   5.169   3.845   5.975 -0.1552 -0.0466 -0.3214
    5CHTO   H40 2013   5.157   3.753   5.970  0.4984 -0.1492 -0.0788
    5CHTO   O15 2014   5.547   3.606   5.648  0.1596  0.0745  0.2358
    5CHTO   C19 2015   5.662   3.693   5.636 -0.4310  0.2521 -0.2735
    5CHTO   H47 2016   5.623   3.792   5.610 -0.7194  0.6633  1.6774
    5CHTO   C20 2017   5.749   3.715   5.765 -0.2804  0.1697  0.3629
    5CHTO   H48 2018   5.786   3.621   5.808  3.1828  0.8826 -0.8574
    5CHTO   O19 2019   5.663   3.769   5.868 -0.1707 -0.0339 -0.3214
    5CHTO   H35 2020   5.694   3.748   5.954 -0.9822 -2.3388 -0.5624
    5CHTO   C21 2021   5.869   3.811   5.740 -0.4382 -0.3816  0.1636
    5CHTO   H49 2022   5.832   3.912   5.719  0.9034  0.1513  0.2856
    5CHTO    N4 2023   5.959   3.826   5.859  0.0268  0.8475 -0.5022
    5CHTO   H41 2024   6.003   3.729   5.875  1.7535  1.2720 -2.4279
    5CHTO   H42 2025   6.035   3.896   5.826  2.9300 -1.6452  0.7299
    5CHTO   C22 2026   5.944   3.765   5.612 -0.1592  0.0553  0.0123
    5CHTO   H50 2027   5.999   3.674   5.638 -0.8387 -1.0394 -2.2392
    5CHTO   O14 2028   5.857   3.748   5.493 -0.1323  0.0784 -0.4374
    5CHTO   C23 2029   5.761   3.652   5.519  0.1802  0.3208  0.1576
    5CHTO   H51 2030   5.814   3.560   5.545 -0.0575  0.0910 -0.1693
    5CHTO   C34 2031   5.677   3.642   5.389  0.3623 -0.4251  0.9174
    5CHTO   O23 2032   5.746   3.563   5.289  0.3272 -0.1462 -0.2026
    5CHTO   H38 2033   5.814   3.617   5.253  0.2466 -0.3905 -0.7190
    5CHTO   O16 2034   6.034   3.865   5.572  0.3730  0.0416  0.4252
    5CHTO   C24 2035   6.170   3.805   5.491 -0.1554  0.0178 -0.6537
    5CHTO   H52 2036   6.175   3.696   5.487  0.5808  0.0493 -0.6254
    5CHTO   C26 2037   6.288   3.838   5.586  0.0401  0.9678 -0.0937
    5CHTO   H54 2038   6.272   3.942   5.622 -1.8527  1.3918 -2.0502
    5CHTO   O20 2039   6.286   3.756   5.708  0.1367  0.5624  0.0952
    5CHTO   H36 2040   6.203   3.744   5.749  2.1151 -1.6271  3.8024
    5CHTO   C30 2041   6.423   3.832   5.505  1.0277 -0.9443 -0.9086
    5CHTO   H58 2042   6.459   3.729   5.486  1.4133 -0.7791 -1.0963
    5CHTO    N6 2043   6.530   3.894   5.589 -0.4885 -0.1939  0.8772
    5CHTO   H45 2044   6.626   3.860   5.550 -1.2253 -0.3419 -0.8726
    5CHTO   H46 2045   6.524   4.001   5.597 -0.8770 -0.0041 -1.5704
    5CHTO   C33 2046   6.411   3.896   5.357  0.7639 -0.1826  0.1398
    5CHTO   H61 2047   6.389   4.003   5.368  1.9073 -0.1133  1.9874
    5CHTO   O18 2048   6.307   3.831   5.286 -0.2165 -0.2607  0.0180
    5CHTO   C28 2049   6.180   3.862   5.342 -0.4884 -0.2421 -0.2585
    5CHTO   H56 2050   6.157   3.968   5.338 -1.7123 -0.5384 -1.4867
    5CHTO   C35 2051   6.064   3.797   5.268  0.0165 -0.1799  0.7039
    5CHTO   O24 2052   6.058   3.821   5.120  0.1589 -0.1599  0.0274
    5CHTO   H39 2053   5.971   3.808   5.088  0.0095 -1.1031  0.7753
    5CHTO    O9 2054   6.534   3.892   5.286  0.1786  0.3174 -0.5730
    5CHTO   C13 2055   6.571   3.747   5.230 -0.2908  0.0245 -0.7050
    5CHTO   H26 2056   6.492   3.678   5.266  1.1415 -0.4674  1.5909
    5CHTO   C11 2057   6.711   3.707   5.286  0.8689 -0.3338  0.5828
    5CHTO   H24 2058   6.694   3.678   5.391 -0.7667  2.1347  1.0260
    5CHTO    O8 2059   6.811   3.811   5.291 -1.1446  0.1317  0.6358
    5CHTO    H3 2060   6.809   3.866   5.367 -1.4071 -0.1985  0.8716
    5CHTO    C9 2061   6.756   3.586   5.200 -0.9499 -0.1140  0.4719
    5CHTO   H22 2062   6.672   3.516   5.194  1.2178 -2.6593 -1.4190
    5CHTO    N2 2063   6.862   3.500   5.262 -0.2179 -0.1553 -0.3852
    5CHTO   H10 2064   6.814   3.440   5.338 -0.7437 -1.1814 -1.5069
    5CHTO   H11 2065   6.940   3.549   5.318 -0.8908 -0.4032  0.7899
    5CHTO    C7 2066   6.781   3.636   5.048 -0.1165  0.5932 -0.3971
    5CHTO   H20 2067   6.753   3.551   4.983  1.0066  0.4414 -0.6881
    5CHTO    O4 2068   6.700   3.747   5.014  0.0329 -0.2221 -0.0118
    5CHTO   C14 2069   6.570   3.752   5.070  0.5428 -0.4130  0.7474
    5CHTO   H27 2070   6.510   3.664   5.038 -0.9358  1.0365 -0.5707
    5CHTO   C18 2071   6.505   3.877   5.008 -1.0500 -0.1824  0.1403
    5CHTO   O13 2072   6.482   3.850   4.870 -0.2547  0.3641  0.1223
    5CHTO    H7 2073   6.560   3.868   4.821  0.5781  1.0589  1.6603
    5CHTO    O2 2074   6.920   3.681   5.022  0.4531 -0.0392 -0.5965
    5CHTO    C1 2075   6.960   3.669   4.881  0.2955 -0.1098  0.0530
    5CHTO   H14 2076   6.869   3.650   4.819 -3.3597  1.2575  4.6917
    5CHTO    C2 2077   7.066   3.555   4.869 -0.0433 -0.7982  0.3217
    5CHTO   H15 2078   7.138   3.566   4.952 -1.6016 -1.3342  1.7789
    5CHTO    O6 2079   6.996   3.429   4.907 -0.0732 -0.0790 -0.0596
    5CHTO    H1 2080   7.014   3.374   4.833 -1.7684  0.2795 -0.7559
    5CHTO    C3 2081   7.147   3.554   4.727  0.3106 -0.1743 -0.0898
    5CHTO   H16 2082   7.070   3.517   4.658 -1.6822  3.4207  0.0360
    5CHTO    N1 2083   7.265   3.462   4.734  0.4596 -0.5247  0.3071
    5CHTO    H8 2084   7.295   3.440   4.633 -1.9702  0.9655 -0.7800
    5CHTO    H9 2085   7.249   3.374   4.795  0.1857  0.3571  1.5318
    5CHTO    C4 2086   7.186   3.702   4.672  0.3672  0.4635 -0.4980
    5CHTO   H17 2087   7.278   3.735   4.720 -1.8947  3.8341  1.7311
    5CHTO    O1 2088   7.071   3.785   4.692 -0.2134 -0.1751 -0.0946
    5CHTO    C5 2089   7.032   3.795   4.833  0.3360 -0.0668 -0.0648
    5CHTO   H18 2090   7.122   3.820   4.890  2.0064 -2.5494 -1.4816
    5CHTO   C16 2091   6.934   3.917   4.835 -0.4120 -0.3095  0.1875
    5CHTO   O11 2092   6.836   3.905   4.736  0.2073 -0.1724 -0.6615
    5CHTO    H5 2093   6.791   3.987   4.742 -1.9483 -1.3478 -0.4329
    5CHTO    O3 2094   7.197   3.700   4.523 -0.1553 -0.0851 -0.0482
    5CHTO    C6 2095   7.304   3.783   4.468 -0.0931 -0.2459 -0.0914
    5CHTO   H19 2096   7.330   3.854   4.546  1.3368 -0.3231 -0.4829
    5CHTO    C8 2097   7.423   3.699   4.415  0.0182 -0.3876 -0.1398
    5CHTO   H21 2098   7.378   3.620   4.354 -0.1014 -0.1903 -0.3091
    5CHTO    O7 2099   7.485   3.644   4.530 -0.0003  0.1660 -0.2841
    5CHTO    H2 2100   7.531   3.706   4.583  2.4683 -1.8898  0.1367
    5CHTO   C12 2101   7.526   3.779   4.329 -0.5239  0.3235 -0.1584
    5CHTO   H25 2102   7.577   3.840   4.406 -0.7718  0.3947 -0.0527
    5CHTO    N3 2103   7.626   3.686   4.270 -0.1396 -0.3367 -0.2812
    5CHTO   H12 2104   7.590   3.651   4.175 -0.2254  2.7404 -1.4275
    5CHTO   H13 2105   7.632   3.597   4.331 -2.9039 -1.3844 -1.4399
    5CHTO   C15 2106   7.458   3.877   4.226 -0.2442  0.0389 -0.1061
    5CHTO   H28 2107   7.421   3.835   4.132  1.7484 -1.2038 -0.3539
    5CHTO   O10 2108   7.568   4.005   4.204 -0.0807 -0.0252 -0.0181
    5CHTO    H4 2109   7.574   4.053   4.123  2.0559  0.0935  0.1886
    5CHTO    O5 2110   7.346   3.952   4.286 -0.1891  0.0792  0.5205
    5CHTO   C10 2111   7.241   3.871   4.347  0.0259 -0.3903 -0.0228
    5CHTO   H23 2112   7.209   3.803   4.268 -0.5173  0.0981 -0.2293
    5CHTO   C17 2113   7.136   3.971   4.398  0.0743  0.9667 -0.1428
    5CHTO   O12 2114   7.007   3.909   4.433  0.1158 -0.0563 -0.3424
    5CHTO    H6 2115   6.975   3.839   4.380  1.0495 -1.0955  0.4422
    6CHTO  H203 2116   7.660   5.313   1.436  1.0878 -1.1066  1.1901
    6CHTO   O82 2117   7.576   5.301   1.476  0.1742  0.0443 -0.3125
    6CHTO  C123 2118   7.486   5.356   1.382 -0.5426 -0.5461  0.3707
    6CHTO  H227 2119   7.528   5.336   1.283 -1.7927 -0.2569 -0.2279
    6CHTO   O77 2120   7.359   5.282   1.399 -0.0327  0.4378 -0.2220
    6CHTO  C118 2121   7.252   5.315   1.319 -0.0133  0.4524  0.3463
    6CHTO  H222 2122   7.278   5.300   1.213  2.3179  2.6897  0.5772
    6CHTO  C125 2123   7.144   5.214   1.361 -0.2012  0.5940  0.0082
    6CHTO   O84 2124   7.174   5.082   1.307  0.1580  0.6867  0.1121
    6CHTO  H205 2125   7.265   5.058   1.317  0.1355 -0.1949 -1.6363
    6CHTO  C114 2126   7.215   5.458   1.351  0.0829  0.4850  0.2511
    6CHTO  H218 2127   7.180   5.464   1.454 -1.9160 -0.4806 -0.3547
    6CHTO  C116 2128   7.327   5.559   1.332  0.5283  0.8223 -0.6130
    6CHTO  H220 2129   7.338   5.571   1.222 -1.0200 -1.5961 -1.0760
    6CHTO   O79 2130   7.278   5.677   1.394  0.0884 -0.5026 -0.1638
    6CHTO  H201 2131   7.342   5.746   1.396 -1.4008  0.9179 -0.3052
    6CHTO  C120 2132   7.459   5.516   1.405 -0.5235 -0.1228 -0.3520
    6CHTO  H224 2133   7.455   5.537   1.514  0.6761 -1.5411 -0.0149
    6CHTO   N21 2134   7.578   5.596   1.364  0.4187 -0.0975 -0.8254
    6CHTO  H211 2135   7.583   5.685   1.426 -0.2713  0.2834 -1.3156
    6CHTO  H212 2136   7.560   5.616   1.260  1.3546 -0.1045 -0.9909
    6CHTO   O75 2137   7.104   5.480   1.257 -0.0265  0.4126  0.2417
    6CHTO  C112 2138   6.934   5.454   1.300 -0.0745 -0.3440  0.3135
    6CHTO  H216 2139   6.931   5.446   1.410  0.7267 -1.0708  0.2858
    6CHTO   O73 2140   6.885   5.336   1.234  0.1113  0.1398 -0.1095
    6CHTO  C113 2141   6.748   5.313   1.253  0.0937  0.4988 -0.8284
    6CHTO  H217 2142   6.730   5.289   1.360 -0.1056 -0.7079 -1.1192
    6CHTO  C124 2143   6.723   5.175   1.193  0.0423 -1.5618 -0.7107
    6CHTO   O83 2144   6.801   5.067   1.244 -0.4386  1.0520 -0.7911
    6CHTO  H204 2145   6.797   4.994   1.186  2.9250  1.7989 -2.0955
    6CHTO  C109 2146   6.666   5.424   1.177  0.5502  0.0367 -0.7182
    6CHTO  H213 2147   6.702   5.425   1.073 -1.0333 -0.7979 -1.2914
    6CHTO  C110 2148   6.699   5.563   1.246 -0.2946  0.1352  0.1369
    6CHTO  H214 2149   6.664   5.559   1.349 -0.9076 -0.6808 -0.0994
    6CHTO   O78 2150   6.628   5.666   1.170  0.0006  0.1745 -0.0600
    6CHTO  H200 2151   6.535   5.659   1.175  0.0149 -0.1424 -0.2040
    6CHTO  C111 2152   6.853   5.586   1.240 -0.4295  0.1649 -0.7341
    6CHTO  H215 2153   6.881   5.600   1.134 -2.4414 -0.6597 -1.4067
    6CHTO   N19 2154   6.892   5.708   1.317  0.7089 -0.5588  0.3981
    6CHTO  H207 2155   6.818   5.783   1.298  2.2534  0.6665 -0.9761
    6CHTO  H208 2156   6.928   5.682   1.416  1.5253  0.3899  0.3542
    6CHTO   O74 2157   6.523   5.392   1.176  0.1474 -0.6363 -0.0996
    6CHTO  C115 2158   6.411   5.450   1.301  0.0908  0.7079  0.4415
    6CHTO  H219 2159   6.462   5.501   1.382 -0.2506  1.5959  0.1089
    6CHTO   O76 2160   6.320   5.556   1.243 -0.2599  0.0261  0.7700
    6CHTO  C122 2161   6.212   5.603   1.327 -0.4974  0.5928  0.3006
    6CHTO  H226 2162   6.146   5.661   1.263 -0.0896  1.0073  0.2548
    6CHTO  C126 2163   6.264   5.708   1.445  0.2547  0.2764  0.0101
    6CHTO   O85 2164   6.274   5.841   1.400 -0.1988 -0.4378 -0.1480
    6CHTO  H206 2165   6.190   5.883   1.391 -0.8508 -1.6656  0.1021
    6CHTO  C121 2166   6.124   5.486   1.381  0.3341  0.7129  0.7661
    6CHTO  H225 2167   6.061   5.542   1.453  0.3814 -1.7298  2.7566
    6CHTO   O81 2168   6.040   5.437   1.271 -0.0595  0.4244 -0.0110
    6CHTO  H202 2169   5.951   5.419   1.295  0.0584  1.3603  1.1612
    6CHTO  C119 2170   6.206   5.377   1.451  0.7212 -0.1434 -0.7174
    6CHTO  H223 2171   6.247   5.420   1.542  1.9046 -0.0531 -1.2850
    6CHTO  C117 2172   6.325   5.328   1.359 -0.9086  0.4697  0.4849
    6CHTO  H221 2173   6.289   5.277   1.270  0.8980 -0.1461  0.0885
    6CHTO   N20 2174   6.408   5.227   1.431 -0.1488  0.7334 -0.7019
    6CHTO  H209 2175   6.498   5.210   1.374 -1.6379 -2.8183 -2.1172
    6CHTO  H210 2176   6.345   5.143   1.456  0.2452  0.5835 -0.1941
    6CHTO   O80 2177   6.116   5.267   1.513 -0.2540  0.6942 -0.1612
    6CHTO  C103 2178   6.081   5.262   1.656  0.8730  0.5309  0.2831
    6CHTO  H190 2179   6.173   5.281   1.711 -0.2870  2.9901  1.4815
    6CHTO  C101 2180   5.970   5.373   1.704 -0.1688  0.2192  0.8205
    6CHTO  H188 2181   5.890   5.380   1.630 -0.3951  0.2535  1.0628
    6CHTO   O68 2182   6.044   5.496   1.709 -0.0973  0.0868 -0.4827
    6CHTO  H168 2183   6.123   5.491   1.759 -1.0247 -0.9040  0.9248
    6CHTO   C99 2184   5.904   5.329   1.851 -0.3730  0.3373  0.0009
    6CHTO  H186 2185   5.977   5.334   1.935 -2.2428  0.8697  1.6242
    6CHTO   N17 2186   5.794   5.417   1.901 -0.0021 -0.7391  0.0908
    6CHTO  H174 2187   5.834   5.517   1.911  2.2807 -1.5519 -0.6219
    6CHTO  H175 2188   5.714   5.421   1.827  0.7668  1.2025 -0.6799
    6CHTO   C97 2189   5.860   5.179   1.833 -0.3095 -0.2162  0.1290
    6CHTO  H184 2190   5.788   5.174   1.750  0.4319 -2.1801 -0.4165
    6CHTO   O64 2191   5.975   5.098   1.812  0.3358  0.0664  0.1746
    6CHTO  C104 2192   6.028   5.110   1.678  0.0326  0.5428 -0.0722
    6CHTO  H191 2193   5.942   5.091   1.614 -0.6895  1.7277  0.5280
    6CHTO  C108 2194   6.132   4.997   1.652  0.0475  0.7285  0.2944
    6CHTO   O71 2195   6.067   4.868   1.662  0.2326 -0.8160 -0.1933
    6CHTO  H171 2196   6.095   4.800   1.602  0.4751 -1.5167  0.7053
    6CHTO   O62 2197   5.802   5.126   1.953 -0.5198  0.2151 -0.4730
    6CHTO   C91 2198   5.719   5.012   1.932 -0.2477  0.4624  0.0226
    6CHTO  H178 2199   5.737   4.965   1.836  1.5137  0.6548  0.2409
    6CHTO   C92 2200   5.564   5.052   1.941 -0.2775  0.3326  0.1286
    6CHTO  H179 2201   5.551   5.142   1.877  0.4894 -0.1435 -0.7165
    6CHTO   O66 2202   5.478   4.960   1.864  0.1130  0.2087 -0.2188
    6CHTO  H166 2203   5.500   4.932   1.777  1.5203  0.8877 -0.1041
    6CHTO   C93 2204   5.505   5.062   2.086 -0.4081  0.2004 -0.3354
    6CHTO  H180 2205   5.397   5.075   2.068 -0.5707 -0.0617  0.4411
    6CHTO   N16 2206   5.547   5.178   2.172 -0.0440 -0.1554  0.1154
    6CHTO  H172 2207   5.563   5.155   2.276  0.7830  0.9033  0.2317
    6CHTO  H173 2208   5.474   5.258   2.179  1.3411  0.9239  2.8581
    6CHTO   C94 2209   5.525   4.926   2.166 -0.1298 -0.0185 -0.2714
    6CHTO  H181 2210   5.558   4.939   2.269 -0.2496 -0.6433 -0.1525
    6CHTO   O61 2211   5.623   4.843   2.103 -0.6159  0.2666  0.1244
    6CHTO   C95 2212   5.741   4.900   2.044 -0.4427  0.1072  0.3495
    6CHTO  H182 2213   5.805   4.943   2.122 -0.8728  2.9863 -0.8358
    6CHTO  C106 2214   5.812   4.771   1.979  0.8899  0.0575 -0.0460
    6CHTO   O69 2215   5.932   4.792   1.909  0.6849 -0.1056 -1.2654
    6CHTO  H169 2216   6.002   4.743   1.948  0.2782 -0.4256 -0.9317
    6CHTO   O63 2217   5.377   4.852   2.165  0.3089  0.0617 -0.6510
    6CHTO   C96 2218   5.366   4.687   2.177 -0.1249 -0.4335 -0.1707
    6CHTO  H183 2219   5.468   4.657   2.199 -0.6661 -1.6871  0.6844
    6CHTO   C98 2220   5.310   4.620   2.057  0.2394 -0.1089 -0.8043
    6CHTO  H185 2221   5.213   4.656   2.020 -1.6057 -2.8369  1.2243
    6CHTO   O67 2222   5.405   4.640   1.947 -0.1217 -0.5485  0.2789
    6CHTO  H167 2223   5.357   4.675   1.874 -0.0796  0.0623  0.5423
    6CHTO  C102 2224   5.303   4.456   2.077  0.3457  0.3991  0.3862
    6CHTO  H189 2225   5.403   4.418   2.055 -0.4996 -1.6051 -0.1102
    6CHTO   N18 2226   5.214   4.397   1.975 -0.4753 -0.0958 -0.2052
    6CHTO  H176 2227   5.214   4.292   1.999  4.5498 -0.4560 -1.3122
    6CHTO  H177 2228   5.268   4.407   1.883 -0.0095 -0.7278 -0.0019
    6CHTO  C105 2229   5.268   4.415   2.224 -0.4795  0.0449 -0.0759
    6CHTO  H192 2230   5.194   4.335   2.233  0.0091 -0.5555 -1.3119
    6CHTO   O65 2231   5.209   4.530   2.297 -0.2983 -0.1985 -0.1340
    6CHTO  C100 2232   5.278   4.657   2.304  0.2398 -0.1282  0.9834
    6CHTO  H187 2233   5.193   4.724   2.325  1.0862  0.9764  0.9116
    6CHTO  C107 2234   5.372   4.654   2.429 -0.7722 -0.7266 -0.2988
    6CHTO   O70 2235   5.288   4.638   2.544  0.2795  0.4622 -0.3467
    6CHTO  H170 2236   5.334   4.674   2.618 -1.1957  0.3250  0.6617
    6CHTO   O57 2237   5.410   4.369   2.288  0.3317  0.2099 -0.1252
    6CHTO   C85 2238   5.463   4.237   2.284 -0.6664  0.3943 -0.2364
    6CHTO  H157 2239   5.429   4.185   2.192 -0.6228 -0.3772  0.1855
    6CHTO   C83 2240   5.400   4.152   2.390 -0.2299  0.2533  0.0376
    6CHTO  H155 2241   5.304   4.124   2.346 -0.4324  1.7652 -0.5124
    6CHTO   O56 2242   5.372   4.226   2.510 -0.1337  0.3074 -0.5980
    6CHTO  H135 2243   5.317   4.300   2.493  0.9208  1.6986  1.8654
    6CHTO   C81 2244   5.478   4.014   2.412 -0.5181  0.7197  0.3119
    6CHTO  H153 2245   5.468   3.956   2.320  3.5232 -2.0328  1.4850
    6CHTO   N14 2246   5.421   3.916   2.514  0.4791 -0.0198  0.3466
    6CHTO  H141 2247   5.500   3.893   2.582  1.1265 -0.1921 -0.4514
    6CHTO  H142 2248   5.349   3.972   2.569  0.1267  0.4987 -0.6210
    6CHTO   C79 2249   5.632   4.049   2.436  0.5846  0.5092  0.3718
    6CHTO  H151 2250   5.687   3.954   2.440  1.2409  0.7909 -1.4485
    6CHTO   O52 2251   5.681   4.121   2.324 -0.3842  0.1371 -0.1369
    6CHTO   C86 2252   5.625   4.252   2.295  0.4785  0.0579 -0.0006
    6CHTO  H158 2253   5.660   4.320   2.376  1.1388  0.0740 -0.2928
    6CHTO   C90 2254   5.682   4.305   2.167  0.1479 -0.3415  0.0175
    6CHTO   O60 2255   5.668   4.451   2.160 -0.4245 -0.0965 -0.1761
    6CHTO  H138 2256   5.575   4.462   2.169 -0.5106 -1.8422  1.2997
    6CHTO   O50 2257   5.660   4.122   2.555  0.2682  0.1276 -0.1574
    6CHTO   C73 2258   5.748   4.176   2.650  0.2428  0.4834 -0.1179
    6CHTO  H145 2259   5.784   4.085   2.701 -3.3244 -0.9809 -0.1225
    6CHTO   C74 2260   5.664   4.267   2.746  0.8056 -1.1329  0.1155
    6CHTO  H146 2261   5.578   4.205   2.778  1.6155 -2.8926 -1.0444
    6CHTO   O54 2262   5.735   4.292   2.867  0.2638 -0.3436 -0.6897
    6CHTO  H133 2263   5.823   4.315   2.846 -0.2577  0.5014 -1.9882
    6CHTO   C75 2264   5.623   4.395   2.661 -0.2943 -0.3657  0.2757
    6CHTO  H147 2265   5.576   4.364   2.567  0.2891 -0.4824  0.0215
    6CHTO   N13 2266   5.531   4.487   2.731 -0.0696  0.3893 -0.0729
    6CHTO  H139 2267   5.579   4.542   2.811 -2.2464  1.2355  0.6693
    6CHTO  H140 2268   5.487   4.556   2.660  0.3208  0.7098 -0.0072
    6CHTO   C76 2269   5.763   4.469   2.613 -0.3580  0.2762  0.1772
    6CHTO  H148 2270   5.811   4.509   2.701 -0.2990 -0.0057  0.2731
    6CHTO   O49 2271   5.849   4.375   2.527  0.7386 -0.0274 -0.2551
    6CHTO   C77 2272   5.876   4.254   2.595  0.1568 -0.4039  0.0218
    6CHTO  H149 2273   5.943   4.282   2.677  0.8862 -1.2418 -0.2834
    6CHTO   C88 2274   5.955   4.160   2.503 -0.0904  0.2755  0.6132
    6CHTO   O58 2275   6.091   4.217   2.462 -0.4514  0.3501 -0.6063
    6CHTO  H136 2276   6.132   4.150   2.412 -2.2783 -0.5088 -0.9779
    6CHTO   O51 2277   5.725   4.599   2.508 -0.2579  0.2812 -0.0770
    6CHTO   C78 2278   5.834   4.729   2.513 -0.8620 -0.4166  0.0957
    6CHTO  H150 2279   5.914   4.701   2.585  1.0655 -0.8957 -2.1585
    6CHTO   C80 2280   5.762   4.858   2.553 -0.5431 -0.4191 -0.3614
    6CHTO  H152 2281   5.679   4.877   2.482  0.0530 -0.1977 -1.0025
    6CHTO   O55 2282   5.682   4.840   2.672 -0.2355 -0.4190  0.0731
    6CHTO  H134 2283   5.596   4.874   2.663 -0.1620 -0.8196 -2.3452
    6CHTO   C84 2284   5.866   4.976   2.560 -0.3244  0.9740 -0.2306
    6CHTO  H156 2285   5.940   4.961   2.639 -1.0397 -0.8107  0.1235
    6CHTO   N15 2286   5.807   5.106   2.603  0.1516  0.4073 -0.6773
    6CHTO  H143 2287   5.882   5.169   2.645  0.6476 -0.8533  0.3722
    6CHTO  H144 2288   5.737   5.086   2.681  0.6525  1.9637  0.1776
    6CHTO   C87 2289   5.945   4.995   2.428 -0.3529 -0.3206  0.4700
    6CHTO  H159 2290   5.887   5.043   2.349 -2.5698 -0.2590  2.0686
    6CHTO   O53 2291   5.999   4.842   2.377 -0.5215 -0.4746  0.3174
    6CHTO   C82 2292   5.902   4.738   2.377  0.6010  0.6846  0.5138
    6CHTO  H154 2293   5.829   4.745   2.297  0.0471 -0.8528  0.8521
    6CHTO   C89 2294   5.983   4.606   2.358 -0.0458 -0.0075 -0.5214
    6CHTO   O59 2295   6.063   4.596   2.238 -0.1526 -0.4292 -0.0205
    6CHTO  H137 2296   6.146   4.556   2.253  0.7742  1.1673 -0.8287
    6CHTO   O45 2297   6.069   5.079   2.459  0.1844 -0.0061  0.4630
    6CHTO   C67 2298   6.155   5.109   2.345 -0.8412  0.0842  0.2082
    6CHTO  H124 2299   6.170   5.019   2.285  2.4520  0.5745  0.1960
    6CHTO   C65 2300   6.105   5.220   2.257  0.1901  0.2559  0.0309
    6CHTO  H122 2301   6.012   5.249   2.305 -0.1297 -1.6041  0.5823
    6CHTO   O44 2302   6.083   5.169   2.120  0.1448  0.7858 -0.4167
    6CHTO  H102 2303   6.159   5.175   2.065  1.1039  1.7173  0.9850
    6CHTO   C63 2304   6.189   5.352   2.264 -0.0778  0.1294 -0.3929
    6CHTO  H120 2305   6.181   5.385   2.368  0.3874 -1.0483  0.0321
    6CHTO   N11 2306   6.144   5.467   2.187  0.0742  0.5460 -0.9180
    6CHTO  H108 2307   6.054   5.499   2.235  0.3164 -1.4966  0.9465
    6CHTO  H109 2308   6.134   5.435   2.085  3.6591  0.9624 -1.4879
    6CHTO   C61 2309   6.343   5.309   2.241 -0.2155 -0.5769  0.0595
    6CHTO  H118 2310   6.401   5.400   2.261 -1.7945  0.9494 -2.0977
    6CHTO   O40 2311   6.396   5.212   2.331 -0.2050 -0.5741 -0.1761
    6CHTO   C68 2312   6.294   5.139   2.411  0.2238 -0.2405 -0.1548
    6CHTO  H125 2313   6.279   5.212   2.494 -2.2495  0.3160 -1.0644
    6CHTO   C72 2314   6.348   5.010   2.471 -0.1183 -0.2314 -0.4569
    6CHTO   O48 2315   6.412   4.920   2.382 -0.0481  0.2521  0.2709
    6CHTO  H105 2316   6.460   4.973   2.320 -0.1135 -0.9341 -0.8269
    6CHTO   O38 2317   6.372   5.256   2.108 -0.9028  0.4194  0.5515
    6CHTO   C55 2318   6.494   5.309   2.056 -0.9991 -0.0202  0.0207
    6CHTO  H112 2319   6.553   5.369   2.127 -0.8264  0.0738 -0.2008
    6CHTO   C56 2320   6.460   5.395   1.923 -0.8358 -0.4658 -0.1539
    6CHTO  H113 2321   6.387   5.339   1.862  0.3763 -2.3210  0.0832
    6CHTO   O42 2322   6.391   5.514   1.962  0.4592  0.2492  0.3111
    6CHTO  H100 2323   6.361   5.567   1.891  1.2236  2.4785  1.6007
    6CHTO   C57 2324   6.594   5.426   1.845 -0.3920  0.0794  0.3467
    6CHTO  H114 2325   6.646   5.497   1.909  1.7261 -0.8696 -0.2869
    6CHTO   N10 2326   6.567   5.495   1.712  0.6170 -0.5474  0.1894
    6CHTO  H106 2327   6.476   5.476   1.658  1.7992  1.8750 -2.8310
    6CHTO  H107 2328   6.573   5.601   1.732 -0.6233 -0.5064  0.3494
    6CHTO   C58 2329   6.671   5.296   1.831 -0.0910  0.4212 -0.1622
    6CHTO  H115 2330   6.612   5.225   1.770  1.1194 -0.8193  0.0726
    6CHTO   O37 2331   6.700   5.227   1.953  0.0577 -0.3024  0.1587
    6CHTO   C59 2332   6.586   5.191   2.025  0.4288 -0.4709 -0.5020
    6CHTO  H116 2333   6.538   5.112   1.967 -0.0983  1.4424 -2.7340
    6CHTO   C70 2334   6.629   5.136   2.161 -0.6021 -0.1139 -0.1883
    6CHTO   O46 2335   6.754   5.066   2.161  0.2578 -0.1232 -0.3977
    6CHTO  H103 2336   6.787   5.060   2.248 -0.0681  4.4925  0.1986
    6CHTO   O39 2337   6.827   5.324   1.765 -0.3443 -0.1136  0.0710
    6CHTO   C60 2338   6.914   5.205   1.771  0.3412 -0.3232 -0.4834
    6CHTO  H117 2339   6.920   5.197   1.879 -2.6906  0.8399 -0.1956
    6CHTO   C62 2340   6.853   5.079   1.705 -0.0056  0.0632 -0.4076
    6CHTO  H119 2341   6.763   5.052   1.764  0.6150 -0.3969  0.3300
    6CHTO   O43 2342   6.828   5.093   1.565  0.0480  0.6292 -0.2882
    6CHTO  H101 2343   6.739   5.115   1.545 -0.1478 -1.0680 -1.3615
    6CHTO   C66 2344   6.954   4.954   1.730 -0.1615  0.0454  0.5796
    6CHTO  H123 2345   6.963   4.940   1.838  0.1194 -1.9037  0.3127
    6CHTO   N12 2346   6.898   4.822   1.684  0.4278 -0.1806 -0.0104
    6CHTO  H110 2347   6.842   4.775   1.763  0.8795 -2.8671 -1.2444
    6CHTO  H111 2348   6.974   4.755   1.647  1.3067  1.5729 -1.4758
    6CHTO   C69 2349   7.091   4.982   1.664  0.2233 -0.5871  0.3117
    6CHTO  H126 2350   7.077   4.990   1.554  1.2520  0.9234  0.2924
    6CHTO   O41 2351   7.147   5.116   1.721  0.2944  0.6043 -0.7402
    6CHTO   C64 2352   7.056   5.234   1.716  0.1107  1.0908 -0.7535
    6CHTO  H121 2353   7.049   5.266   1.610  4.2309 -0.9375 -1.7328
    6CHTO   C71 2354   7.120   5.347   1.802 -0.2547  0.5279 -0.6563
    6CHTO   O47 2355   7.061   5.473   1.762 -0.3937 -0.2798 -0.4307
    6CHTO  H104 2356   7.003   5.463   1.689 -1.5140  1.8847  0.1206
    6CHTO   O34 2357   7.193   4.882   1.686  0.5060  0.1357 -0.0560
    6CHTO   C49 2358   7.317   4.840   1.618  0.1986  0.3278  0.4724
    6CHTO   H91 2359   7.293   4.797   1.521  1.7560  0.3917  0.0585
    6CHTO   C47 2360   7.383   4.729   1.693  0.1176  0.0620  0.9605
    6CHTO   H89 2361   7.464   4.691   1.628  0.2847  2.0441 -0.0265
    6CHTO   O33 2362   7.289   4.618   1.718  0.0320 -0.0636 -0.1993
    6CHTO   H70 2363   7.201   4.652   1.721  0.2982  0.5524  1.2610
    6CHTO   C45 2364   7.453   4.787   1.835  0.1462  0.5603  0.3315
    6CHTO   H87 2365   7.375   4.782   1.913 -0.5413  1.4783 -0.2914
    6CHTO    N8 2366   7.569   4.696   1.881 -0.0159 -0.0876  0.3590
    6CHTO   H75 2367   7.665   4.737   1.854  0.3897 -1.3349 -0.1235
    6CHTO   H76 2368   7.553   4.597   1.841 -1.5249 -0.8127  2.6370
    6CHTO   C43 2369   7.489   4.944   1.815 -0.2797  0.7820 -0.1426
    6CHTO   H85 2370   7.398   4.998   1.842 -2.0706 -2.2923  0.2571
    6CHTO   O29 2371   7.537   4.967   1.680 -0.0043  0.6087 -0.1454
    6CHTO   C50 2372   7.422   4.952   1.594 -0.5787  0.2475 -0.1303
    6CHTO   H92 2373   7.369   5.049   1.602  0.2598  0.7744 -0.8807
    6CHTO   C54 2374   7.464   4.949   1.440 -0.2237  0.4458 -0.3425
    6CHTO   O36 2375   7.536   4.827   1.431 -0.1314 -0.6768  0.3367
    6CHTO   H72 2376   7.505   4.778   1.358 -0.7575  0.3605 -0.1078
    6CHTO   O27 2377   7.591   4.991   1.914 -0.3976 -0.1608 -0.2618
    6CHTO   C37 2378   7.637   5.119   1.955 -0.3910  0.6813 -0.0685
    6CHTO   H79 2379   7.723   5.153   1.896  0.4272 -0.0561  0.7016
    6CHTO   C38 2380   7.526   5.226   1.949  0.2472 -0.0029 -0.5425
    6CHTO   H80 2381   7.435   5.184   1.993 -0.5955  0.9518 -1.3491
    6CHTO   O31 2382   7.497   5.250   1.811  0.2171 -0.0482  0.3607
    6CHTO   H68 2383   7.566   5.232   1.750 -0.2577  0.4806 -0.3494
    6CHTO   C39 2384   7.563   5.362   2.021 -0.1760  0.4890  0.2517
    6CHTO   H81 2385   7.635   5.418   1.961  0.1500  0.1374  0.3056
    6CHTO    N7 2386   7.456   5.467   2.042 -0.1861 -0.1929  0.3225
    6CHTO   H73 2387   7.472   5.516   2.137 -1.1103 -1.0018  0.8995
    6CHTO   H74 2388   7.360   5.422   2.025  0.4221 -0.5264 -2.5215
    6CHTO   C40 2389   7.628   5.332   2.154 -0.6717  0.1653  0.1761
    6CHTO   H82 2390   7.562   5.321   2.241 -0.5055 -0.2618  0.2496
    6CHTO   O26 2391   7.729   5.228   2.147 -0.1217 -0.2783  0.0767
    6CHTO   C41 2392   7.679   5.104   2.097  0.2546  0.7723 -0.5469
    6CHTO   H83 2393   7.596   5.081   2.165  2.3388 -0.1945  1.7407
    6CHTO   C52 2394   7.789   5.001   2.113  0.8236  0.3952 -0.3267
    6CHTO   O35 2395   7.794   4.949   2.255 -0.4961  0.6024  0.3748
    6CHTO   H71 2396   7.850   5.004   2.307  2.1218 -0.1887 -1.4832
    6CHTO   O28 2397   7.722   5.437   2.192 -0.1745 -0.0076  0.4744
    6CHTO   C42 2398   7.729   5.492   2.331  0.0043 -0.0515  0.2282
    6CHTO   H84 2399   7.831   5.530   2.334  0.0421 -0.1660  0.4020
    6CHTO   C44 2400   7.712   5.396   2.453 -0.4420 -0.4210  0.2886
    6CHTO   H86 2401   7.628   5.328   2.438  0.9697 -2.7974  2.6494
    6CHTO   O32 2402   7.821   5.303   2.447  0.1599 -0.3236 -0.3869
    6CHTO   H69 2403   7.868   5.309   2.528 -2.0662  0.1029  0.9049
    6CHTO   C48 2404   7.699   5.468   2.593  0.5350 -0.0217 -0.3311
    6CHTO   H90 2405   7.793   5.515   2.622  0.6284  0.7604 -1.8418
    6CHTO    N9 2406   7.673   5.368   2.702 -0.1714  0.3275  0.8715
    6CHTO   H77 2407   7.762   5.308   2.715  0.0005  0.0726 -1.2298
    6CHTO   H78 2408   7.585   5.312   2.674  0.2797  0.3915 -0.7462
    6CHTO   C51 2409   7.592   5.584   2.589 -0.3769  0.0875  0.4357
    6CHTO   H93 2410   7.497   5.543   2.557  0.4483 -1.2194 -0.3915
    6CHTO   O30 2411   7.640   5.674   2.491  0.7044 -0.1193 -0.6585
    6CHTO   C46 2412   7.635   5.618   2.347  0.0014  0.0142  0.5653
    6CHTO   H88 2413   7.531   5.600   2.321  0.0207  1.5190 -0.6008
    6CHTO   C53 2414   7.690   5.717   2.239 -0.0175  0.1079 -0.4263
    6CHTO   O72 2415   7.624   5.832   2.222  0.7464  0.2354  0.5508
    6CHTO  H199 2416   7.548   5.811   2.172  1.6377 -0.7136 -0.4313
    6CHTO   O22 2417   7.572   5.648   2.721  0.1450  0.1472 -0.5523
    6CHTO   C31 2418   7.474   5.755   2.740 -0.0354  0.3186  0.4499
    6CHTO   H59 2419   7.496   5.796   2.841 -1.8592 -0.4071  1.1625
    6CHTO   C29 2420   7.473   5.873   2.639 -0.6673  0.6315 -0.2471
    6CHTO   H57 2421   7.462   5.824   2.541 -1.3034 -1.2759  0.7688
    6CHTO   O21 2422   7.607   5.929   2.646  0.1979  0.1171  0.1026
    6CHTO   H37 2423   7.615   6.004   2.589 -1.0535 -1.0410 -1.6729
    6CHTO   C27 2424   7.357   5.986   2.658 -0.0406  0.2157 -0.4940
    6CHTO   H55 2425   7.378   6.040   2.752  0.5207 -0.3638 -0.2848
    6CHTO    N5 2426   7.346   6.087   2.550  0.1754 -0.5369 -0.7551
    6CHTO   H43 2427   7.329   6.190   2.577 -1.6989 -0.8672 -0.6191
    6CHTO   H44 2428   7.326   6.050   2.451 -0.6888  1.6125 -1.4263
    6CHTO   C25 2429   7.213   5.912   2.679 -0.3320 -0.3706 -0.6131
    6CHTO   H53 2430   7.180   5.890   2.577  2.2334  0.7149 -1.7124
    6CHTO   O17 2431   7.226   5.796   2.768 -0.0272 -0.3909  0.2883
    6CHTO   C32 2432   7.329   5.698   2.746  0.2660 -0.6732  0.4543
    6CHTO   H60 2433   7.304   5.654   2.649  2.2303 -0.4691 -0.1601
    6CHTO   C36 2434   7.312   5.580   2.851 -0.3834  0.2656  0.1756
    6CHTO   O25 2435   7.194   5.507   2.838  0.4439 -0.1552  0.1635
    6CHTO   H40 2436   7.210   5.435   2.780 -2.3357 -0.9894  0.3994
    6CHTO   O15 2437   7.107   6.030   2.730 -0.3753 -0.3470 -0.0203
    6CHTO   C19 2438   6.981   6.022   2.803  0.7905 -0.4257  0.0262
    6CHTO   H47 2439   6.910   6.055   2.725 -3.0504 -2.9996  2.2470
    6CHTO   C20 2440   6.941   5.880   2.854  0.3257  0.3566 -0.3281
    6CHTO   H48 2441   7.016   5.839   2.924  1.9318  0.1141 -2.1429
    6CHTO   O19 2442   6.927   5.780   2.749 -0.1409 -0.1933  0.1091
    6CHTO   H35 2443   6.891   5.825   2.674  0.9732  2.4001  1.0686
    6CHTO   C21 2444   6.803   5.883   2.936 -0.7098 -0.4408  0.6913
    6CHTO   H49 2445   6.722   5.896   2.864  0.4751  0.0438 -0.5708
    6CHTO    N4 2446   6.764   5.758   3.009 -0.2057 -0.3638 -0.1134
    6CHTO   H41 2447   6.822   5.678   2.965 -0.8511 -1.1775  0.4893
    6CHTO   H42 2448   6.661   5.735   2.987 -0.0716  0.2857 -1.4887
    6CHTO   C22 2449   6.798   6.003   3.033  0.1913 -0.2269 -0.6132
    6CHTO   H50 2450   6.863   5.984   3.118  0.8799  0.3931 -0.9891
    6CHTO   O14 2451   6.839   6.127   2.971 -0.2575 -0.2887 -0.2880
    6CHTO   C23 2452   6.977   6.119   2.923  0.4640  0.1050  0.8173
    6CHTO   H51 2453   7.034   6.083   3.010  0.0647 -3.4145 -0.2882
    6CHTO   C34 2454   7.033   6.259   2.889  0.2238  0.1804 -0.1814
    6CHTO   O23 2455   7.034   6.351   2.994  0.1731  0.0104  0.2345
    6CHTO   H38 2456   7.083   6.305   3.060  0.2944 -0.8704 -0.4519
    6CHTO   O16 2457   6.655   6.019   3.074  0.1179  0.2366  0.0976
    6CHTO   C24 2458   6.629   6.145   3.193  0.0105 -0.9968  0.5442
    6CHTO   H52 2459   6.679   6.237   3.165  0.1102 -0.8449  1.2067
    6CHTO   C26 2460   6.676   6.105   3.335  0.1080 -0.3607 -0.2930
    6CHTO   H54 2461   6.635   6.005   3.362 -0.0345 -0.4952 -1.0135
    6CHTO   O20 2462   6.818   6.088   3.335  0.1949 -0.1838 -0.2304
    6CHTO   H36 2463   6.851   6.168   3.301 -2.8730  1.0281 -0.4656
    6CHTO   C30 2464   6.634   6.200   3.449  0.4332 -0.6603 -0.5329
    6CHTO   H58 2465   6.696   6.291   3.443 -0.9847  0.3373 -0.2731
    6CHTO    N6 2466   6.671   6.145   3.583  0.1498 -0.4537  0.9653
    6CHTO   H45 2467   6.605   6.064   3.609 -3.9712  2.2336 -0.4296
    6CHTO   H46 2468   6.772   6.108   3.570 -0.0722 -0.3112 -1.5561
    6CHTO   C33 2469   6.486   6.236   3.430  0.0116  0.1489  0.0622
    6CHTO   H61 2470   6.420   6.149   3.442  0.1804  0.3554  2.8016
    6CHTO   O18 2471   6.479   6.288   3.293 -0.1161  0.3237 -0.1243
    6CHTO   C28 2472   6.476   6.179   3.198 -0.8727  0.3321 -0.4034
    6CHTO   H56 2473   6.416   6.093   3.228 -1.1256  0.7591  0.3390
    6CHTO   C35 2474   6.417   6.244   3.073  0.7482  0.6319 -0.0135
    6CHTO   O24 2475   6.382   6.139   2.979  0.1948  0.1529 -0.2009
    6CHTO   H39 2476   6.346   6.069   3.029 -0.2222 -0.3037 -1.1278
    6CHTO    O9 2477   6.437   6.333   3.528  0.2979  0.0717  0.2779
    6CHTO   C13 2478   6.305   6.283   3.599  0.6422  0.2722  0.5950
    6CHTO   H26 2479   6.312   6.172   3.600 -0.9433  0.1292 -1.6431
    6CHTO   C11 2480   6.186   6.327   3.502  0.7831  0.3995 -1.4012
    6CHTO   H24 2481   6.211   6.287   3.403  2.2290 -0.7992 -0.5671
    6CHTO    O8 2482   6.193   6.468   3.478 -0.3790 -0.3254  0.3348
    6CHTO    H3 2483   6.144   6.495   3.403  1.1252  1.2370 -0.1034
    6CHTO    C9 2484   6.042   6.279   3.562 -0.5732  0.2014  0.3022
    6CHTO   H22 2485   6.044   6.169   3.552  0.2867  0.3658 -1.3382
    6CHTO    N2 2486   5.928   6.322   3.480 -0.0900  0.1636  0.4376
    6CHTO   H10 2487   5.836   6.270   3.503  0.1641  0.4528  2.2344
    6CHTO   H11 2488   5.940   6.325   3.373  2.5915 -0.2161  0.6856
    6CHTO    C7 2489   6.035   6.318   3.713 -0.1578 -0.1129 -1.0154
    6CHTO   H20 2490   6.044   6.218   3.762 -0.5409  1.4008  2.3002
    6CHTO    O4 2491   6.140   6.399   3.769 -0.4612  0.2353  0.5524
    6CHTO   C14 2492   6.276   6.346   3.749  0.3072  0.3239  0.2003
    6CHTO   H27 2493   6.301   6.267   3.824  3.7146  0.5143 -0.6495
    6CHTO   C18 2494   6.369   6.463   3.780 -0.7078  0.7499 -0.0607
    6CHTO   O13 2495   6.363   6.489   3.923 -0.1120  0.0167  0.2877
    6CHTO    H7 2496   6.279   6.519   3.950 -0.8614  0.1615 -2.0701
    6CHTO    O2 2497   5.878   6.390   3.756 -0.5000 -0.1971 -0.2593
    6CHTO    C1 2498   5.826   6.369   3.885  0.8255  0.1589  0.2322
    6CHTO   H14 2499   5.729   6.423   3.892  0.3623 -0.5924 -0.3215
    6CHTO    C2 2500   5.917   6.405   4.005 -0.0328 -0.3278  0.0148
    6CHTO   H15 2501   6.005   6.340   3.997  1.1921  1.4221 -1.0050
    6CHTO    O6 2502   5.958   6.543   3.996  0.3801  0.2146 -0.1464
    6CHTO    H1 2503   5.890   6.606   3.982 -0.9849 -1.2897 -0.3904
    6CHTO    C3 2504   5.846   6.375   4.144  0.4440  0.3449 -0.2549
    6CHTO   H16 2505   5.764   6.449   4.149  2.2015  2.4109 -1.1373
    6CHTO    N1 2506   5.934   6.413   4.262  0.5528 -0.3258  0.1435
    6CHTO    H8 2507   5.974   6.513   4.257  1.1880 -0.6020 -0.3869
    6CHTO    H9 2508   6.012   6.339   4.277  1.6217  0.6607 -0.4290
    6CHTO    C4 2509   5.784   6.228   4.138  0.0527 -0.3879  0.3986
    6CHTO   H17 2510   5.868   6.161   4.154 -0.1697 -0.6879  0.3039
    6CHTO    O1 2511   5.717   6.193   4.016  0.2397  0.1035  0.3434
    6CHTO    C5 2512   5.781   6.217   3.894  0.2507 -0.5140 -0.0582
    6CHTO   H18 2513   5.872   6.156   3.900  0.7904  0.2638 -0.2480
    6CHTO   C16 2514   5.686   6.164   3.782 -0.2060  0.6016  0.5752
    6CHTO   O11 2515   5.684   6.018   3.784 -0.1031  0.4052  1.0015
    6CHTO    H5 2516   5.602   5.988   3.817 -0.9400  1.4780 -0.0384
    6CHTO    O3 2517   5.696   6.204   4.243  0.3940  0.7925 -0.3081
    6CHTO    C6 2518   5.695   6.066   4.287 -0.1259  0.3925 -0.4276
    6CHTO   H19 2519   5.745   5.993   4.223  1.9942  2.1630 -0.8367
    6CHTO    C8 2520   5.771   6.044   4.431  0.2260 -0.0226 -0.0200
    6CHTO   H21 2521   5.716   6.096   4.509  1.3150  0.4551  0.4312
    6CHTO    O7 2522   5.899   6.104   4.415 -0.2333 -0.0044  0.3120
    6CHTO    H2 2523   5.952   6.028   4.402 -0.3658 -0.5213  2.5785
    6CHTO   C12 2524   5.759   5.893   4.468 -0.0086 -0.6476  0.0896
    6CHTO   H25 2525   5.816   5.833   4.394  1.4512  2.3722 -1.2965
    6CHTO    N3 2526   5.833   5.863   4.599 -0.2782  0.4784  0.5335
    6CHTO   H12 2527   5.809   5.936   4.676 -2.7133  2.1950 -1.7611
    6CHTO   H13 2528   5.936   5.848   4.573 -1.2221 -0.9050 -2.6538
    6CHTO   C15 2529   5.611   5.849   4.468 -0.0048 -0.1606 -0.1425
    6CHTO   H28 2530   5.553   5.881   4.554  2.3121 -0.4530  1.5809
    6CHTO   O10 2531   5.593   5.698   4.468 -0.1134 -0.2077 -0.0580
    6CHTO    H4 2532   5.624   5.659   4.547  3.2254 -1.0227 -1.6681
    6CHTO    O5 2533   5.538   5.883   4.353  0.5580 -0.3174  0.1978
    6CHTO   C10 2534   5.547   6.018   4.305 -0.0182 -0.1219  0.1244
    6CHTO   H23 2535   5.501   6.092   4.371 -0.1553 -2.3699  2.6204
    6CHTO   C17 2536   5.462   6.023   4.176 -0.3022  0.4558 -0.0101
    6CHTO   O12 2537   5.427   6.157   4.142 -0.7291  0.0209  0.4691
    6CHTO    H6 2538   5.491   6.208   4.095 -0.8226  0.9706  1.3435
    7CHTO  H203 2539   5.667   2.914   4.132 -1.2010  0.5008  0.3057
    7CHTO   O82 2540   5.691   3.004   4.125  0.1177  0.1193 -0.3759
    7CHTO  C123 2541   5.834   3.010   4.106  0.9824  0.2438  0.1171
    7CHTO  H227 2542   5.858   2.974   4.004  1.2629  1.0833 -0.1136
    7CHTO   O77 2543   5.860   3.150   4.095  0.1146  0.3801 -0.3126
    7CHTO  C118 2544   5.995   3.189   4.065 -0.6665 -0.2416  0.2811
    7CHTO  H222 2545   6.021   3.138   3.972 -3.2927  1.4510 -1.4364
    7CHTO  C125 2546   5.979   3.343   4.040 -0.4843  0.0523 -0.1626
    7CHTO   O84 2547   6.104   3.392   3.986 -0.2174  0.5157  0.3129
    7CHTO  H205 2548   6.112   3.486   3.981 -0.4957  0.5459  0.4228
    7CHTO  C114 2549   6.092   3.141   4.178  0.6659  0.5682  0.7193
    7CHTO  H218 2550   6.066   3.189   4.272  1.2735 -1.2987  1.8861
    7CHTO  C116 2551   6.075   2.984   4.190 -0.6115 -0.0376  0.0096
    7CHTO  H220 2552   6.106   2.938   4.094  0.5699  0.9131 -0.0826
    7CHTO   O79 2553   6.157   2.950   4.302 -0.4616 -0.0063 -0.1196
    7CHTO  H201 2554   6.154   2.857   4.318  1.1672 -0.1735 -0.7177
    7CHTO  C120 2555   5.924   2.946   4.215 -0.2799  0.6929 -0.3605
    7CHTO  H224 2556   5.896   2.977   4.318  0.0039 -0.3812  0.0483
    7CHTO   N21 2557   5.906   2.797   4.213  0.6398  0.0904 -0.0491
    7CHTO  H211 2558   5.816   2.764   4.163  1.2403 -1.1643 -0.3131
    7CHTO  H212 2559   5.988   2.750   4.162  1.8483  3.6181 -1.5041
    7CHTO   O75 2560   6.223   3.194   4.137  0.3132 -0.0931  0.1946
    7CHTO  C112 2561   6.353   3.160   4.241 -0.4181  0.1981  0.6889
    7CHTO  H216 2562   6.370   3.051   4.249 -0.9618  0.2260  2.3747
    7CHTO   O73 2563   6.326   3.218   4.368 -0.1895 -0.0990  0.4937
    7CHTO  C113 2564   6.421   3.176   4.472  0.7017  0.9003  0.7690
    7CHTO  H217 2565   6.420   3.066   4.485  0.4196  1.2622  4.2766
    7CHTO  C124 2566   6.396   3.215   4.619 -0.2071 -0.2514 -0.5405
    7CHTO   O83 2567   6.343   3.346   4.636  0.3690  0.2795 -0.2630
    7CHTO  H204 2568   6.262   3.349   4.682  2.2010 -0.3111  3.1695
    7CHTO  C109 2569   6.567   3.218   4.434  0.6415  0.5041  0.6748
    7CHTO  H213 2570   6.575   3.326   4.449  0.1375  0.3816  1.8478
    7CHTO  C110 2571   6.601   3.188   4.273  0.8040  0.2886  0.7113
    7CHTO  H214 2572   6.631   3.083   4.264 -1.1510 -0.3192  1.1266
    7CHTO   O78 2573   6.730   3.245   4.245 -0.3214  0.0425 -0.3937
    7CHTO  H200 2574   6.795   3.178   4.237 -0.7406 -0.4516  0.3022
    7CHTO  C111 2575   6.485   3.226   4.177  0.2119 -0.5582  0.0012
    7CHTO  H215 2576   6.481   3.336   4.170 -0.5073 -0.6176 -0.5571
    7CHTO   N19 2577   6.511   3.184   4.038 -0.2125  0.1224  0.4492
    7CHTO  H207 2578   6.608   3.140   4.023 -0.0075  0.2433  1.4157
    7CHTO  H208 2579   6.436   3.116   4.001 -0.0278 -0.8324  1.8088
    7CHTO   O74 2580   6.673   3.151   4.509 -0.6794 -0.4709  0.3224
    7CHTO  C115 2581   6.777   3.224   4.553  0.2161  0.0851  0.7956
    7CHTO  H219 2582   6.794   3.314   4.494  1.9433  0.1908  1.4408
    7CHTO   O76 2583   6.748   3.272   4.722  0.2030 -0.7590  0.0960
    7CHTO  C122 2584   6.766   3.166   4.822  0.1580 -0.0275  0.2028
    7CHTO  H226 2585   6.690   3.092   4.797 -0.0673  0.3755 -0.3180
    7CHTO  C126 2586   6.738   3.224   4.961 -0.3559 -0.1961  0.6334
    7CHTO   O85 2587   6.614   3.298   4.971  0.1534 -0.3393 -0.0150
    7CHTO  H206 2588   6.612   3.365   4.905 -0.1428 -0.0049  0.3264
    7CHTO  C121 2589   6.901   3.096   4.801 -0.5930 -0.0059 -0.2247
    7CHTO  H225 2590   6.983   3.167   4.823  0.3426 -1.2544  0.4371
    7CHTO   O81 2591   6.906   3.001   4.911 -0.0085  0.1741  0.0196
    7CHTO  H202 2592   6.989   2.958   4.902  1.1034  2.0419  1.1552
    7CHTO  C119 2593   6.920   3.028   4.654  0.2872  0.6693 -0.7498
    7CHTO  H223 2594   7.020   2.986   4.647 -0.6055 -1.3591 -1.8529
    7CHTO  C117 2595   6.897   3.129   4.538  0.2125 -0.1588  0.7799
    7CHTO  H221 2596   6.876   3.088   4.439  0.2696  0.9471  0.2976
    7CHTO   N20 2597   7.027   3.211   4.514  0.4917  0.0510 -0.3598
    7CHTO  H209 2598   7.047   3.245   4.413 -1.9290  0.9782 -0.5608
    7CHTO  H210 2599   7.053   3.265   4.603 -0.6524 -1.0617  0.6671
    7CHTO   O80 2600   6.827   2.896   4.643  0.0185 -0.1464  0.3014
    7CHTO  C103 2601   6.900   2.737   4.675 -0.1103  0.2057 -0.1414
    7CHTO  H190 2602   6.841   2.669   4.613  2.2353 -0.2144 -1.9813
    7CHTO  C101 2603   7.056   2.709   4.647 -0.4545 -0.3133 -0.1240
    7CHTO  H188 2604   7.116   2.762   4.721 -1.6818 -0.6289  1.1132
    7CHTO   O68 2605   7.094   2.759   4.508  0.3882  0.0977 -0.3696
    7CHTO  H168 2606   7.059   2.844   4.489  1.7568  0.8935  0.5919
    7CHTO   C99 2607   7.080   2.558   4.669  0.6189  0.3956  0.4499
    7CHTO  H186 2608   7.015   2.500   4.600 -0.1234 -1.0451  2.3225
    7CHTO   N17 2609   7.224   2.516   4.624  0.3304  1.4597 -0.2868
    7CHTO  H174 2610   7.293   2.564   4.692 -0.2022 -0.3628  1.5878
    7CHTO  H175 2611   7.241   2.562   4.527  0.8225 -0.0613 -0.9344
    7CHTO   C97 2612   7.032   2.519   4.811 -0.2802 -0.6078  0.4057
    7CHTO  H184 2613   7.107   2.562   4.878 -0.3888  1.3937 -0.6978
    7CHTO   O64 2614   6.901   2.562   4.851 -0.0610 -0.3007 -0.5298
    7CHTO  C104 2615   6.866   2.702   4.828  0.3492 -0.0377 -0.3763
    7CHTO  H191 2616   6.923   2.777   4.884 -0.2430  1.4721 -1.7407
    7CHTO  C108 2617   6.721   2.715   4.875  0.0756 -0.6958 -0.1171
    7CHTO   O71 2618   6.697   2.662   5.009 -0.0629 -0.1312  0.0088
    7CHTO  H171 2619   6.680   2.570   5.003 -0.2705  0.0601 -3.1513
    7CHTO   O62 2620   7.023   2.375   4.827 -0.3691  0.8245 -0.4898
    7CHTO   C91 2621   7.042   2.313   4.953  0.2411  0.0409  0.6637
    7CHTO  H178 2622   7.136   2.358   4.985 -0.1108  0.0627  1.6794
    7CHTO   C92 2623   7.055   2.159   4.925 -0.1376  0.7703 -1.1494
    7CHTO  H179 2624   7.107   2.141   4.829  0.3144 -1.7190 -0.4704
    7CHTO   O66 2625   7.131   2.111   5.029  0.1836  0.4216 -0.0633
    7CHTO  H166 2626   7.141   2.019   5.013 -1.9729  0.1205  0.2454
    7CHTO   C93 2627   6.918   2.077   4.923 -0.3209 -0.3292 -0.3955
    7CHTO  H180 2628   6.943   1.971   4.906 -0.3001 -0.7461  2.1761
    7CHTO   N16 2629   6.827   2.117   4.808  0.2704  0.2838 -0.1270
    7CHTO  H172 2630   6.807   2.222   4.822  0.8224  0.3137  0.4261
    7CHTO  H173 2631   6.737   2.059   4.788  0.1696  1.2234 -2.6310
    7CHTO   C94 2632   6.841   2.091   5.060  0.5244  0.3729 -0.4978
    7CHTO  H181 2633   6.737   2.121   5.047 -0.1026 -0.7944  1.6438
    7CHTO   O61 2634   6.889   2.204   5.140 -0.3933  0.1553 -0.2682
    7CHTO   C95 2635   6.938   2.333   5.076  0.3835  0.0064 -0.3691
    7CHTO  H182 2636   6.852   2.391   5.042 -1.6076 -2.6199 -0.0053
    7CHTO  C106 2637   6.985   2.425   5.189 -0.3825 -0.4098  0.2071
    7CHTO   O69 2638   7.092   2.368   5.262 -0.5569  0.4827 -0.8199
    7CHTO  H169 2639   7.051   2.335   5.339  0.7539 -1.6836 -0.9998
    7CHTO   O63 2640   6.848   1.945   5.131 -0.3330 -0.0056 -0.3111
    7CHTO   C96 2641   6.716   1.927   5.232 -0.2627 -0.1207 -0.1873
    7CHTO  H183 2642   6.625   1.937   5.173 -0.2240  0.5942 -0.1339
    7CHTO   C98 2643   6.707   2.021   5.357  0.7145 -0.5114 -0.7805
    7CHTO  H185 2644   6.708   2.127   5.330  0.1094 -0.4107 -0.4273
    7CHTO   O67 2645   6.576   1.998   5.414 -0.5169  0.0115 -0.1772
    7CHTO  H167 2646   6.524   2.075   5.427  1.0803  0.6884  2.5144
    7CHTO  C102 2647   6.813   1.979   5.470 -0.4169 -0.0282 -0.6806
    7CHTO  H189 2648   6.772   2.016   5.565  0.9729 -0.2605  0.0200
    7CHTO   N18 2649   6.950   2.040   5.455 -0.4002 -0.4131 -0.2152
    7CHTO  H176 2650   7.020   2.018   5.535  0.0112 -2.7424 -1.1999
    7CHTO  H177 2651   6.988   2.028   5.355 -1.2353  1.3356 -0.7616
    7CHTO  C105 2652   6.824   1.827   5.486 -0.3784  0.0609 -0.2221
    7CHTO  H192 2653   6.912   1.790   5.434  0.2570 -0.4628  1.1980
    7CHTO   O65 2654   6.716   1.755   5.423 -0.0012 -0.2340  0.1932
    7CHTO  C100 2655   6.711   1.778   5.279  0.5951  0.4725  0.0211
    7CHTO  H187 2656   6.806   1.734   5.247  1.7237  2.0614  1.1153
    7CHTO  C107 2657   6.603   1.687   5.215  0.0337  0.4759 -0.5046
    7CHTO   O70 2658   6.624   1.672   5.073  0.2173  0.9898  0.4437
    7CHTO  H170 2659   6.713   1.650   5.049 -0.1608  0.4562 -0.5093
    7CHTO   O57 2660   6.845   1.796   5.638 -0.1338  0.0407 -0.0874
    7CHTO   C85 2661   6.873   1.663   5.691  0.3612 -0.1617 -0.0492
    7CHTO  H157 2662   6.941   1.615   5.618  0.6159  0.4670 -0.2221
    7CHTO   C83 2663   6.736   1.579   5.712 -0.6731 -1.0187 -0.1106
    7CHTO  H155 2664   6.684   1.564   5.617  1.9973 -1.5173 -1.5343
    7CHTO   O56 2665   6.645   1.648   5.795  0.3254  0.0871  0.2340
    7CHTO  H135 2666   6.562   1.606   5.807 -0.2804  1.9153  2.5831
    7CHTO   C81 2667   6.772   1.437   5.771 -0.1559 -0.0008 -0.1669
    7CHTO  H153 2668   6.838   1.393   5.697  1.3083  1.8463 -0.0146
    7CHTO   N14 2669   6.661   1.349   5.790 -0.4856  1.2716 -0.4674
    7CHTO  H141 2670   6.572   1.408   5.798 -1.5004 -0.3811  0.5588
    7CHTO  H142 2671   6.654   1.284   5.705  0.0606  0.6031  0.0006
    7CHTO   C79 2672   6.857   1.447   5.907 -0.3738 -0.0702  0.0617
    7CHTO  H151 2673   6.896   1.347   5.927 -0.3067  0.1129  0.8906
    7CHTO   O52 2674   6.967   1.540   5.879 -0.0012  0.3219  0.1251
    7CHTO   C86 2675   6.943   1.677   5.836  0.1885 -0.2137  0.2867
    7CHTO  H158 2676   6.874   1.724   5.910  0.3652 -2.6369  2.0913
    7CHTO   C90 2677   7.072   1.757   5.834 -0.0364 -0.0157 -0.5223
    7CHTO   O60 2678   7.137   1.762   5.966  0.4596  0.4721  0.1649
    7CHTO  H138 2679   7.211   1.820   5.963  0.7086  0.1923  0.7323
    7CHTO   O50 2680   6.780   1.498   6.016  0.1045  0.0771 -0.2316
    7CHTO   C73 2681   6.783   1.445   6.151  0.1013 -0.1898 -0.5533
    7CHTO  H145 2682   6.888   1.420   6.175  0.2005  1.1107  0.4017
    7CHTO   C74 2683   6.691   1.318   6.159  0.5685 -0.2345  0.3087
    7CHTO  H146 2684   6.720   1.248   6.079 -0.1242  0.0389 -0.1862
    7CHTO   O54 2685   6.727   1.251   6.282  0.0321  0.1332 -0.5468
    7CHTO  H133 2686   6.654   1.223   6.334 -0.0883  3.2678  1.1081
    7CHTO   C75 2687   6.534   1.364   6.144 -0.2744  0.1585  0.0427
    7CHTO  H147 2688   6.520   1.395   6.039  1.2567 -1.0322 -0.5271
    7CHTO   N13 2689   6.445   1.248   6.165 -0.6370  0.5435  0.2051
    7CHTO  H139 2690   6.441   1.180   6.081  2.1618 -2.0869  2.1087
    7CHTO  H140 2691   6.475   1.193   6.252 -1.3721 -1.0170 -0.5148
    7CHTO   C76 2692   6.516   1.480   6.243  0.3575  0.5697 -0.0960
    7CHTO  H148 2693   6.524   1.437   6.343 -0.3274 -0.0078 -0.2832
    7CHTO   O49 2694   6.598   1.595   6.212 -0.1572 -0.0205  0.3822
    7CHTO   C77 2695   6.734   1.557   6.249 -0.7730  0.8312  0.6070
    7CHTO  H149 2696   6.740   1.518   6.350 -1.6616  0.0477  0.3630
    7CHTO   C88 2697   6.818   1.688   6.246 -0.2226 -0.2668 -0.2566
    7CHTO   O58 2698   6.953   1.667   6.299  0.1499  0.3374 -0.3454
    7CHTO  H136 2699   6.946   1.678   6.391 -2.2467 -2.5111 -0.1089
    7CHTO   O51 2700   6.375   1.542   6.223 -0.0585  0.2861 -0.7538
    7CHTO   C78 2701   6.291   1.590   6.351  0.1852 -0.4902  0.4974
    7CHTO  H150 2702   6.355   1.596   6.442 -0.0505  0.2023  0.6181
    7CHTO   C80 2703   6.177   1.491   6.373  0.4636 -0.0039  0.4573
    7CHTO  H152 2704   6.120   1.474   6.279 -0.9322  1.0256  1.1101
    7CHTO   O55 2705   6.244   1.366   6.402 -0.3192  0.8051 -1.0050
    7CHTO  H134 2706   6.192   1.301   6.444  0.1932  0.9533 -0.1291
    7CHTO   C84 2707   6.081   1.531   6.481  0.7047 -0.0994  0.2720
    7CHTO  H156 2708   6.148   1.550   6.566 -0.4189  1.3876  0.8511
    7CHTO   N15 2709   5.972   1.432   6.518  0.3360  0.1082  0.1033
    7CHTO  H143 2710   5.944   1.454   6.619 -0.0285 -0.6218  0.1657
    7CHTO  H144 2711   6.012   1.333   6.509  0.1982  0.1555 -1.0945
    7CHTO   C87 2712   6.013   1.670   6.443 -0.4419  0.2456  0.9966
    7CHTO  H159 2713   5.971   1.652   6.344  0.7155 -1.3198  0.7637
    7CHTO   O53 2714   6.135   1.775   6.435  0.2102  0.2669  0.3105
    7CHTO   C82 2715   6.235   1.739   6.335 -0.1549  0.6546  0.0554
    7CHTO  H154 2716   6.191   1.749   6.236 -2.0921 -0.3843  0.7905
    7CHTO   C89 2717   6.359   1.838   6.344  0.2554  0.2341  0.0435
    7CHTO   O59 2718   6.311   1.968   6.320 -0.0805  0.1127 -0.0636
    7CHTO  H137 2719   6.248   1.957   6.252 -0.4917 -1.0064  0.4883
    7CHTO   O45 2720   5.910   1.725   6.546 -0.3177 -0.0923  0.0455
    7CHTO   C67 2721   5.840   1.842   6.502 -0.5434  0.4739  0.9310
    7CHTO  H124 2722   5.907   1.902   6.440  0.4265  2.1866  3.5792
    7CHTO   C65 2723   5.716   1.802   6.416  0.3472 -0.3992 -0.0596
    7CHTO  H122 2724   5.675   1.707   6.450 -1.6422  0.0735 -1.0001
    7CHTO   O44 2725   5.764   1.792   6.278  0.3063  0.6306 -0.0772
    7CHTO  H102 2726   5.798   1.707   6.258 -2.1467 -0.7325  1.2231
    7CHTO   C63 2727   5.585   1.894   6.440  1.3334  0.1705 -0.2156
    7CHTO  H120 2728   5.536   1.887   6.537  0.6929  0.5267 -0.5078
    7CHTO   N11 2729   5.466   1.864   6.349 -0.0988  0.4537 -0.0990
    7CHTO  H108 2730   5.480   1.922   6.260  0.8625  0.7658  0.2535
    7CHTO  H109 2731   5.473   1.761   6.321 -0.8643  0.5553 -0.7012
    7CHTO   C61 2732   5.634   2.044   6.453 -0.4675  0.5886  0.1388
    7CHTO  H118 2733   5.541   2.098   6.473 -0.5252  0.0196  1.4603
    7CHTO   O40 2734   5.717   2.056   6.570  0.0615 -0.2790 -0.0947
    7CHTO   C68 2735   5.796   1.938   6.618 -0.3739  0.4033 -0.0807
    7CHTO  H125 2736   5.734   1.879   6.688 -0.7228  1.3101  0.3896
    7CHTO   C72 2737   5.926   1.992   6.692 -0.5478  0.0346 -0.0008
    7CHTO   O48 2738   5.998   1.892   6.756 -0.1261 -0.3143 -0.4048
    7CHTO  H105 2739   6.084   1.885   6.719 -0.1544  0.2280 -0.5832
    7CHTO   O38 2740   5.676   2.094   6.330  0.1897  0.1463 -0.5056
    7CHTO   C55 2741   5.702   2.235   6.329 -0.1330 -0.1441  0.5492
    7CHTO  H112 2742   5.682   2.277   6.429  1.2084  1.8488  0.0027
    7CHTO   C56 2743   5.602   2.283   6.223  0.1797 -1.1838 -0.3701
    7CHTO  H113 2744   5.613   2.232   6.127 -0.5999 -1.5034 -0.2888
    7CHTO   O42 2745   5.465   2.258   6.270 -0.0823 -0.7514 -0.0313
    7CHTO  H100 2746   5.401   2.311   6.227 -0.8162 -1.0716  0.6418
    7CHTO   C57 2747   5.619   2.439   6.193 -0.0288 -0.6046 -0.2931
    7CHTO  H114 2748   5.588   2.493   6.282  0.9638 -1.0215  0.3206
    7CHTO   N10 2749   5.539   2.490   6.081 -0.1111 -0.5976 -0.3028
    7CHTO  H106 2750   5.434   2.485   6.107  0.0204  0.8684  0.6103
    7CHTO  H107 2751   5.563   2.592   6.054 -2.3276 -0.0884 -0.4481
    7CHTO   C58 2752   5.771   2.477   6.174  0.0141 -0.2873 -0.3663
    7CHTO  H115 2753   5.802   2.444   6.072  3.7716  1.3719  0.1585
    7CHTO   O37 2754   5.847   2.420   6.287 -0.0903 -0.1757 -0.3337
    7CHTO   C59 2755   5.843   2.273   6.302  0.2234 -0.1813 -0.4384
    7CHTO  H116 2756   5.863   2.220   6.208 -0.6845 -1.7682  0.2405
    7CHTO   C70 2757   5.948   2.228   6.406  0.2375  0.1376 -0.2207
    7CHTO   O46 2758   6.085   2.244   6.355 -0.2198  0.5679 -0.2664
    7CHTO  H103 2759   6.135   2.257   6.433 -0.7839 -1.5733  0.4906
    7CHTO   O39 2760   5.796   2.644   6.188 -0.0667  0.1076  0.0988
    7CHTO   C60 2761   5.912   2.698   6.113  0.0358 -0.3789  0.2496
    7CHTO  H117 2762   5.988   2.620   6.105  2.2908  1.9057 -1.3944
    7CHTO   C62 2763   5.888   2.745   5.969 -0.0836 -0.6122 -0.7638
    7CHTO  H119 2764   5.847   2.654   5.919 -1.1518 -1.4479  1.5400
    7CHTO   O43 2765   5.789   2.844   5.959 -0.1174  0.0354 -0.4610
    7CHTO  H101 2766   5.796   2.875   5.870  0.8221  0.4300 -0.2565
    7CHTO   C66 2767   6.029   2.791   5.909 -0.2338  0.1055  0.6830
    7CHTO  H123 2768   6.097   2.708   5.925 -1.2553 -0.6529  1.1796
    7CHTO   N12 2769   6.034   2.827   5.763 -0.4063  0.2278 -0.2947
    7CHTO  H110 2770   5.932   2.819   5.729  0.5508  3.2070 -4.1417
    7CHTO  H111 2771   6.095   2.755   5.711 -0.5959 -0.7329  0.7859
    7CHTO   C69 2772   6.090   2.902   6.003  0.0505 -0.4967  0.6435
    7CHTO  H126 2773   6.022   2.989   6.009  1.5989  0.7542  0.2707
    7CHTO   O41 2774   6.103   2.841   6.145 -0.1951 -0.5127 -0.3296
    7CHTO   C64 2775   5.975   2.806   6.203 -0.4767 -0.2767  0.1947
    7CHTO  H121 2776   5.907   2.893   6.216 -0.5972 -0.4818  0.9105
    7CHTO   C71 2777   5.993   2.749   6.353  0.0353 -0.1810  0.1180
    7CHTO   O47 2778   6.078   2.644   6.391 -0.5978 -0.1310  0.4284
    7CHTO  H104 2779   6.068   2.606   6.476  0.3297 -2.9846 -0.6744
    7CHTO   O34 2780   6.250   2.973   5.949 -0.5296 -0.0841 -0.9471
    7CHTO   C49 2781   6.369   3.043   6.000  0.2585  0.4966 -0.0660
    7CHTO   H91 2782   6.358   3.146   5.964  0.3293  0.0513 -1.4101
    7CHTO   C47 2783   6.483   2.977   5.922  0.2715 -0.0128  0.5726
    7CHTO   H89 2784   6.570   3.040   5.948 -0.1713  0.9690 -0.2734
    7CHTO   O33 2785   6.465   2.985   5.782 -0.0545 -0.3736  0.3842
    7CHTO   H70 2786   6.403   2.933   5.734  0.9284 -1.4696  0.2787
    7CHTO   C45 2787   6.511   2.824   5.974 -0.1398  0.2837  0.1059
    7CHTO   H87 2788   6.464   2.761   5.897  0.4195 -0.3274  0.2542
    7CHTO    N8 2789   6.658   2.803   5.968  0.0088  0.2218  0.4810
    7CHTO   H75 2790   6.715   2.881   6.016  0.0785  1.8782 -2.2029
    7CHTO   H76 2791   6.686   2.813   5.864 -2.3164 -1.3560 -0.3358
    7CHTO   C43 2792   6.443   2.802   6.113 -0.2061  0.3639  0.3039
    7CHTO   H85 2793   6.338   2.780   6.094 -0.1240  0.1503  0.1078
    7CHTO   O29 2794   6.464   2.915   6.202  0.0903 -0.8507 -0.2599
    7CHTO   C50 2795   6.399   3.033   6.152 -0.6618  1.5987  0.0462
    7CHTO   H92 2796   6.301   3.038   6.203 -0.7785 -1.2276  0.1710
    7CHTO   C54 2797   6.465   3.159   6.216  0.7547 -0.5048 -0.1541
    7CHTO   O36 2798   6.451   3.166   6.355  0.1708  0.6338 -0.0388
    7CHTO   H72 2799   6.430   3.255   6.377 -1.8136 -0.0420  0.9300
    7CHTO   O27 2800   6.496   2.679   6.166  0.0251  0.2034 -0.9912
    7CHTO   C37 2801   6.529   2.601   6.282 -0.2485 -0.1368  0.1853
    7CHTO   H79 2802   6.466   2.630   6.368 -2.4858  0.1651 -1.5228
    7CHTO   C38 2803   6.495   2.447   6.253  0.3277  0.0208  0.2914
    7CHTO   H80 2804   6.531   2.428   6.151  2.0251  2.7257  0.3330
    7CHTO   O31 2805   6.347   2.428   6.256 -0.0134 -0.2509 -0.3392
    7CHTO   H68 2806   6.326   2.342   6.226  1.8919 -0.9401  0.2300
    7CHTO   C39 2807   6.567   2.340   6.351 -0.4190 -0.4098  0.2406
    7CHTO   H81 2808   6.495   2.342   6.433 -1.1998  1.8534 -0.4773
    7CHTO    N7 2809   6.567   2.196   6.309 -0.0506 -0.3566  0.7518
    7CHTO   H73 2810   6.469   2.162   6.278  1.1980 -2.6282 -0.8954
    7CHTO   H74 2811   6.613   2.133   6.383  0.8024 -0.2581  0.3180
    7CHTO   C40 2812   6.712   2.382   6.397 -0.3564  0.3644 -0.6416
    7CHTO   H82 2813   6.787   2.365   6.319  2.7167 -0.5715  2.4192
    7CHTO   O26 2814   6.705   2.521   6.433 -0.1666 -0.6020 -0.2206
    7CHTO   C41 2815   6.676   2.607   6.316  0.4546 -0.1993  0.0527
    7CHTO   H83 2816   6.731   2.572   6.228  0.7137 -0.6905  0.4041
    7CHTO   C52 2817   6.708   2.756   6.352 -0.3780 -0.3365  0.1555
    7CHTO   O35 2818   6.829   2.766   6.406  0.4595 -0.2860  0.2716
    7CHTO   H71 2819   6.884   2.823   6.355  1.2726 -1.2701  0.0313
    7CHTO   O28 2820   6.752   2.312   6.515  0.2663 -0.2599 -0.3701
    7CHTO   C42 2821   6.894   2.312   6.555  0.7925 -0.1120 -0.0799
    7CHTO   H84 2822   6.883   2.261   6.650  0.8301 -0.3559 -0.2067
    7CHTO   C44 2823   6.963   2.450   6.591 -0.1815 -0.0536 -0.7166
    7CHTO   H86 2824   6.957   2.515   6.504  0.3366  0.3569 -0.4448
    7CHTO   O32 2825   6.884   2.519   6.693 -0.1039  0.1489 -0.2149
    7CHTO   H69 2826   6.922   2.604   6.707  0.6481 -0.1973 -0.1409
    7CHTO   C48 2827   7.112   2.436   6.635 -0.1569  0.1410 -0.1064
    7CHTO   H90 2828   7.107   2.371   6.723  1.9444  0.6596  0.4281
    7CHTO    N9 2829   7.175   2.565   6.673  0.3783  0.5239  0.5521
    7CHTO   H77 2830   7.125   2.599   6.763  0.6560  2.9942 -0.2051
    7CHTO   H78 2831   7.275   2.546   6.708  0.5033 -1.1484 -0.6624
    7CHTO   C51 2832   7.188   2.349   6.531  1.1026 -0.5918  0.4891
    7CHTO   H93 2833   7.181   2.397   6.433 -2.1465  0.4823  1.2023
    7CHTO   O30 2834   7.128   2.216   6.534  0.0723 -0.2817  0.4230
    7CHTO   C46 2835   6.989   2.226   6.469  0.1494  0.4858 -0.0418
    7CHTO   H88 2836   7.007   2.273   6.372 -1.2208 -0.2469 -0.6581
    7CHTO   C53 2837   6.945   2.085   6.448  0.8227  0.7326 -0.5550
    7CHTO   O72 2838   7.022   2.018   6.349 -0.0846 -0.0782 -0.1242
    7CHTO  H199 2839   6.989   2.060   6.272 -1.3621  4.3712  2.6805
    7CHTO   O22 2840   7.328   2.322   6.559  0.0987 -0.0994  0.5476
    7CHTO   C31 2841   7.419   2.300   6.447 -0.0570  0.2080  0.1144
    7CHTO   H59 2842   7.512   2.257   6.488 -0.2728 -1.1605 -0.7721
    7CHTO   C29 2843   7.376   2.200   6.335  0.0355  0.3613 -0.1743
    7CHTO   H57 2844   7.286   2.240   6.286 -0.3721  1.2156  1.2305
    7CHTO   O21 2845   7.345   2.083   6.407  0.0263 -0.0749  0.0443
    7CHTO   H37 2846   7.264   2.044   6.381  0.3637 -1.6769  1.3306
    7CHTO   C27 2847   7.490   2.176   6.232  0.4119  0.9641 -0.5609
    7CHTO   H55 2848   7.580   2.136   6.282  0.1447  1.3277  0.2054
    7CHTO    N5 2849   7.452   2.084   6.124  0.3168  0.6139  0.2315
    7CHTO   H43 2850   7.369   2.016   6.140  1.6373 -1.2762 -0.6961
    7CHTO   H44 2851   7.529   2.020   6.084  0.4823  0.7923  0.2671
    7CHTO   C25 2852   7.529   2.317   6.173  0.2699  0.1616 -0.3989
    7CHTO   H53 2853   7.450   2.355   6.107  0.0218  0.4951  0.0769
    7CHTO   O17 2854   7.560   2.418   6.277 -0.6961  0.2517 -0.2290
    7CHTO   C32 2855   7.457   2.433   6.377  0.2250  0.6426  0.9140
    7CHTO   H60 2856   7.366   2.483   6.343  0.2875  0.5871  0.6627
    7CHTO   C36 2857   7.515   2.542   6.469 -0.3880  0.5890  0.1883
    7CHTO   O25 2858   7.640   2.497   6.531  0.3857 -0.2023  0.3686
    7CHTO   H40 2859   7.679   2.573   6.567 -1.3356  1.3758 -0.9966
    7CHTO   O15 2860   7.669   2.304   6.077  0.3472 -0.5818 -0.1914
    7CHTO   C19 2861   7.697   2.343   5.944  0.3169  0.0515  0.3942
    7CHTO   H47 2862   7.800   2.380   5.952  0.6951 -0.1559 -2.9190
    7CHTO   C20 2863   7.701   2.228   5.833  0.2510  0.3956  0.1054
    7CHTO   H48 2864   7.612   2.164   5.834  0.4819  0.0687  0.7293
    7CHTO   O19 2865   7.806   2.138   5.879  0.0213 -0.0651 -0.4265
    7CHTO   H35 2866   7.889   2.180   5.870 -0.0374  0.4821  1.3582
    7CHTO   C21 2867   7.733   2.280   5.686  0.2571 -0.0623  0.1891
    7CHTO   H49 2868   7.829   2.331   5.685 -0.0255  0.4583 -0.2117
    7CHTO    N4 2869   7.721   2.171   5.581  0.2603 -0.3509 -0.0366
    7CHTO   H41 2870   7.684   2.080   5.625  0.1496 -0.6313 -0.7038
    7CHTO   H42 2871   7.820   2.149   5.544  0.3450 -1.5644  0.9016
    7CHTO   C22 2872   7.633   2.404   5.658 -0.3850  0.5931 -0.6041
    7CHTO   H50 2873   7.534   2.359   5.654  0.1256 -0.9921  2.7592
    7CHTO   O14 2874   7.649   2.502   5.764 -0.3460 -0.1120 -0.2290
    7CHTO   C23 2875   7.611   2.468   5.898 -0.2102  0.4075  0.9933
    7CHTO   H51 2876   7.503   2.447   5.901 -0.1735  0.4154  2.3076
    7CHTO   C34 2877   7.635   2.592   5.987 -0.7733 -0.0188 -0.6535
    7CHTO   O23 2878   7.773   2.629   5.997  0.5761 -0.0596  0.3597
    7CHTO   H38 2879   7.781   2.721   6.010  0.6728 -0.1152  0.6838
    7CHTO   O16 2880   7.669   2.471   5.542 -0.0129  0.3107  0.2249
    7CHTO   C24 2881   7.564   2.565   5.500  0.2090  0.8124  0.5148
    7CHTO   H52 2882   7.485   2.576   5.575 -0.4881 -1.5948  0.1610
    7CHTO   C26 2883   7.491   2.516   5.368 -0.0812 -1.1784  0.2826
    7CHTO   H54 2884   7.569   2.475   5.300  0.5328 -0.0377  0.2868
    7CHTO   O20 2885   7.400   2.413   5.403 -0.1728  0.0420 -0.8071
    7CHTO   H36 2886   7.347   2.391   5.330 -1.3095 -0.6123  0.1967
    7CHTO   C30 2887   7.415   2.633   5.300 -0.7755 -0.1653 -0.0208
    7CHTO   H58 2888   7.324   2.655   5.357 -0.6726 -1.0694  0.4875
    7CHTO    N6 2889   7.362   2.592   5.165  0.2351  0.0264  0.2302
    7CHTO   H45 2890   7.435   2.587   5.086 -1.7076 -0.9412 -1.5535
    7CHTO   H46 2891   7.286   2.664   5.136  0.7294  1.0236  1.3549
    7CHTO   C33 2892   7.491   2.770   5.297 -0.2932  0.1835 -0.0884
    7CHTO   H61 2893   7.583   2.759   5.237 -0.8227  1.4868 -1.1680
    7CHTO   O18 2894   7.533   2.799   5.435 -0.2399  0.4820  0.3046
    7CHTO   C28 2895   7.637   2.705   5.474 -0.6270  0.0212 -0.7893
    7CHTO   H56 2896   7.709   2.691   5.393 -2.0507 -0.7452 -1.9668
    7CHTO   C35 2897   7.708   2.778   5.598  0.2759 -0.0009  0.2767
    7CHTO   O24 2898   7.621   2.824   5.703  0.0422 -0.0634  0.0783
    7CHTO   H39 2899   7.641   2.893   5.763 -0.6690  0.3431 -0.1405
    7CHTO    O9 2900   7.423   2.880   5.240 -0.2636 -0.3016  0.3949
    7CHTO   C13 2901   7.516   2.968   5.135 -0.1412  0.2797 -0.7090
    7CHTO   H26 2902   7.567   2.894   5.071  0.7614  0.4507 -0.2017
    7CHTO   C11 2903   7.613   3.052   5.217 -0.5005 -0.3052 -0.2885
    7CHTO   H24 2904   7.693   2.984   5.253 -1.7069 -0.8560  1.4397
    7CHTO    O8 2905   7.552   3.126   5.326  0.3867 -0.0528 -0.5390
    7CHTO    H3 2906   7.508   3.074   5.390 -0.3211 -1.0772 -1.8447
    7CHTO    C9 2907   7.684   3.147   5.113 -0.1430  0.0660 -0.3206
    7CHTO   H22 2908   7.719   3.080   5.033  0.0213  0.3222 -0.4660
    7CHTO    N2 2909   7.814   3.210   5.159 -0.4944 -0.6335 -0.6326
    7CHTO   H10 2910   7.900   3.161   5.117 -1.1369 -2.8406  0.5639
    7CHTO   H11 2911   7.821   3.317   5.144 -0.4823 -0.2325  1.9738
    7CHTO    C7 2912   7.586   3.247   5.049  0.2311 -0.3703  0.3599
    7CHTO   H20 2913   7.618   3.250   4.943  0.0831  0.7080  0.3357
    7CHTO    O4 2914   7.449   3.193   5.065 -0.2982 -0.2743 -0.0891
    7CHTO   C14 2915   7.436   3.059   5.032  0.3377  0.2473 -0.2808
    7CHTO   H27 2916   7.482   3.045   4.932 -0.0126 -1.3021 -0.2391
    7CHTO   C18 2917   7.293   3.017   5.020  0.1772  0.4468  0.1885
    7CHTO   O13 2918   7.260   2.892   4.955 -0.2771  0.9437  0.3083
    7CHTO    H7 2919   7.181   2.905   4.906 -0.8478  1.4208  1.3272
    7CHTO    O2 2920   7.591   3.401   5.111 -0.3156 -0.1969 -0.2127
    7CHTO    C1 2921   7.515   3.509   5.051 -0.0148  0.2626  0.1224
    7CHTO   H14 2922   7.448   3.460   4.977  0.7201  0.0411 -0.3993
    7CHTO    C2 2923   7.606   3.621   4.966 -0.0806 -0.5290 -0.1998
    7CHTO   H15 2924   7.683   3.657   5.034 -3.0747  1.5564  2.2170
    7CHTO    O6 2925   7.677   3.557   4.862  0.4549  0.2107  0.1490
    7CHTO    H1 2926   7.749   3.508   4.897  0.7367 -0.3271 -1.1518
    7CHTO    C3 2927   7.522   3.740   4.908  0.8091  0.8671  0.4531
    7CHTO   H16 2928   7.452   3.704   4.832  1.6355  1.0663 -0.4134
    7CHTO    N1 2929   7.608   3.846   4.852 -0.1664  0.1775  0.0819
    7CHTO    H8 2930   7.600   3.869   4.746 -3.9672  2.7374  0.8442
    7CHTO    H9 2931   7.586   3.937   4.906 -0.4175 -0.5952  1.3000
    7CHTO    C4 2932   7.427   3.795   5.025 -0.7405 -0.0570 -0.3812
    7CHTO   H17 2933   7.488   3.841   5.103 -2.0079 -0.7090  1.0183
    7CHTO    O1 2934   7.348   3.691   5.086  0.3882 -0.0940  0.3001
    7CHTO    C5 2935   7.426   3.592   5.155 -0.0085 -0.6767 -0.4571
    7CHTO   H18 2936   7.496   3.644   5.220 -0.6719  0.7351 -0.8521
    7CHTO   C16 2937   7.336   3.511   5.250  0.0804 -0.0992 -0.0981
    7CHTO   O11 2938   7.231   3.453   5.171 -0.1563 -0.0651  0.2654
    7CHTO    H5 2939   7.177   3.525   5.143  0.0422 -1.4607 -4.0886
    7CHTO    O3 2940   7.331   3.888   4.981 -0.0246 -0.4266 -0.0664
    7CHTO    C6 2941   7.284   4.006   5.065 -0.3570  0.1175  0.0175
    7CHTO   H19 2942   7.186   4.037   5.029 -2.4271 -2.8631  2.7791
    7CHTO    C8 2943   7.270   3.967   5.216  0.1961  0.1158  0.3105
    7CHTO   H21 2944   7.366   3.941   5.260 -1.7069 -0.7508  4.2641
    7CHTO    O7 2945   7.172   3.864   5.220  1.0678  0.1333 -0.5884
    7CHTO    H2 2946   7.195   3.786   5.266 -1.1073 -0.5701 -0.6393
    7CHTO   C12 2947   7.221   4.088   5.300 -0.2207  0.2588  0.3751
    7CHTO   H25 2948   7.119   4.110   5.262  0.1301  1.6330  0.1973
    7CHTO    N3 2949   7.196   4.059   5.448 -0.2124 -0.0129  0.5867
    7CHTO   H12 2950   7.273   4.109   5.505 -0.5397  0.7122  0.3927
    7CHTO   H13 2951   7.098   4.095   5.478 -1.3280 -1.8499 -0.7543
    7CHTO   C15 2952   7.317   4.208   5.280 -0.0328 -0.6015 -0.2988
    7CHTO   H28 2953   7.403   4.205   5.346 -0.9316  0.6951  0.9706
    7CHTO   O10 2954   7.241   4.340   5.320 -0.1018 -0.3541  0.0735
    7CHTO    H4 2955   7.253   4.342   5.413 -0.6572  0.1960  0.1381
    7CHTO    O5 2956   7.357   4.238   5.145  0.0211 -0.4198  0.3435
    7CHTO   C10 2957   7.387   4.130   5.055  0.0933  0.8175  0.6254
    7CHTO   H23 2958   7.490   4.097   5.064  0.3664  1.1907 -0.9925
    7CHTO   C17 2959   7.393   4.193   4.919  0.1283 -0.0695  0.3190
    7CHTO   O12 2960   7.498   4.286   4.898 -0.8598  0.1388  0.1793
    7CHTO    H6 2961   7.520   4.330   4.978 -0.0348  0.6494 -0.3193
    8CHTO  H203 2962   7.834   7.086   1.144 -0.2895  0.2733  0.3872
    8CHTO   O82 2963   7.789   7.151   1.094 -0.0729 -0.1093 -0.3138
    8CHTO  C123 2964   7.647   7.159   1.131  0.7071 -0.6413  0.3888
    8CHTO  H227 2965   7.611   7.059   1.161 -2.5756  0.0739 -0.9071
    8CHTO   O77 2966   7.650   7.244   1.248  0.3517  0.0114  0.1803
    8CHTO  C118 2967   7.531   7.297   1.306  0.4151 -0.3633  0.3972
    8CHTO  H222 2968   7.469   7.224   1.359 -0.6929  0.0348 -0.3210
    8CHTO  C125 2969   7.586   7.397   1.410 -0.2194 -0.0503 -0.1798
    8CHTO   O84 2970   7.659   7.328   1.510  0.2654 -0.1842 -0.1116
    8CHTO  H205 2971   7.659   7.381   1.587  2.0731 -0.5784  0.1832
    8CHTO  C114 2972   7.440   7.359   1.198 -0.7409 -0.1105  1.1832
    8CHTO  H218 2973   7.488   7.448   1.159 -0.9139 -0.9884 -1.1335
    8CHTO  C116 2974   7.417   7.266   1.076 -0.3248 -1.3213 -0.2200
    8CHTO  H220 2975   7.360   7.173   1.096 -1.8431 -0.5109 -0.7672
    8CHTO   O79 2976   7.340   7.340   0.978  0.4855  0.1828  0.1355
    8CHTO  H201 2977   7.356   7.310   0.891  0.8786 -0.2512  0.3604
    8CHTO  C120 2978   7.557   7.220   1.015  0.0363  0.0716  0.3975
    8CHTO  H224 2979   7.598   7.311   0.966 -1.9606 -0.1715 -1.8614
    8CHTO   N21 2980   7.534   7.131   0.899 -0.3161 -0.3163  0.3328
    8CHTO  H211 2981   7.431   7.099   0.893 -0.7792  1.3844 -1.2881
    8CHTO  H212 2982   7.610   7.054   0.890 -2.1039 -1.9130 -1.7403
    8CHTO   O75 2983   7.328   7.396   1.275  0.4010 -0.6255  0.6218
    8CHTO  C112 2984   7.227   7.514   1.211 -0.1526 -0.0578 -0.1552
    8CHTO  H216 2985   7.196   7.473   1.113  0.2184  0.9862 -0.7105
    8CHTO   O73 2986   7.301   7.637   1.196  0.3127  0.3399 -0.2938
    8CHTO  C113 2987   7.232   7.738   1.118  0.2338  0.2322 -0.3738
    8CHTO  H217 2988   7.192   7.692   1.025 -0.6241 -0.7359  0.4570
    8CHTO  C124 2989   7.324   7.853   1.073 -0.0400 -0.4680  0.4897
    8CHTO   O83 2990   7.432   7.810   0.991  0.7443 -0.0586 -0.1551
    8CHTO  H204 2991   7.479   7.884   0.959  1.7416  0.5512  2.5935
    8CHTO  C109 2992   7.111   7.787   1.208  0.2025 -0.0816  0.3207
    8CHTO  H213 2993   7.156   7.837   1.295  1.2074 -1.6536  0.7184
    8CHTO  C110 2994   7.020   7.672   1.246  0.1153  0.5498 -0.1496
    8CHTO  H214 2995   6.975   7.643   1.151 -0.1028 -3.2649  1.0447
    8CHTO   O78 2996   6.915   7.711   1.336  0.5570  0.3504  0.5062
    8CHTO  H200 2997   6.842   7.743   1.287  0.1990 -1.7360 -0.3816
    8CHTO  C111 2998   7.095   7.545   1.294 -0.8029 -0.2989 -0.5471
    8CHTO  H215 2999   7.128   7.560   1.398  0.7310 -0.4431 -0.9945
    8CHTO   N19 3000   7.002   7.431   1.293  0.0731  0.2481  0.0704
    8CHTO  H207 3001   6.928   7.455   1.368  0.9707  0.5024  0.8858
    8CHTO  H208 3002   6.938   7.423   1.206  0.7715 -2.5894 -0.2289
    8CHTO   O74 3003   7.019   7.877   1.133  0.3734  0.3818  0.0612
    8CHTO  C115 3004   7.023   8.032   1.180 -0.9996 -0.3043  0.2016
    8CHTO  H219 3005   7.033   8.039   1.289 -0.2207 -1.9873  0.2547
    8CHTO   O76 3006   7.160   8.111   1.117  0.5407  0.0034  0.5881
    8CHTO  C122 3007   7.141   8.251   1.110  0.5613 -0.5294  0.8095
    8CHTO  H226 3008   7.226   8.285   1.050 -1.0146 -1.2994 -1.9495
    8CHTO  C126 3009   7.162   8.324   1.248 -0.9155 -0.1831  0.2173
    8CHTO   O85 3010   7.147   8.464   1.248  0.5470  0.4604 -0.4902
    8CHTO  H206 3011   7.151   8.508   1.331 -0.7611  1.6184 -1.0240
    8CHTO  C121 3012   7.006   8.290   1.038  0.2472 -0.1249 -0.2694
    8CHTO  H225 3013   7.018   8.401   1.040 -1.7550  0.1089 -0.8119
    8CHTO   O81 3014   7.015   8.251   0.900  0.9500  0.6222 -0.1441
    8CHTO  H202 3015   6.995   8.330   0.854 -1.4455  0.6088  0.7931
    8CHTO  C119 3016   6.884   8.251   1.112  0.3854  0.2505  0.3135
    8CHTO  H223 3017   6.884   8.299   1.210  1.1712  0.0277  0.4169
    8CHTO  C117 3018   6.880   8.092   1.140 -0.6517  0.2901 -0.2462
    8CHTO  H221 3019   6.856   8.034   1.051 -0.3048 -1.3190  0.6973
    8CHTO   N20 3020   6.777   8.058   1.242 -0.6533 -0.1678 -0.1214
    8CHTO  H209 3021   6.815   8.023   1.337  0.2507 -2.1572 -1.1955
    8CHTO  H210 3022   6.729   7.968   1.209 -3.0293 -0.0462  2.8350
    8CHTO   O80 3023   6.753   8.310   1.053  0.1373 -0.3862 -0.0593
    8CHTO  C103 3024   6.711   8.472   1.065 -0.2849  0.3988  0.6473
    8CHTO  H190 3025   6.603   8.486   1.063 -0.4917 -1.1055  1.1742
    8CHTO  C101 3026   6.766   8.548   1.189 -0.4915  0.2362 -0.1825
    8CHTO  H188 3027   6.875   8.544   1.192 -0.5196 -0.4064  0.0543
    8CHTO   O68 3028   6.723   8.475   1.328 -0.2481 -0.1163  0.5227
    8CHTO  H168 3029   6.632   8.454   1.321 -0.0159 -0.3219 -2.2445
    8CHTO   C99 3030   6.723   8.695   1.190  0.0632  0.0200  0.5863
    8CHTO  H186 3031   6.612   8.692   1.183 -0.0415  1.3021  1.5490
    8CHTO   N17 3032   6.769   8.769   1.312 -0.4907  0.7785 -0.5410
    8CHTO  H174 3033   6.717   8.734   1.400  0.5532  0.2321 -0.1323
    8CHTO  H175 3034   6.877   8.775   1.321 -0.5278 -0.8026  1.3971
    8CHTO   C97 3035   6.772   8.759   1.059 -0.8224  0.2858  0.0312
    8CHTO  H184 3036   6.882   8.756   1.063 -0.7935 -0.7353 -1.1295
    8CHTO   O64 3037   6.722   8.690   0.943 -0.2138  0.3903  0.0664
    8CHTO  C104 3038   6.765   8.550   0.943  0.2331 -0.5480  0.0205
    8CHTO  H191 3039   6.874   8.558   0.942  0.1219  1.0080 -0.4578
    8CHTO  C108 3040   6.725   8.484   0.814 -0.2658 -0.2881  0.0576
    8CHTO   O71 3041   6.771   8.541   0.693 -0.2885  0.1150 -0.3589
    8CHTO  H171 3042   6.860   8.521   0.673 -0.2821  1.9993 -2.4444
    8CHTO   O62 3043   6.721   8.894   1.042  0.1364 -0.1019  0.0304
    8CHTO   C91 3044   6.810   8.995   0.991 -0.6905  0.3910  0.2842
    8CHTO  H178 3045   6.912   8.957   0.990 -1.2032 -0.9828 -0.9238
    8CHTO   C92 3046   6.806   9.110   1.095  0.0092  0.3528 -0.3200
    8CHTO  H179 3047   6.703   9.133   1.127  0.4925  2.8198 -0.4450
    8CHTO   O66 3048   6.871   9.062   1.212 -0.3097  0.3775  0.1236
    8CHTO  H166 3049   6.959   9.035   1.193  0.3378  2.6035 -0.1394
    8CHTO   C93 3050   6.876   9.244   1.066  0.1608  0.2200  0.6694
    8CHTO  H180 3051   6.983   9.218   1.073 -0.0672 -0.6254  1.0703
    8CHTO   N16 3052   6.862   9.356   1.162 -0.0974 -0.7852 -0.8400
    8CHTO  H172 3053   6.894   9.319   1.258  0.6642 -1.0613 -1.1970
    8CHTO  H173 3054   6.757   9.382   1.169  0.5605  2.2892 -1.6356
    8CHTO   C94 3055   6.840   9.278   0.917 -0.0129 -0.0681 -0.1341
    8CHTO  H181 3056   6.735   9.301   0.904 -0.2155 -1.4070 -0.8641
    8CHTO   O61 3057   6.863   9.171   0.827  0.1259 -0.1864  0.2309
    8CHTO   C95 3058   6.788   9.052   0.852 -0.6695 -0.0550 -0.5804
    8CHTO  H182 3059   6.684   9.082   0.850 -0.6815  0.2124  1.8812
    8CHTO  C106 3060   6.808   8.944   0.741 -0.4839 -0.0789  0.0740
    8CHTO   O69 3061   6.778   8.998   0.616 -0.0727  0.5449 -0.7884
    8CHTO  H169 3062   6.694   8.972   0.583 -0.6808  0.3578  0.8797
    8CHTO   O63 3063   6.936   9.407   0.874 -0.2774  0.3474 -0.1471
    8CHTO   C96 3064   6.953   9.420   0.726 -0.2552  0.3258  0.1934
    8CHTO  H183 3065   6.880   9.359   0.673  0.8653 -1.9853  1.2333
    8CHTO   C98 3066   7.096   9.378   0.674  0.1735 -0.1285  0.4937
    8CHTO  H185 3067   7.171   9.438   0.729  0.1076  0.9605 -0.5874
    8CHTO   O67 3068   7.123   9.239   0.717  0.8155 -0.6936 -0.1513
    8CHTO  H167 3069   7.111   9.182   0.643  0.8549 -2.5023  1.2038
    8CHTO  C102 3070   7.109   9.401   0.514 -0.0650  0.3390 -0.5872
    8CHTO  H189 3071   7.030   9.338   0.472 -0.0694 -1.4793  1.9909
    8CHTO   N18 3072   7.231   9.344   0.454  0.4535 -0.2264 -0.5064
    8CHTO  H176 3073   7.277   9.269   0.516  1.0941 -0.1593 -0.9026
    8CHTO  H177 3074   7.196   9.298   0.363  1.0431  3.9596 -2.9485
    8CHTO  C105 3075   7.075   9.550   0.487  0.6265 -0.3003  0.1237
    8CHTO  H192 3076   7.151   9.614   0.531  1.4646 -0.9123 -0.3959
    8CHTO   O65 3077   6.946   9.586   0.539 -0.1248 -0.7529 -0.0605
    8CHTO  C100 3078   6.929   9.564   0.685 -0.1143 -0.3237  0.4577
    8CHTO  H187 3079   7.007   9.628   0.730  1.4390 -0.7542 -1.5249
    8CHTO  C107 3080   6.798   9.622   0.717 -0.1564 -0.2001  0.4220
    8CHTO   O70 3081   6.794   9.764   0.703 -0.1564  0.0073 -0.3749
    8CHTO  H170 3082   6.720   9.791   0.754  1.0847 -1.7645  2.5144
    8CHTO   O57 3083   7.065   9.582   0.336 -0.0858 -0.1841  0.4652
    8CHTO   C85 3084   7.134   9.683   0.259 -0.1173  0.1993 -0.2151
    8CHTO  H157 3085   7.235   9.673   0.303 -1.6359 -1.4927  3.1225
    8CHTO   C83 3086   7.098   9.826   0.289 -0.0341 -0.1779 -0.0207
    8CHTO  H155 3087   7.124   9.844   0.393  0.1224 -0.1449 -0.0654
    8CHTO   O56 3088   6.956   9.848   0.269 -0.7286  0.2887  0.3682
    8CHTO  H135 3089   6.910   9.786   0.322  2.3089 -0.5098  2.1941
    8CHTO   C81 3090   7.180   9.922   0.198 -0.0517 -0.6233 -0.3984
    8CHTO  H153 3091   7.285   9.896   0.202  0.4257  1.3245 -0.0422
    8CHTO   N14 3092   7.173  10.059   0.239 -0.2276 -0.0947  0.3288
    8CHTO  H141 3093   7.068  10.080   0.241  0.1029  1.9531 -1.6214
    8CHTO  H142 3094   7.219  10.128   0.171  0.2925 -1.4118 -0.6768
    8CHTO   C79 3095   7.131   9.896   0.055 -0.6111  0.7457 -0.0418
    8CHTO  H151 3096   7.188   9.958  -0.014 -0.1492  0.5206  0.1313
    8CHTO   O52 3097   7.154   9.760   0.014  0.9133 -0.8218 -0.0256
    8CHTO   C86 3098   7.129   9.648   0.106 -0.7906  0.4381  0.1917
    8CHTO  H158 3099   7.026   9.612   0.084 -0.1114 -1.7747  0.5414
    8CHTO   C90 3100   7.222   9.533   0.059  0.5101 -0.1103 -0.2683
    8CHTO   O60 3101   7.189   9.475  -0.069  0.0586  0.4420 -0.2007
    8CHTO  H138 3102   7.210   9.537  -0.137  0.4315  1.0893  0.4974
    8CHTO   O50 3103   6.989   9.922   0.029  0.4731 -0.0313  0.9032
    8CHTO   C73 3104   6.883   9.981  -0.053 -0.0449  0.9283  0.0498
    8CHTO  H145 3105   6.917   9.987  -0.158 -0.0306  1.2034  0.0692
    8CHTO   C74 3106   6.843  10.125  -0.014  0.3332  0.2383  0.1272
    8CHTO  H146 3107   6.935  10.185  -0.022  0.7930 -0.1797  2.1619
    8CHTO   O54 3108   6.760  10.173  -0.126  0.2586  0.0112  0.1094
    8CHTO  H133 3109   6.808  10.235  -0.177 -0.7360 -0.9466 -2.0322
    8CHTO   C75 3110   6.786  10.129   0.139  1.0166 -0.0024  0.3698
    8CHTO  H147 3111   6.867  10.099   0.208  2.5697 -2.2621 -2.3014
    8CHTO   N13 3112   6.727  10.258   0.177  0.4350 -0.5423  0.2628
    8CHTO  H139 3113   6.638  10.264   0.116  2.3687 -0.9922 -2.7270
    8CHTO  H140 3114   6.801  10.331   0.149 -0.9958  0.3795 -1.2127
    8CHTO   C76 3115   6.678  10.005   0.150  0.3676  0.1893 -0.3451
    8CHTO  H148 3116   6.584  10.031   0.102  0.2410  0.2023 -0.0942
    8CHTO   O49 3117   6.719   9.877   0.092 -0.5234  0.2084 -0.3931
    8CHTO   C77 3118   6.754   9.893  -0.046  0.6587  0.1386  0.3340
    8CHTO  H149 3119   6.671   9.940  -0.099  0.7755 -0.7039 -0.6146
    8CHTO   C88 3120   6.776   9.751  -0.101 -0.6288 -0.0652  0.6285
    8CHTO   O58 3121   6.647   9.676  -0.112 -0.0748 -0.3372  0.1586
    8CHTO  H136 3122   6.582   9.694  -0.046 -0.5650  1.0528 -0.6955
    8CHTO   O51 3123   6.658   9.956   0.307  0.1474 -0.4464  0.2002
    8CHTO   C78 3124   6.517   9.898   0.325  0.1582  0.4559 -0.4055
    8CHTO  H150 3125   6.465   9.881   0.228  0.3963  0.8825 -0.6079
    8CHTO   C80 3126   6.453  10.012   0.399 -0.0568 -0.8598 -0.0715
    8CHTO  H152 3127   6.511  10.023   0.493 -0.1437 -1.0660  0.0081
    8CHTO   O55 3128   6.452  10.134   0.324  0.0455  0.1604  0.2112
    8CHTO  H134 3129   6.368  10.175   0.335  0.4590  0.6692  1.5453
    8CHTO   C84 3130   6.310   9.967   0.443  0.8585  0.4031 -0.4678
    8CHTO  H156 3131   6.241   9.965   0.359  0.8384  0.1885 -0.4467
    8CHTO   N15 3132   6.244  10.062   0.537  0.2525  0.2754 -0.0124
    8CHTO  H143 3133   6.255  10.162   0.500 -2.4058  0.9038  0.7616
    8CHTO  H144 3134   6.139  10.041   0.544  0.1441  0.4760 -0.8931
    8CHTO   C87 3135   6.311   9.824   0.508 -0.4236  0.3453  0.6524
    8CHTO  H159 3136   6.349   9.831   0.610  0.0785 -0.8341  0.5653
    8CHTO   O53 3137   6.382   9.732   0.425 -0.1979 -0.2045 -0.0838
    8CHTO   C82 3138   6.516   9.766   0.399 -0.7549  0.3476 -0.0103
    8CHTO  H154 3139   6.577   9.765   0.490  1.1678  0.2367 -1.2637
    8CHTO   C89 3140   6.580   9.660   0.306 -0.5540  0.7211 -0.4415
    8CHTO   O59 3141   6.727   9.661   0.307  0.2236  0.8227 -0.0446
    8CHTO  H137 3142   6.766   9.663   0.221 -0.1730 -1.5392 -0.2996
    8CHTO   O45 3143   6.167   9.767   0.519  0.0558 -0.1409 -0.0069
    8CHTO   C67 3144   6.163   9.654   0.608 -0.5924 -0.4117 -0.4228
    8CHTO  H124 3145   6.265   9.618   0.622 -0.0582  1.9519  2.2192
    8CHTO   C65 3146   6.107   9.675   0.749  0.4240  0.9387  0.3138
    8CHTO  H122 3147   6.039   9.759   0.743 -2.0855 -1.1214 -1.4004
    8CHTO   O44 3148   6.229   9.705   0.825 -0.2046 -0.3296  0.8284
    8CHTO  H102 3149   6.205   9.782   0.873  0.4432 -0.3648  1.2228
    8CHTO   C63 3150   6.020   9.560   0.803 -0.2085 -0.2062 -0.4951
    8CHTO  H120 3151   5.922   9.576   0.756  0.0861 -0.1458 -1.0935
    8CHTO   N11 3152   5.993   9.572   0.949  0.3682  0.3015  0.2637
    8CHTO  H108 3153   6.083   9.550   1.003  0.4427  1.0018  0.4424
    8CHTO  H109 3154   5.959   9.672   0.971  0.3366 -0.0804  2.0528
    8CHTO   C61 3155   6.073   9.424   0.761 -0.2418 -0.0322 -0.0941
    8CHTO  H118 3156   5.996   9.350   0.786 -0.0847 -0.3393 -0.5021
    8CHTO   O40 3157   6.100   9.411   0.616 -0.6507  0.3132 -0.3265
    8CHTO   C68 3158   6.080   9.532   0.540 -0.7467  0.3314  0.2782
    8CHTO  H125 3159   5.973   9.558   0.549 -0.8736  0.6857 -1.9766
    8CHTO   C72 3160   6.108   9.509   0.386 -0.1175  0.3517 -0.3565
    8CHTO   O48 3161   6.243   9.511   0.338  0.2834 -0.2997  0.0165
    8CHTO  H105 3162   6.251   9.591   0.292 -1.2141 -0.0046  0.2258
    8CHTO   O38 3163   6.202   9.398   0.821  0.0689 -1.0523  0.5405
    8CHTO   C55 3164   6.252   9.267   0.836  0.4348 -0.0411  0.4932
    8CHTO  H112 3165   6.206   9.207   0.755  0.7454 -0.0931  0.3549
    8CHTO   C56 3166   6.231   9.198   0.980  0.1033  0.2133  0.3153
    8CHTO  H113 3167   6.290   9.251   1.055  2.1684 -0.3339 -0.8795
    8CHTO   O42 3168   6.098   9.213   1.034 -0.1542  0.5646  0.2562
    8CHTO  H100 3169   6.037   9.196   0.965 -1.3486  2.3751  0.8309
    8CHTO   C57 3170   6.277   9.049   0.966 -0.0500 -0.5966  0.1284
    8CHTO  H114 3171   6.206   9.000   0.900 -0.2552 -0.6868  0.4144
    8CHTO   N10 3172   6.277   8.973   1.094  0.3862  0.5346 -0.3178
    8CHTO  H106 3173   6.176   8.948   1.123  0.7903  1.7560  2.2215
    8CHTO  H107 3174   6.314   9.036   1.173  0.7807  0.6306 -0.5729
    8CHTO   C58 3175   6.413   9.039   0.900  0.3998 -0.3737 -0.2737
    8CHTO  H115 3176   6.493   9.065   0.972  0.5769  2.1101 -1.3146
    8CHTO   O37 3177   6.436   9.124   0.781 -0.2630  0.4060 -0.3919
    8CHTO   C59 3178   6.403   9.265   0.798  0.1218  0.1067  0.6636
    8CHTO  H116 3179   6.472   9.305   0.872  0.4394 -0.9012  0.9143
    8CHTO   C70 3180   6.421   9.336   0.661  0.4371 -0.9227  0.5309
    8CHTO   O46 3181   6.553   9.391   0.642 -0.4104 -0.4518 -0.3305
    8CHTO  H103 3182   6.574   9.437   0.721 -2.9855 -0.1396  0.2270
    8CHTO   O39 3183   6.439   8.868   0.844  0.0612 -0.1625 -0.3965
    8CHTO   C60 3184   6.364   8.825   0.733  0.2009 -0.3749  0.0208
    8CHTO  H117 3185   6.260   8.856   0.745 -0.1168 -1.6649  0.7338
    8CHTO   C62 3186   6.421   8.867   0.596 -0.4407  0.2703 -0.7100
    8CHTO  H119 3187   6.437   8.977   0.592 -0.4133  0.2463 -1.1961
    8CHTO   O43 3188   6.556   8.817   0.575 -0.2732 -0.0826 -0.2676
    8CHTO  H101 3189   6.618   8.875   0.616  0.8861 -1.2732 -0.3181
    8CHTO   C66 3190   6.321   8.834   0.477 -0.4992  0.8285  0.0562
    8CHTO  H123 3191   6.226   8.885   0.497 -0.7583  0.3840 -0.0315
    8CHTO   N12 3192   6.355   8.886   0.343  0.1782  0.4681 -0.4119
    8CHTO  H110 3193   6.341   8.830   0.252 -1.4821  0.5013 -0.1903
    8CHTO  H111 3194   6.328   8.991   0.337 -0.5147  0.4377  1.7367
    8CHTO   C69 3195   6.304   8.677   0.469 -0.0733  0.5538  0.1552
    8CHTO  H126 3196   6.391   8.630   0.418 -0.1918  0.1427  0.3292
    8CHTO   O41 3197   6.273   8.612   0.613 -0.5421 -0.3598  0.1882
    8CHTO   C64 3198   6.354   8.669   0.736 -0.5667  0.6168 -0.3629
    8CHTO  H121 3199   6.456   8.625   0.733 -0.8409  0.0916 -2.2483
    8CHTO   C71 3200   6.282   8.609   0.862 -0.1759 -0.3695  0.0565
    8CHTO   O47 3201   6.392   8.585   0.955  0.0399 -0.1380  0.0520
    8CHTO  H104 3202   6.444   8.510   0.933  1.0344  0.3066  0.8129
    8CHTO   O34 3203   6.175   8.647   0.391  0.2568  0.2000  0.1252
    8CHTO   C49 3204   6.043   8.613   0.428 -0.2426  0.3432  0.0613
    8CHTO   H91 3205   6.053   8.517   0.479 -2.1656 -0.0566 -0.2818
    8CHTO   C47 3206   5.965   8.592   0.301  0.3031 -0.2805  0.3710
    8CHTO   H89 3207   5.878   8.531   0.330  1.9364 -1.5956  2.6946
    8CHTO   O33 3208   6.027   8.521   0.200 -0.1553 -0.4347  0.4440
    8CHTO   H70 3209   6.084   8.574   0.147 -0.4364 -1.7090 -1.1718
    8CHTO   C45 3210   5.924   8.730   0.230 -0.2331  0.6904 -0.0417
    8CHTO   H87 3211   5.978   8.744   0.136 -0.7918 -0.9678 -0.6240
    8CHTO    N8 3212   5.779   8.731   0.190 -0.2225 -0.1558 -0.0274
    8CHTO   H75 3213   5.742   8.830   0.213  0.1442  0.2216 -1.0101
    8CHTO   H76 3214   5.725   8.656   0.245 -1.2047 -0.8129 -1.8308
    8CHTO   C43 3215   5.967   8.861   0.317 -0.1192 -0.4842 -0.2604
    8CHTO   H85 3216   6.072   8.880   0.294  0.3351 -0.0694  2.0165
    8CHTO   O29 3217   5.932   8.841   0.455  0.0766  0.2376  0.3294
    8CHTO   C50 3218   5.977   8.717   0.516 -0.5120  0.7622  0.1319
    8CHTO   H92 3219   6.054   8.748   0.588  1.0340 -1.8657 -0.3099
    8CHTO   C54 3220   5.858   8.652   0.599 -0.3440 -0.5116 -0.0435
    8CHTO   O36 3221   5.736   8.663   0.528 -0.3208 -0.2876 -0.1487
    8CHTO   H72 3222   5.683   8.588   0.547  1.2084 -1.0815  1.1246
    8CHTO   O27 3223   5.905   8.982   0.268  0.3745 -0.7156  0.1260
    8CHTO   C37 3224   5.797   9.077   0.271  0.0011  0.2458 -0.1843
    8CHTO   H79 3225   5.705   9.018   0.281  2.0512 -2.9171  1.0892
    8CHTO   C38 3226   5.799   9.174   0.397 -0.4901  0.9897 -0.3212
    8CHTO   H80 3227   5.900   9.217   0.402  1.7567 -4.0985  1.8139
    8CHTO   O31 3228   5.785   9.097   0.524 -0.2807  0.1396  0.0400
    8CHTO   H68 3229   5.861   9.111   0.577  0.2633 -2.4406 -0.0189
    8CHTO   C39 3230   5.699   9.292   0.401  0.0216  0.0943  0.4598
    8CHTO   H81 3231   5.599   9.249   0.400 -0.3937  0.9871  2.0708
    8CHTO    N7 3232   5.712   9.380   0.523  0.0707  0.1113 -0.4939
    8CHTO   H73 3233   5.805   9.427   0.551 -0.4565  1.9785 -1.7708
    8CHTO   H74 3234   5.646   9.357   0.605  1.2291  1.5422  0.8621
    8CHTO   C40 3235   5.718   9.379   0.271  0.8241  0.0886  0.2521
    8CHTO   H82 3236   5.817   9.424   0.272  0.7369  0.2932 -0.2365
    8CHTO   O26 3237   5.702   9.285   0.166 -0.0845 -0.4147 -0.8196
    8CHTO   C41 3238   5.787   9.167   0.147  0.4409 -0.3240 -0.2252
    8CHTO   H83 3239   5.887   9.198   0.112  1.3543 -1.0435  1.6446
    8CHTO   C52 3240   5.731   9.091   0.029 -0.2794 -0.8723 -0.4198
    8CHTO   O35 3241   5.706   9.185  -0.103 -0.4486 -0.5722 -0.2348
    8CHTO   H71 3242   5.699   9.125  -0.175 -0.8813  0.2956 -0.9237
    8CHTO   O28 3243   5.626   9.480   0.241  0.4422 -0.5222  0.5629
    8CHTO   C42 3244   5.642   9.584   0.127  0.0395 -0.0508  0.5005
    8CHTO   H84 3245   5.555   9.649   0.132  0.4315  0.5374 -0.2483
    8CHTO   C44 3246   5.650   9.535  -0.019 -0.4182 -0.0437  0.3614
    8CHTO   H86 3247   5.732   9.464  -0.024  0.1251  0.6328 -0.4011
    8CHTO   O32 3248   5.532   9.457  -0.059  0.0202  0.4112 -0.9799
    8CHTO   H69 3249   5.472   9.449   0.012  1.6752 -0.0333  0.4253
    8CHTO   C48 3250   5.679   9.658  -0.113  0.7965  0.7812 -0.5539
    8CHTO   H90 3251   5.592   9.723  -0.107 -0.6776 -1.2613  0.2371
    8CHTO    N9 3252   5.696   9.619  -0.261  0.0724  0.4634 -0.4626
    8CHTO   H77 3253   5.604   9.584  -0.307 -0.6297  0.1112  1.1557
    8CHTO   H78 3254   5.777   9.551  -0.284 -1.4466 -0.7693 -2.3909
    8CHTO   C51 3255   5.801   9.748  -0.063  0.3391  0.0058 -0.7694
    8CHTO   H93 3256   5.893   9.689  -0.072 -0.1494 -0.9582  0.3785
    8CHTO   O30 3257   5.778   9.791   0.071 -0.7739 -0.0410 -0.1963
    8CHTO   C46 3258   5.761   9.674   0.154 -0.3790 -0.1153  0.0582
    8CHTO   H88 3259   5.848   9.611   0.137  0.5714  0.8754  1.1736
    8CHTO   C53 3260   5.771   9.727   0.303  0.1813  0.0660  0.0898
    8CHTO   O72 3261   5.682   9.834   0.330  0.4634  0.1322  0.1725
    8CHTO  H199 3262   5.642   9.860   0.249 -0.2937 -4.9965 -1.2395
    8CHTO   O22 3263   5.802   9.875  -0.135 -0.6174 -0.2692  0.8504
    8CHTO   C31 3264   5.925   9.945  -0.168  0.2284  0.5180  0.1492
    8CHTO   H59 3265   5.893  10.032  -0.227 -2.9851  0.4162  1.6504
    8CHTO   C29 3266   6.006   9.996  -0.047 -0.4462 -0.1699  0.0540
    8CHTO   H57 3267   6.036   9.899  -0.006 -1.3915 -0.6903 -0.4962
    8CHTO   O21 3268   5.924  10.051   0.056 -0.1597 -0.2831 -0.0165
    8CHTO   H37 3269   5.845  10.002   0.067 -0.0548 -0.4378  0.0442
    8CHTO   C27 3270   6.134  10.082  -0.087  0.1959  0.4192 -0.4170
    8CHTO   H55 3271   6.097  10.171  -0.139  0.6663  1.6617  1.3036
    8CHTO    N5 3272   6.227  10.112   0.029 -0.5302  0.4532  0.4309
    8CHTO   H43 3273   6.324  10.130  -0.015 -0.7683  1.0171  0.1267
    8CHTO   H44 3274   6.208  10.195   0.094  0.2633  0.2200  0.9568
    8CHTO   C25 3275   6.219   9.997  -0.189 -0.0028  0.4304 -0.0812
    8CHTO   H53 3276   6.245   9.904  -0.136 -1.5732 -0.1763 -0.3254
    8CHTO   O17 3277   6.128   9.956  -0.291 -0.1329  0.5247  0.4065
    8CHTO   C32 3278   6.026   9.865  -0.259 -0.4527 -0.2018 -0.1651
    8CHTO   H60 3279   6.058   9.777  -0.202  0.9070  0.4725  0.1399
    8CHTO   C36 3280   5.961   9.827  -0.396  0.0051  0.2647 -0.0408
    8CHTO   O25 3281   5.926   9.934  -0.481  0.0171  0.3602 -0.4241
    8CHTO   H40 3282   5.993   9.945  -0.546  0.1378  1.9856 -0.0464
    8CHTO   O15 3283   6.332  10.039  -0.244  0.2185  0.2627 -0.7186
    8CHTO   C19 3284   6.426  10.017  -0.351  0.2898  0.1686  1.1965
    8CHTO   H47 3285   6.363  10.014  -0.441  4.4737  0.2114 -1.8699
    8CHTO   C20 3286   6.537  10.123  -0.378 -0.0890 -0.4794 -0.3034
    8CHTO   H48 3287   6.604  10.139  -0.292  2.3076 -1.2977 -1.9485
    8CHTO   O19 3288   6.460  10.240  -0.405  0.2272 -0.4353  0.0198
    8CHTO   H35 3289   6.419  10.273  -0.327  1.5023  2.3842 -0.4307
    8CHTO   C21 3290   6.646  10.081  -0.490  0.0542 -0.1853 -0.0866
    8CHTO   H49 3291   6.591  10.077  -0.584 -0.5921  0.4017  0.2509
    8CHTO    N4 3292   6.749  10.188  -0.499 -0.6755 -0.1473  0.0973
    8CHTO   H41 3293   6.805  10.214  -0.411 -1.6754 -0.2472  0.7651
    8CHTO   H42 3294   6.720  10.277  -0.552  2.3123 -1.0430 -3.3072
    8CHTO   C22 3295   6.701   9.939  -0.453 -0.4580 -0.5883 -0.2765
    8CHTO   H50 3296   6.749   9.950  -0.356 -0.3481  0.1433 -0.4080
    8CHTO   O14 3297   6.595   9.849  -0.441 -0.5541  0.2754  0.1073
    8CHTO   C23 3298   6.493   9.875  -0.342 -0.1732  0.0973 -0.1289
    8CHTO   H51 3299   6.547   9.866  -0.247 -1.8078 -3.2463  0.5274
    8CHTO   C34 3300   6.391   9.762  -0.360  0.2051  0.1046  0.0007
    8CHTO   O23 3301   6.450   9.638  -0.323 -0.3402  0.4077  0.1763
    8CHTO   H38 3302   6.401   9.579  -0.377  3.0627  0.0971 -2.7449
    8CHTO   O16 3303   6.793   9.879  -0.546 -0.8240  0.0578  0.2235
    8CHTO   C24 3304   6.903   9.777  -0.467  0.4526  0.4243  0.3999
    8CHTO   H52 3305   6.869   9.747  -0.368  1.9147  0.5205  0.9407
    8CHTO   C26 3306   7.039   9.846  -0.447 -0.0358 -0.2345  0.3566
    8CHTO   H54 3307   7.079   9.868  -0.549 -0.5080 -1.5879 -0.1398
    8CHTO   O20 3308   7.021   9.970  -0.382 -0.0355 -0.0770  0.3206
    8CHTO   H36 3309   6.947   9.975  -0.325 -0.0429  0.5306  0.2690
    8CHTO   C30 3310   7.131   9.756  -0.364  0.0333 -0.1716 -0.0357
    8CHTO   H58 3311   7.100   9.728  -0.262 -1.4470 -1.5988 -0.8484
    8CHTO    N6 3312   7.261   9.823  -0.336 -0.3094 -0.0979 -0.7608
    8CHTO   H45 3313   7.319   9.819  -0.427  0.8345  0.1773 -0.0612
    8CHTO   H46 3314   7.318   9.782  -0.254  0.4814  0.0244 -1.2393
    8CHTO   C33 3315   7.155   9.627  -0.444 -0.0444 -0.1529  0.1414
    8CHTO   H61 3316   7.206   9.641  -0.540  0.0318  2.1435  0.4942
    8CHTO   O18 3317   7.028   9.568  -0.475 -0.1525  0.2861 -0.1202
    8CHTO   C28 3318   6.927   9.639  -0.543  0.0100 -0.6181  1.1290
    8CHTO   H56 3319   6.978   9.661  -0.637  0.3682 -2.3007  0.9093
    8CHTO   C35 3320   6.808   9.551  -0.568 -0.5513  0.6250  0.7377
    8CHTO   O24 3321   6.714   9.607  -0.661 -0.2492  0.3604 -0.5687
    8CHTO   H39 3322   6.655   9.550  -0.706  0.3236  1.3712 -2.6730
    8CHTO    O9 3323   7.229   9.538  -0.371 -0.2030 -0.3360  0.0582
    8CHTO   C13 3324   7.282   9.397  -0.455  0.5117  0.3502  0.2778
    8CHTO   H26 3325   7.288   9.426  -0.562  0.2817 -0.0884  0.1425
    8CHTO   C11 3326   7.192   9.272  -0.425 -0.0870  0.5785  0.2346
    8CHTO   H24 3327   7.089   9.300  -0.452 -0.8438 -1.0454  1.3369
    8CHTO    O8 3328   7.179   9.220  -0.290 -0.0514 -0.1158  0.0652
    8CHTO    H3 3329   7.092   9.235  -0.258 -0.0272 -0.6130  0.3707
    8CHTO    C9 3330   7.251   9.157  -0.510 -0.4441 -0.5061  0.0108
    8CHTO   H22 3331   7.249   9.194  -0.613 -1.4745 -0.1883  0.1425
    8CHTO    N2 3332   7.150   9.044  -0.519 -0.2147  0.2364  0.2067
    8CHTO   H10 3333   7.055   9.089  -0.490 -0.8624 -0.4665 -0.7957
    8CHTO   H11 3334   7.176   8.974  -0.441  2.3167 -1.5348 -2.1733
    8CHTO    C7 3335   7.401   9.127  -0.461 -0.5248 -0.0471 -0.3275
    8CHTO   H20 3336   7.438   9.056  -0.537  0.0936 -0.6844  0.5503
    8CHTO    O4 3337   7.492   9.239  -0.468 -0.8329 -0.1575 -0.4786
    8CHTO   C14 3338   7.434   9.364  -0.423 -0.0533 -0.4663  0.2948
    8CHTO   H27 3339   7.498   9.438  -0.475  0.5986 -2.1509 -1.3438
    8CHTO   C18 3340   7.455   9.375  -0.273 -0.1081 -0.7528  0.3188
    8CHTO   O13 3341   7.594   9.381  -0.248 -0.3045 -0.1490  0.3743
    8CHTO    H7 3342   7.620   9.469  -0.268 -1.0589  0.2112  0.9693
    8CHTO    O2 3343   7.395   9.061  -0.312 -0.0341  0.1546 -0.1419
    8CHTO    C1 3344   7.483   8.952  -0.280  0.3938  0.3643 -0.3377
    8CHTO   H14 3345   7.474   8.925  -0.173  1.6092 -1.9390 -0.7806
    8CHTO    C2 3346   7.632   8.980  -0.317 -0.7587 -0.8599  0.4749
    8CHTO   H15 3347   7.639   9.000  -0.425 -0.8568 -1.2713  0.3913
    8CHTO    O6 3348   7.673   9.094  -0.243  0.3997  0.4775  0.2544
    8CHTO    H1 3349   7.764   9.087  -0.220 -0.0099  0.9254  2.1122
    8CHTO    C3 3350   7.717   8.845  -0.300  0.2729 -0.4669 -0.0526
    8CHTO   H16 3351   7.713   8.817  -0.194  0.0119  0.0527  0.0748
    8CHTO    N1 3352   7.851   8.866  -0.353  0.1638 -0.8964  0.3264
    8CHTO    H8 3353   7.852   8.854  -0.461 -0.9433  1.0258  0.0697
    8CHTO    H9 3354   7.886   8.965  -0.327 -0.5140 -0.5007 -0.2375
    8CHTO    C4 3355   7.643   8.717  -0.371  0.4084  0.2090 -0.2891
    8CHTO   H17 3356   7.645   8.728  -0.479 -0.3441 -1.6676 -0.5057
    8CHTO    O1 3357   7.506   8.717  -0.329 -0.1941 -0.1589  0.4409
    8CHTO    C5 3358   7.421   8.828  -0.353 -0.0250 -0.6114 -0.2638
    8CHTO   H18 3359   7.414   8.843  -0.461  3.0635 -0.7559 -0.5086
    8CHTO   C16 3360   7.276   8.794  -0.298  0.1456 -1.1203 -0.7337
    8CHTO   O11 3361   7.240   8.664  -0.331 -0.3691 -0.2606  0.3209
    8CHTO    H5 3362   7.152   8.659  -0.300  0.0938  0.3307  1.7690
    8CHTO    O3 3363   7.700   8.594  -0.334  0.2896 -0.3183 -0.5098
    8CHTO    C6 3364   7.674   8.473  -0.414 -0.0987 -0.2718  0.1192
    8CHTO   H19 3365   7.578   8.487  -0.463  0.2627  1.7591 -0.0513
    8CHTO    C8 3366   7.793   8.447  -0.510  0.3511  0.2454 -0.3719
    8CHTO   H21 3367   7.882   8.436  -0.448 -1.2847  1.3605  2.2791
    8CHTO    O7 3368   7.802   8.569  -0.588 -0.5879  0.0147 -0.3214
    8CHTO    H2 3369   7.870   8.561  -0.653  0.3303  3.2126  0.1518
    8CHTO   C12 3370   7.763   8.314  -0.583 -0.0869 -0.4506 -0.0223
    8CHTO   H25 3371   7.670   8.328  -0.643  0.1008  1.9043  0.1940
    8CHTO    N3 3372   7.864   8.284  -0.686  0.4131  1.1576  0.7025
    8CHTO   H12 3373   7.846   8.188  -0.731 -1.8893  0.9653  1.9526
    8CHTO   H13 3374   7.874   8.368  -0.754  2.0695 -0.1820 -0.7440
    8CHTO   C15 3375   7.743   8.198  -0.480  0.2112 -0.8308 -0.1451
    8CHTO   H28 3376   7.838   8.182  -0.428  0.1544  0.6595  0.4238
    8CHTO   O10 3377   7.686   8.070  -0.541  0.1581  0.1952 -0.3773
    8CHTO    H4 3378   7.724   7.995  -0.499 -2.9648  0.3386  2.9387
    8CHTO    O5 3379   7.639   8.227  -0.387  0.4994  0.0614 -0.2028
    8CHTO   C10 3380   7.659   8.350  -0.317 -0.4857 -0.6309 -0.7030
    8CHTO   H23 3381   7.755   8.332  -0.267 -1.3322 -0.1917  1.1080
    8CHTO   C17 3382   7.554   8.377  -0.211 -0.0890  0.0181 -0.3811
    8CHTO   O12 3383   7.421   8.339  -0.257  0.4840 -0.8121 -0.5044
    8CHTO    H6 3384   7.356   8.373  -0.198  0.8883 -0.2606 -0.3683
    9CHTO  H203 3385   7.167   4.764   4.761  0.8483  0.5594  0.8969
    9CHTO   O82 3386   7.181   4.851   4.729  0.1276  0.4528  0.2736
    9CHTO  C123 3387   7.321   4.849   4.684  0.5038  0.4981  0.5077
    9CHTO  H227 3388   7.387   4.857   4.772  0.8025  0.3817  0.2969
    9CHTO   O77 3389   7.334   4.717   4.619 -0.2116  0.0096 -0.3545
    9CHTO  C118 3390   7.460   4.679   4.570  0.3328  0.0432  0.0501
    9CHTO  H222 3391   7.540   4.706   4.641  1.2726  0.2495 -1.0529
    9CHTO  C125 3392   7.479   4.528   4.541 -0.4696 -0.5528  0.3920
    9CHTO   O84 3393   7.472   4.449   4.662  0.4815 -0.2977  0.5294
    9CHTO  H205 3394   7.487   4.358   4.643  0.2779 -0.1178 -0.5042
    9CHTO  C114 3395   7.488   4.781   4.454  0.1383  0.8150 -0.3538
    9CHTO  H218 3396   7.400   4.785   4.389 -0.7540 -1.1663  0.6745
    9CHTO  C116 3397   7.492   4.927   4.512 -0.2108  0.0236 -0.0240
    9CHTO  H220 3398   7.577   4.940   4.582  0.3738  0.7799 -0.8606
    9CHTO   O79 3399   7.520   5.008   4.402  0.0615 -0.3489  0.0472
    9CHTO  H201 3400   7.573   5.083   4.420  0.5261 -0.6579 -0.0110
    9CHTO  C120 3401   7.361   4.967   4.586  0.1289 -0.2646 -0.4324
    9CHTO  H224 3402   7.289   4.960   4.502  0.4973 -0.1477 -0.7615
    9CHTO   N21 3403   7.356   5.105   4.640 -0.1758  1.0820  0.0622
    9CHTO  H211 3404   7.415   5.125   4.729  0.6705  2.6671 -0.8357
    9CHTO  H212 3405   7.402   5.163   4.562 -3.4443  3.1823 -0.3618
    9CHTO   O75 3406   7.604   4.739   4.383 -0.2509  0.8298  0.3488
    9CHTO  C112 3407   7.566   4.686   4.220 -0.0925 -0.7185 -0.3877
    9CHTO  H216 3408   7.472   4.731   4.185  0.0955  0.6186  0.7931
    9CHTO   O73 3409   7.560   4.540   4.225 -0.1206  1.0682 -0.0873
    9CHTO  C113 3410   7.571   4.466   4.104 -0.2465 -0.0335  0.2008
    9CHTO  H217 3411   7.479   4.497   4.052 -0.7211  2.2312  2.2874
    9CHTO  C124 3412   7.559   4.318   4.127 -0.2505 -0.2244  0.6453
    9CHTO   O83 3413   7.437   4.277   4.187 -0.1175  0.3038 -0.0106
    9CHTO  H204 3414   7.405   4.193   4.159 -0.6374  0.2813  0.6580
    9CHTO  C109 3415   7.691   4.509   4.026 -0.7690  0.1908 -0.5199
    9CHTO  H213 3416   7.778   4.481   4.087 -2.1017 -0.8223  0.9606
    9CHTO  C110 3417   7.687   4.662   3.995 -0.2141  0.0963  0.7630
    9CHTO  H214 3418   7.594   4.677   3.940  0.4532  1.8968  0.1094
    9CHTO   O78 3419   7.804   4.693   3.914  0.3993  0.4569  0.8905
    9CHTO  H200 3420   7.802   4.778   3.873 -1.4934 -0.2372 -0.5626
    9CHTO  C111 3421   7.688   4.738   4.132  0.1087  0.2524  0.1534
    9CHTO  H215 3422   7.786   4.718   4.179 -0.6175 -0.7475  1.2578
    9CHTO   N19 3423   7.680   4.887   4.119  0.2234  0.3068 -0.2972
    9CHTO  H207 3424   7.605   4.899   4.042 -0.0806 -2.0621 -0.3854
    9CHTO  H208 3425   7.640   4.942   4.203 -2.7082 -2.1457  0.0041
    9CHTO   O74 3426   7.686   4.430   3.899  0.4132 -0.4739  1.2027
    9CHTO  C115 3427   7.826   4.384   3.850 -0.1641 -0.3170  0.2325
    9CHTO  H219 3428   7.904   4.450   3.890  1.6018 -2.0020 -0.3889
    9CHTO   O76 3429   7.866   4.236   3.918  0.2115 -0.0673 -0.3191
    9CHTO  C122 3430   7.785   4.125   3.870 -0.4111 -0.1963 -0.0141
    9CHTO  H226 3431   7.681   4.141   3.900 -0.5967 -0.2425 -0.6190
    9CHTO  C126 3432   7.831   3.981   3.924 -0.0010 -0.4046 -0.6434
    9CHTO   O85 3433   7.820   3.976   4.066  0.5633  0.1066 -0.3950
    9CHTO  H206 3434   7.876   4.041   4.105 -0.3231 -0.3409  1.6544
    9CHTO  C121 3435   7.782   4.116   3.718  1.4491  0.1481  0.2027
    9CHTO  H225 3436   7.879   4.091   3.670  1.6562 -0.0931  0.7404
    9CHTO   O81 3437   7.687   4.017   3.691 -0.1421 -0.3634  0.4633
    9CHTO  H202 3438   7.715   3.931   3.716 -0.3889 -1.3751 -2.5255
    9CHTO  C119 3439   7.730   4.252   3.652  0.1350 -0.0012  0.0448
    9CHTO  H223 3440   7.731   4.243   3.544 -2.1728 -0.9132  0.0485
    9CHTO  C117 3441   7.819   4.375   3.692 -0.2667  0.6733 -0.7075
    9CHTO  H221 3442   7.785   4.475   3.666  0.5675  0.7666 -1.5056
    9CHTO   N20 3443   7.964   4.369   3.649  0.1291 -0.0322 -0.3346
    9CHTO  H209 3444   8.003   4.464   3.681 -1.2889  0.1356  0.9633
    9CHTO  H210 3445   7.971   4.349   3.543  0.5993 -0.0690 -0.2973
    9CHTO   O80 3446   7.585   4.283   3.678  1.0567  0.0981  0.1504
    9CHTO  C103 3447   7.524   4.412   3.620  0.2975 -0.2027  0.4786
    9CHTO  H190 3448   7.570   4.498   3.668  1.4073  0.5131 -1.8327
    9CHTO  C101 3449   7.527   4.436   3.459  0.3440  0.9451 -0.4087
    9CHTO  H188 3450   7.502   4.344   3.407 -2.4972  0.5416  1.4997
    9CHTO   O68 3451   7.671   4.468   3.415  0.4293 -0.1270 -0.3981
    9CHTO  H168 3452   7.675   4.495   3.325 -1.5691  2.0748  0.1039
    9CHTO   C99 3453   7.436   4.564   3.423  0.3049  0.0255 -0.4769
    9CHTO  H186 3454   7.472   4.652   3.479 -0.0861 -1.5285  2.2921
    9CHTO   N17 3455   7.435   4.597   3.274 -0.3950  0.6935 -0.3617
    9CHTO  H174 3456   7.511   4.667   3.243 -0.7664  0.6481 -1.3861
    9CHTO  H175 3457   7.439   4.513   3.207 -0.7757  0.9741 -0.7411
    9CHTO   C97 3458   7.291   4.543   3.464  0.4656  0.6603  0.3483
    9CHTO  H184 3459   7.265   4.452   3.409  1.2517  1.0028 -0.6164
    9CHTO   O64 3460   7.298   4.526   3.608  0.1525  0.2206  0.4364
    9CHTO  C104 3461   7.373   4.411   3.661  0.6220 -0.0465 -0.9484
    9CHTO  H191 3462   7.325   4.321   3.625 -2.8403  1.0202  0.8420
    9CHTO  C108 3463   7.353   4.418   3.811 -0.5171 -0.2008 -0.5510
    9CHTO   O71 3464   7.223   4.441   3.861  0.1314  0.5660 -0.4116
    9CHTO  H171 3465   7.224   4.411   3.950  1.3308 -1.0892 -0.9606
    9CHTO   O62 3466   7.195   4.645   3.433 -0.2999  0.2990  0.1446
    9CHTO   C91 3467   7.060   4.593   3.393 -0.7811 -0.2778 -0.2120
    9CHTO  H178 3468   7.080   4.531   3.305 -0.2807 -0.7521  0.2403
    9CHTO   C92 3469   6.997   4.714   3.320 -0.3822  0.6029  0.7083
    9CHTO  H179 3470   7.064   4.754   3.243  1.3185  0.8927  2.3190
    9CHTO   O66 3471   6.885   4.659   3.233 -0.4144 -0.1496 -0.0019
    9CHTO  H166 3472   6.913   4.585   3.183 -0.2208  0.7689 -1.2743
    9CHTO   C93 3473   6.927   4.813   3.417 -0.1022 -0.6665 -0.4396
    9CHTO  H180 3474   6.861   4.877   3.356 -0.7962  0.0119  1.0040
    9CHTO   N16 3475   7.025   4.915   3.470  0.6293  0.7025  0.3615
    9CHTO  H172 3476   7.072   4.969   3.389 -0.6468 -0.2451 -1.0393
    9CHTO  H173 3477   6.973   4.986   3.532  2.4749 -0.9547  3.9639
    9CHTO   C94 3478   6.843   4.742   3.536 -0.4504 -0.1947  0.5040
    9CHTO  H181 3479   6.887   4.761   3.634 -2.1510 -0.2504  1.2881
    9CHTO   O61 3480   6.831   4.601   3.510  0.0483 -0.7496  0.0845
    9CHTO   C95 3481   6.953   4.528   3.493  0.4944 -0.0667  0.4238
    9CHTO  H182 3482   7.000   4.517   3.591  0.6512  1.3523  0.5264
    9CHTO  C106 3483   6.894   4.388   3.454 -0.5602 -0.5611  0.3194
    9CHTO   O69 3484   6.990   4.290   3.402 -0.3440 -0.1001  0.1182
    9CHTO  H169 3485   6.948   4.206   3.401 -1.7492  0.5287  2.4978
    9CHTO   O63 3486   6.706   4.795   3.531  0.3802  0.1511  0.2049
    9CHTO   C96 3487   6.582   4.783   3.654  0.2244  0.4533 -0.6484
    9CHTO  H183 3488   6.628   4.797   3.752 -0.1969 -0.6002 -0.2925
    9CHTO   C98 3489   6.520   4.639   3.662 -0.5545  0.6439  0.0222
    9CHTO  H185 3490   6.491   4.611   3.560 -2.1746 -0.1422  0.6949
    9CHTO   O67 3491   6.622   4.541   3.701  0.0438  0.2886 -0.2659
    9CHTO  H167 3492   6.691   4.541   3.637 -1.7721 -0.4981 -2.2831
    9CHTO  C102 3493   6.401   4.636   3.769 -0.3044  0.0370  0.3469
    9CHTO  H189 3494   6.452   4.658   3.864 -0.2646  0.0689  0.3184
    9CHTO   N18 3495   6.340   4.502   3.790  0.1990 -0.0476 -0.0247
    9CHTO  H176 3496   6.249   4.488   3.733  0.2316 -1.8193  0.3246
    9CHTO  H177 3497   6.306   4.500   3.892  0.0984 -1.2881 -0.0715
    9CHTO  C105 3498   6.303   4.752   3.740 -0.4091  0.0689  0.5236
    9CHTO  H192 3499   6.244   4.729   3.651  1.0763  0.2214 -0.5354
    9CHTO   O65 3500   6.371   4.876   3.730 -0.1531 -0.2712  0.1292
    9CHTO  C100 3501   6.472   4.886   3.630  0.3354 -0.2571 -0.0812
    9CHTO  H187 3502   6.429   4.870   3.530 -1.5736  0.7977  0.5466
    9CHTO  C107 3503   6.536   5.032   3.622  0.1119 -0.2449 -0.2887
    9CHTO   O70 3504   6.429   5.132   3.625 -1.0658  0.0388  0.2089
    9CHTO  H170 3505   6.467   5.207   3.583 -0.8082 -0.6217 -0.7595
    9CHTO   O57 3506   6.206   4.765   3.888 -0.7388 -0.2681 -0.6208
    9CHTO   C85 3507   6.081   4.835   3.895 -0.2560 -0.2512  0.2238
    9CHTO  H157 3508   6.008   4.790   3.824  0.9548 -0.5919 -0.8189
    9CHTO   C83 3509   6.103   4.977   3.824  0.5022  0.4417 -1.0084
    9CHTO  H155 3510   6.119   4.945   3.721 -0.2165 -2.7792 -0.1899
    9CHTO   O56 3511   6.215   5.044   3.878  0.1373 -0.0737 -0.5532
    9CHTO  H135 3512   6.218   5.134   3.853  0.7629 -0.1432 -0.7426
    9CHTO   C81 3513   5.966   5.047   3.825  0.2757 -0.1103 -0.4714
    9CHTO  H153 3514   5.893   4.980   3.780 -0.5158  0.1263  0.4207
    9CHTO   N14 3515   5.967   5.161   3.730  0.2225 -0.3030  0.2182
    9CHTO  H141 3516   5.992   5.128   3.631  0.0105  0.2653 -0.0248
    9CHTO  H142 3517   6.043   5.230   3.761  0.4220 -0.6550  0.5196
    9CHTO   C79 3518   5.917   5.074   3.973 -0.5390 -0.7852  0.1843
    9CHTO  H151 3519   5.819   5.122   3.968 -0.0610  0.3578  1.6437
    9CHTO   O52 3520   5.895   4.945   4.036 -0.4030 -0.2924  0.0357
    9CHTO   C86 3521   6.020   4.862   4.035 -0.3398  0.2410 -0.0248
    9CHTO  H158 3522   6.091   4.911   4.105  1.2579  1.2301 -2.2821
    9CHTO   C90 3523   5.976   4.728   4.098  1.0325 -0.2529  0.7142
    9CHTO   O60 3524   5.958   4.745   4.238 -0.4034  0.3335 -0.2949
    9CHTO  H138 3525   5.877   4.707   4.264 -0.1886  0.4513  0.5788
    9CHTO   O50 3526   6.012   5.163   4.036 -0.2109  0.1976 -0.0155
    9CHTO   C73 3527   6.025   5.284   4.117  0.1500  0.9291  0.4141
    9CHTO  H145 3528   5.934   5.295   4.178  1.1522  1.6221  1.8165
    9CHTO   C74 3529   6.051   5.405   4.034 -0.6694 -0.4104  0.8377
    9CHTO  H146 3530   5.965   5.417   3.967 -0.2001  0.5013  0.3858
    9CHTO   O54 3531   6.051   5.512   4.125 -0.0116  0.0874  0.1544
    9CHTO  H133 3532   5.966   5.524   4.162 -0.1013  0.3062 -0.1217
    9CHTO   C75 3533   6.180   5.382   3.955 -0.4386  0.3497 -0.1392
    9CHTO  H147 3534   6.158   5.307   3.877  0.6069  0.1401 -0.2508
    9CHTO   N13 3535   6.228   5.498   3.874 -0.2537 -0.3101  0.4934
    9CHTO  H139 3536   6.244   5.585   3.936  1.3740  0.0476 -0.4159
    9CHTO  H140 3537   6.319   5.484   3.818 -1.2472  3.0075 -2.1594
    9CHTO   C76 3538   6.305   5.319   4.038 -0.0986 -0.8338  0.2550
    9CHTO  H148 3539   6.364   5.395   4.090 -0.4082  0.6839 -1.5485
    9CHTO   O49 3540   6.260   5.215   4.133 -0.0698 -0.2911  0.8048
    9CHTO   C77 3541   6.149   5.261   4.206  0.4008  0.5834 -0.2962
    9CHTO  H149 3542   6.158   5.353   4.263 -0.7890  0.0333  0.8051
    9CHTO   C88 3543   6.119   5.151   4.305 -0.6766 -0.5697  0.2327
    9CHTO   O58 3544   6.180   5.174   4.432  0.4263  0.0291  0.1253
    9CHTO  H136 3545   6.132   5.247   4.465 -0.4689  0.3644 -1.8535
    9CHTO   O51 3546   6.382   5.242   3.956  0.2089  0.2103 -0.2597
    9CHTO   C78 3547   6.560   5.257   3.995  0.0646  0.8951  0.2844
    9CHTO  H150 3548   6.569   5.312   4.091  1.1657  3.2117 -1.1114
    9CHTO   C80 3549   6.637   5.336   3.883  0.1134 -0.0347  0.6993
    9CHTO  H152 3550   6.608   5.294   3.785  0.2370 -0.9383  1.0476
    9CHTO   O55 3551   6.585   5.469   3.879 -0.3036  0.0206  0.4918
    9CHTO  H134 3552   6.634   5.523   3.819 -2.3163  2.9425  1.3865
    9CHTO   C84 3553   6.795   5.343   3.923  0.2958 -0.5011 -0.9259
    9CHTO  H156 3554   6.799   5.410   4.010  2.3853  0.7653 -1.9584
    9CHTO   N15 3555   6.879   5.410   3.819 -0.3041 -0.1337  0.3155
    9CHTO  H143 3556   6.836   5.396   3.722  1.3531  1.5636 -0.7055
    9CHTO  H144 3557   6.978   5.370   3.820 -0.2586 -0.0084  1.4293
    9CHTO   C87 3558   6.845   5.201   3.949 -0.1581 -0.5895  0.2473
    9CHTO  H159 3559   6.843   5.136   3.862  1.8994 -1.2116  0.6200
    9CHTO   O53 3560   6.761   5.136   4.055  0.1210 -0.0412 -0.6868
    9CHTO   C82 3561   6.625   5.118   4.011  0.4247  0.4490 -0.1796
    9CHTO  H154 3562   6.621   5.068   3.915 -0.8056  0.0825  0.0531
    9CHTO   C89 3563   6.559   5.034   4.117 -0.7193  0.4863 -0.1407
    9CHTO   O59 3564   6.433   4.990   4.071  0.3740  0.1696  0.3216
    9CHTO  H137 3565   6.401   4.933   4.138 -1.4731 -0.6416 -1.1979
    9CHTO   O45 3566   7.002   5.205   4.013 -0.0841 -0.3165 -0.4052
    9CHTO   C67 3567   7.048   5.086   4.058 -1.3685  0.3598 -0.3005
    9CHTO  H124 3568   6.969   5.026   4.102  0.6268 -0.2579  2.6114
    9CHTO   C65 3569   7.109   5.000   3.940 -0.2481  0.2214 -0.0287
    9CHTO  H122 3570   7.157   5.074   3.875 -0.7445 -1.1751 -2.0341
    9CHTO   O44 3571   6.997   4.944   3.870 -0.2986  0.2539  0.0135
    9CHTO  H102 3572   6.932   5.006   3.843 -1.1610  0.3238  2.1560
    9CHTO   C63 3573   7.225   4.905   3.991  0.2769 -0.3111 -0.0187
    9CHTO  H120 3574   7.316   4.966   3.991 -0.5080  0.8842 -0.1559
    9CHTO   N11 3575   7.271   4.794   3.900 -0.2772 -0.2134  0.1384
    9CHTO  H108 3576   7.193   4.774   3.829  0.8754 -2.0867 -0.6322
    9CHTO  H109 3577   7.321   4.711   3.945  0.3843 -0.6417 -1.3636
    9CHTO   C61 3578   7.197   4.860   4.142 -0.4133  0.6901  0.3674
    9CHTO  H118 3579   7.276   4.789   4.170 -0.7144 -0.4908 -1.6772
    9CHTO   O40 3580   7.215   4.983   4.225  0.6227  0.1325  0.5526
    9CHTO   C68 3581   7.155   5.105   4.172 -0.7844  0.4368 -0.2725
    9CHTO  H125 3582   7.233   5.169   4.125  0.8207 -0.5468  0.9913
    9CHTO   C72 3583   7.098   5.180   4.280  0.5960 -0.4721 -0.0308
    9CHTO   O48 3584   7.191   5.270   4.331 -0.6428 -0.0749 -0.4610
    9CHTO  H105 3585   7.208   5.251   4.421 -0.0808 -1.9635 -0.9614
    9CHTO   O38 3586   7.067   4.804   4.168 -0.1416 -0.1246  0.1820
    9CHTO   C55 3587   7.045   4.734   4.292  0.4080 -0.4423 -0.2898
    9CHTO  H112 3588   7.096   4.795   4.368 -2.8139  0.6856  1.0537
    9CHTO   C56 3589   7.084   4.583   4.293  0.0496  0.9303 -0.8680
    9CHTO  H113 3590   7.021   4.539   4.214 -0.5591 -0.2817  0.2750
    9CHTO   O42 3591   7.222   4.571   4.254  0.0079  0.1868 -0.2112
    9CHTO  H100 3592   7.264   4.631   4.314 -1.2099  0.2648  0.5758
    9CHTO   C57 3593   7.061   4.514   4.432  0.1061  0.6732 -0.4415
    9CHTO  H114 3594   7.122   4.572   4.501  0.3553 -1.6760  1.3741
    9CHTO   N10 3595   7.114   4.375   4.441  0.1245  0.2242 -0.3859
    9CHTO  H106 3596   7.207   4.367   4.386  0.5980 -0.7392  0.5300
    9CHTO  H107 3597   7.128   4.347   4.545 -2.8335 -3.0769 -0.7995
    9CHTO   C58 3598   6.909   4.528   4.472  0.3013 -0.1780 -0.1655
    9CHTO  H115 3599   6.849   4.466   4.402  0.9104 -1.5389  0.4822
    9CHTO   O37 3600   6.869   4.668   4.468  0.2687 -0.1081  0.1630
    9CHTO   C59 3601   6.891   4.729   4.336 -0.0665 -0.0810 -0.5041
    9CHTO  H116 3602   6.844   4.670   4.257  1.3682  0.1106 -1.5172
    9CHTO   C70 3603   6.845   4.872   4.345  0.4967  0.0558 -0.1910
    9CHTO   O46 3604   6.708   4.881   4.372 -0.0777 -0.2919 -0.6612
    9CHTO  H103 3605   6.665   4.827   4.436 -1.0813 -0.9971 -1.8956
    9CHTO   O39 3606   6.887   4.472   4.616 -0.5643  0.0356 -0.2462
    9CHTO   C60 3607   6.748   4.439   4.650 -0.3360 -0.2862  0.2145
    9CHTO  H117 3608   6.681   4.499   4.588  1.0135  2.4221  1.2644
    9CHTO   C62 3609   6.727   4.284   4.639  0.2605 -0.2867 -0.1521
    9CHTO  H119 3610   6.739   4.252   4.534  1.1776  0.5073 -0.2986
    9CHTO   O43 3611   6.828   4.215   4.721  0.9395 -0.3133 -0.1731
    9CHTO  H101 3612   6.825   4.238   4.812 -0.7660  0.7537 -0.4708
    9CHTO   C66 3613   6.570   4.247   4.674 -0.2407 -0.3083 -0.7620
    9CHTO  H123 3614   6.507   4.302   4.605 -2.2248  0.0476  1.2844
    9CHTO   N12 3615   6.537   4.103   4.650 -0.1600  0.4796 -0.0416
    9CHTO  H110 3616   6.444   4.082   4.701 -0.2776 -0.1650 -0.5331
    9CHTO  H111 3617   6.535   4.071   4.547  1.1199  0.0500  0.0562
    9CHTO   C69 3618   6.545   4.303   4.816 -0.4768  0.2672 -0.6769
    9CHTO  H126 3619   6.617   4.259   4.889 -3.3589 -3.5054  0.0735
    9CHTO   O41 3620   6.576   4.457   4.820 -0.3994 -0.2924  0.4486
    9CHTO   C64 3621   6.718   4.489   4.796 -0.0610 -0.0710  1.0076
    9CHTO  H121 3622   6.787   4.438   4.867  0.0811  0.4066  1.2185
    9CHTO   C71 3623   6.725   4.642   4.810  0.5472  0.4481 -0.1406
    9CHTO   O47 3624   6.858   4.694   4.786  0.2008  0.3824 -0.0228
    9CHTO  H104 3625   6.916   4.668   4.856  1.0251 -0.4358 -1.0007
    9CHTO   O34 3626   6.391   4.275   4.875  0.0472  0.6306 -0.0485
    9CHTO   C49 3627   6.280   4.287   4.957  0.0427  0.9507 -0.0868
    9CHTO   H91 3628   6.195   4.303   4.889  0.1622 -2.8494 -1.2503
    9CHTO   C47 3629   6.288   4.409   5.054 -0.2709  0.1020  0.2608
    9CHTO   H89 3630   6.191   4.419   5.106 -0.5033  3.1598 -0.6356
    9CHTO   O33 3631   6.308   4.529   4.984 -0.9521  0.1692 -0.3158
    9CHTO   H70 3632   6.225   4.557   4.949 -1.1531 -1.0232 -0.8108
    9CHTO   C45 3633   6.411   4.391   5.159  0.9515 -0.4982 -0.5083
    9CHTO   H87 3634   6.500   4.437   5.113 -0.2724  1.6595 -0.7873
    9CHTO    N8 3635   6.376   4.466   5.285 -0.0410 -0.1255 -0.8587
    9CHTO   H75 3636   6.467   4.492   5.337 -0.1276 -1.3283 -0.0944
    9CHTO   H76 3637   6.320   4.555   5.261 -0.1302  0.1373  0.2845
    9CHTO   C43 3638   6.453   4.245   5.167  1.0112  0.7209  0.0610
    9CHTO   H85 3639   6.516   4.220   5.082  1.1516  4.8225 -1.1922
    9CHTO   O29 3640   6.332   4.163   5.169 -0.2593 -0.3135  0.4289
    9CHTO   C50 3641   6.263   4.165   5.047  0.4960  0.2475 -0.4145
    9CHTO   H92 3642   6.290   4.072   4.994 -0.5833 -0.8027  0.8504
    9CHTO   C54 3643   6.111   4.142   5.074  0.2479 -0.3520  0.0709
    9CHTO   O36 3644   6.019   4.139   4.965  0.4295 -0.3387 -0.2293
    9CHTO   H72 3645   5.930   4.130   4.992  0.4938  0.6240  0.3182
    9CHTO   O27 3646   6.542   4.214   5.281  0.5844  0.1241 -0.3440
    9CHTO   C37 3647   6.673   4.241   5.327 -0.2557 -0.0030  0.5267
    9CHTO   H79 3648   6.726   4.155   5.371 -1.0216  0.6429  2.7401
    9CHTO   C38 3649   6.760   4.285   5.200 -0.0700 -0.0765  0.5373
    9CHTO   H80 3650   6.696   4.349   5.137 -1.0720 -1.0361  0.5520
    9CHTO   O31 3651   6.781   4.168   5.118  0.1930 -0.4171 -0.1121
    9CHTO   H68 3652   6.700   4.128   5.094 -1.3839  1.1635  2.3739
    9CHTO   C39 3653   6.897   4.360   5.231  0.1162 -0.2831 -0.5539
    9CHTO   H81 3654   6.968   4.287   5.269 -0.3135 -1.2302 -1.5248
    9CHTO    N7 3655   6.967   4.418   5.112 -0.1265  0.4453  0.6645
    9CHTO   H73 3656   7.061   4.454   5.148  0.9199 -0.6700 -0.8522
    9CHTO   H74 3657   6.913   4.506   5.079  0.7894  0.5569 -0.5684
    9CHTO   C40 3658   6.874   4.463   5.353  0.5530  0.0672  0.3535
    9CHTO   H82 3659   6.809   4.541   5.315 -1.1287 -2.2140 -1.6623
    9CHTO   O26 3660   6.808   4.384   5.465  0.2822 -0.6002  0.4414
    9CHTO   C41 3661   6.674   4.350   5.434 -0.0639  0.5898 -0.3578
    9CHTO   H83 3662   6.616   4.434   5.393 -1.0476 -0.2659 -0.7521
    9CHTO   C52 3663   6.607   4.306   5.570 -0.4611  0.0357 -0.1114
    9CHTO   O35 3664   6.675   4.185   5.637  0.0074 -0.0460 -0.1716
    9CHTO   H71 3665   6.692   4.122   5.569  2.1346  2.2958 -1.9253
    9CHTO   O28 3666   6.998   4.519   5.395  0.8759 -0.2298 -0.0701
    9CHTO   C42 3667   6.994   4.648   5.461 -0.8789  0.1598 -0.0624
    9CHTO   H84 3668   7.097   4.668   5.492 -1.4469  1.0512  1.3089
    9CHTO   C44 3669   6.907   4.659   5.595  0.0830  0.1507 -0.5115
    9CHTO   H86 3670   6.806   4.627   5.569  0.7644  0.5480 -3.8847
    9CHTO   O32 3671   6.962   4.568   5.694  0.3368  0.3253  0.0335
    9CHTO   H69 3672   6.916   4.487   5.690 -1.6206  1.3573  1.3246
    9CHTO   C48 3673   6.892   4.808   5.654  0.1957 -0.1962 -0.3376
    9CHTO   H90 3674   6.991   4.851   5.670  0.4931 -1.0832  0.2449
    9CHTO    N9 3675   6.813   4.818   5.783 -0.2378 -0.2875 -0.1736
    9CHTO   H77 3676   6.840   4.734   5.844 -1.3543 -0.0423  0.6661
    9CHTO   H78 3677   6.705   4.824   5.787 -0.1837  0.5585  0.1647
    9CHTO   C51 3678   6.841   4.903   5.532 -0.0614 -0.0109  0.3879
    9CHTO   H93 3679   6.750   4.858   5.494 -0.2065  1.1701 -0.6884
    9CHTO   O30 3680   6.946   4.902   5.431  0.4302 -0.0158  0.6711
    9CHTO   C46 3681   6.954   4.765   5.364  0.5984 -0.1435  0.3042
    9CHTO   H88 3682   6.851   4.749   5.332  0.9325 -0.9221 -0.4178
    9CHTO   C53 3683   7.042   4.770   5.239  0.1626  0.5045  0.0437
    9CHTO   O72 3684   6.959   4.774   5.118 -0.6919 -0.4877 -0.1693
    9CHTO  H199 3685   7.011   4.785   5.042 -0.4052  0.1039  0.1108
    9CHTO   O22 3686   6.816   5.040   5.571  0.1656 -0.1419 -0.3276
    9CHTO   C31 3687   6.754   5.136   5.482 -0.1050 -0.1522  0.6939
    9CHTO   H59 3688   6.697   5.202   5.551  0.0688  0.2265  0.4768
    9CHTO   C29 3689   6.850   5.224   5.399 -1.0285  0.6108  0.1057
    9CHTO   H57 3690   6.925   5.154   5.359 -0.5606  0.0115  1.9995
    9CHTO   O21 3691   6.912   5.309   5.493  0.3005  0.3760 -0.7689
    9CHTO   H37 3692   6.986   5.350   5.453  0.8360  1.2992  1.1028
    9CHTO   C27 3693   6.790   5.300   5.277 -0.6204  0.2182 -0.0471
    9CHTO   H55 3694   6.733   5.385   5.319 -3.9503 -1.8823 -0.1231
    9CHTO    N5 3695   6.893   5.354   5.189  0.0185  0.1851  0.0518
    9CHTO   H43 3696   6.856   5.423   5.114 -2.1789 -1.2815 -0.2722
    9CHTO   H44 3697   6.929   5.269   5.133  1.8513  1.9904 -1.5839
    9CHTO   C25 3698   6.684   5.220   5.192 -0.3568 -0.2669 -0.0956
    9CHTO   H53 3699   6.734   5.128   5.158 -0.2106 -0.4651  0.6393
    9CHTO   O17 3700   6.592   5.176   5.297 -0.3785 -0.0702  0.6997
    9CHTO   C32 3701   6.653   5.068   5.381  0.1841 -0.2004 -1.1335
    9CHTO   H60 3702   6.708   4.991   5.327  2.7013 -0.1237  1.1440
    9CHTO   C36 3703   6.528   5.006   5.452 -0.1840  0.1816 -0.0498
    9CHTO   O25 3704   6.466   4.895   5.377  0.2292  0.1316  0.0391
    9CHTO   H40 3705   6.415   4.923   5.304 -1.0644  0.5913  1.0871
    9CHTO   O15 3706   6.612   5.292   5.094  0.0526  0.0286  0.1224
    9CHTO   C19 3707   6.535   5.246   4.970  0.1521  0.6777  0.0719
    9CHTO   H47 3708   6.485   5.338   4.934 -1.0572  0.0099  0.0327
    9CHTO   C20 3709   6.628   5.183   4.861 -1.1351 -0.1354  0.1274
    9CHTO   H48 3710   6.679   5.093   4.897 -1.6168 -1.1853 -1.7250
    9CHTO   O19 3711   6.722   5.292   4.842  0.0519 -0.1206 -0.1139
    9CHTO   H35 3712   6.801   5.253   4.808  0.1509  1.2624 -1.5601
    9CHTO   C21 3713   6.548   5.141   4.737 -0.4092  0.3632  0.3199
    9CHTO   H49 3714   6.513   5.230   4.683 -0.4543 -0.5303 -1.1484
    9CHTO    N4 3715   6.636   5.078   4.632 -1.1005  0.2142  0.1198
    9CHTO   H41 3716   6.709   5.152   4.600  0.3373 -0.7482  1.0761
    9CHTO   H42 3717   6.576   5.049   4.547 -0.1258 -1.6116  0.0307
    9CHTO   C22 3718   6.426   5.056   4.779 -0.3058 -0.8332  1.0673
    9CHTO   H50 3719   6.462   4.959   4.814 -1.4980 -2.9436 -3.1791
    9CHTO   O14 3720   6.349   5.121   4.875 -0.5807 -0.0652  1.1330
    9CHTO   C23 3721   6.416   5.152   5.001  0.2123  0.0844  0.2054
    9CHTO   H51 3722   6.449   5.061   5.053 -3.5488 -0.1345  2.3846
    9CHTO   C34 3723   6.310   5.221   5.090 -0.3010  0.5950  0.3235
    9CHTO   O23 3724   6.230   5.130   5.165  0.7445 -0.0158  0.2673
    9CHTO   H38 3725   6.164   5.093   5.111  0.7124  1.7358 -0.9328
    9CHTO   O16 3726   6.343   5.018   4.668  0.2533  0.4466  0.5155
    9CHTO   C24 3727   6.240   4.890   4.710 -0.5656  0.1380  0.4373
    9CHTO   H52 3728   6.234   4.875   4.818  0.9001  1.8446  0.7836
    9CHTO   C26 3729   6.299   4.760   4.647 -0.3365 -0.2353 -0.2072
    9CHTO   H54 3730   6.315   4.782   4.540  3.4239 -0.0501  0.3049
    9CHTO   O20 3731   6.436   4.738   4.690  0.0615 -0.0490 -0.6218
    9CHTO   H36 3732   6.476   4.822   4.674 -0.7038  0.1855 -1.3356
    9CHTO   C30 3733   6.212   4.632   4.677 -1.1904 -0.9765 -0.1759
    9CHTO   H58 3734   6.225   4.595   4.780  1.9271  0.0099 -0.1714
    9CHTO    N6 3735   6.262   4.518   4.593  0.0727  0.4233 -0.0983
    9CHTO   H45 3736   6.365   4.484   4.603 -0.7227 -3.0820 -2.8523
    9CHTO   H46 3737   6.196   4.434   4.610 -1.0196  1.4970  1.0281
    9CHTO   C33 3738   6.066   4.656   4.659 -0.0321  0.1714  0.0353
    9CHTO   H61 3739   6.037   4.643   4.554 -1.4577  1.0904  0.3026
    9CHTO   O18 3740   6.027   4.783   4.705  0.6838 -0.2669 -0.4142
    9CHTO   C28 3741   6.097   4.903   4.664 -0.3180 -0.4167 -0.6473
    9CHTO   H56 3742   6.094   4.918   4.556  0.0283 -2.3983 -0.9427
    9CHTO   C35 3743   6.027   5.030   4.720  0.1593 -0.0187 -0.3593
    9CHTO   O24 3744   6.030   5.054   4.862  0.5673 -0.4499 -0.6759
    9CHTO   H39 3745   5.944   5.044   4.898  0.7057 -1.0450 -0.5146
    9CHTO    O9 3746   5.984   4.554   4.722  0.4545 -0.0240 -0.2043
    9CHTO   C13 3747   5.827   4.543   4.647  0.7114 -0.0191 -0.0000
    9CHTO   H26 3748   5.839   4.544   4.537 -1.7808  1.1854 -0.2957
    9CHTO   C11 3749   5.730   4.658   4.695  0.5161  0.1332  0.2995
    9CHTO   H24 3750   5.748   4.727   4.612 -1.7405 -1.4765 -1.5850
    9CHTO    O8 3751   5.781   4.710   4.818 -0.1193  0.0701  0.5666
    9CHTO    H3 3752   5.763   4.799   4.842  0.4440  0.5273 -0.6760
    9CHTO    C9 3753   5.579   4.614   4.701  0.1713 -0.1760 -0.0889
    9CHTO   H22 3754   5.556   4.588   4.597  3.1013 -0.5482 -0.6874
    9CHTO    N2 3755   5.486   4.727   4.727 -0.3553  0.2248 -0.0220
    9CHTO   H10 3756   5.415   4.714   4.806 -0.0296  0.4718  0.3154
    9CHTO   H11 3757   5.437   4.741   4.632 -0.7933 -1.8783 -0.1228
    9CHTO    C7 3758   5.568   4.489   4.799  0.3560  0.4628  0.5423
    9CHTO   H20 3759   5.477   4.432   4.771 -0.0614  1.1346  0.5150
    9CHTO    O4 3760   5.684   4.404   4.793 -0.3605  0.0352 -0.0833
    9CHTO   C14 3761   5.759   4.407   4.667 -0.8126  0.5859  0.4389
    9CHTO   H27 3762   5.687   4.380   4.586 -1.4886  0.1658  1.1676
    9CHTO   C18 3763   5.856   4.285   4.671 -0.5882 -0.1710 -0.1032
    9CHTO   O13 3764   5.804   4.153   4.663  0.5428 -0.6249 -0.3084
    9CHTO    H7 3765   5.745   4.132   4.732  1.3322  2.1103  1.3059
    9CHTO    O2 3766   5.555   4.533   4.951  0.4746  0.3242 -0.4453
    9CHTO    C1 3767   5.521   4.429   5.043 -0.2688  0.1049 -0.1677
    9CHTO   H14 3768   5.521   4.329   4.996  0.8850  0.2501 -0.4880
    9CHTO    C2 3769   5.374   4.465   5.104  0.3211  0.3909 -0.3391
    9CHTO   H15 3770   5.373   4.575   5.114  3.6263  0.4479 -0.1882
    9CHTO    O6 3771   5.280   4.430   5.002 -0.0609 -0.2239  0.4499
    9CHTO    H1 3772   5.317   4.371   4.939  0.9394 -0.0394  0.8643
    9CHTO    C3 3773   5.341   4.372   5.231  0.5085 -0.3522  0.8217
    9CHTO   H16 3774   5.329   4.269   5.195 -0.6127  0.2385 -0.5482
    9CHTO    N1 3775   5.216   4.412   5.303  0.6876  0.2424  0.0637
    9CHTO    H8 3776   5.139   4.433   5.230  0.0487  1.5559  1.0922
    9CHTO    H9 3777   5.236   4.496   5.367 -1.1496 -0.0749  1.0985
    9CHTO    C4 3778   5.455   4.359   5.335 -0.8206 -0.0526  0.5048
    9CHTO   H17 3779   5.467   4.455   5.387 -0.5639  0.4878 -0.5345
    9CHTO    O1 3780   5.575   4.332   5.268 -0.1142  0.7776  0.4960
    9CHTO    C5 3781   5.621   4.429   5.166 -0.7322 -0.4811 -0.0045
    9CHTO   H18 3782   5.623   4.528   5.213 -3.1048 -0.2758 -0.2853
    9CHTO   C16 3783   5.770   4.391   5.128  0.3849 -0.2439  0.5230
    9CHTO   O11 3784   5.796   4.249   5.103 -0.0569  0.1271 -0.4803
    9CHTO    H5 3785   5.758   4.226   5.021 -1.5195  0.0766  0.2034
    9CHTO    O3 3786   5.428   4.253   5.434  0.0883  0.2038  0.2612
    9CHTO    C6 3787   5.504   4.251   5.566 -0.5284 -0.6557  0.0897
    9CHTO   H19 3788   5.587   4.322   5.574 -0.9971 -0.0442 -0.4712
    9CHTO    C8 3789   5.414   4.289   5.688 -0.2970  0.3628 -0.0716
    9CHTO   H21 3790   5.332   4.217   5.691 -2.0083  2.2237 -0.7961
    9CHTO    O7 3791   5.372   4.421   5.658 -0.4586  0.1526 -0.5079
    9CHTO    H2 3792   5.394   4.490   5.718 -1.9480  0.3669 -0.1867
    9CHTO   C12 3793   5.503   4.280   5.814 -0.7230 -0.1846 -0.3636
    9CHTO   H25 3794   5.581   4.358   5.802 -0.6630 -0.2408 -0.3385
    9CHTO    N3 3795   5.421   4.318   5.931 -0.4746 -0.0672  0.3086
    9CHTO   H12 3796   5.387   4.420   5.928 -0.0752  0.0977  1.2641
    9CHTO   H13 3797   5.467   4.298   6.026  0.3706  1.0048  0.1299
    9CHTO   C15 3798   5.574   4.139   5.830  0.0814 -0.8990 -0.1241
    9CHTO   H28 3799   5.504   4.065   5.869 -1.7481  0.2743 -1.0806
    9CHTO   O10 3800   5.696   4.145   5.935 -0.1637  0.0881  0.4703
    9CHTO    H4 3801   5.666   4.144   6.023  1.9988  2.1237  1.2956
    9CHTO    O5 3802   5.646   4.108   5.708 -0.8123 -0.2636 -0.0356
    9CHTO   C10 3803   5.562   4.108   5.595 -0.1425  0.5550  0.3513
    9CHTO   H23 3804   5.483   4.036   5.615 -0.5366  1.1496  0.9766
    9CHTO   C17 3805   5.638   4.055   5.475 -0.1605  0.1738 -0.5741
    9CHTO   O12 3806   5.748   4.134   5.439 -0.1092 -0.7209 -0.3845
    9CHTO    H6 3807   5.773   4.117   5.350 -0.1641  1.2957 -0.8075
   10CHTO  H203 3808   6.108   6.885   5.078 -0.4982 -1.2786  1.0453
   10CHTO   O82 3809   6.038   6.862   5.021  0.1559  0.2550 -0.3930
   10CHTO  C123 3810   5.901   6.857   5.066 -0.4375  0.7834  0.2725
   10CHTO  H227 3811   5.848   6.941   5.018  2.2270  2.3465 -0.0533
   10CHTO   O77 3812   5.858   6.731   5.009 -0.4111 -0.2268  0.1863
   10CHTO  C118 3813   5.725   6.689   5.047 -0.3506 -0.1077 -0.0810
   10CHTO  H222 3814   5.652   6.763   5.010  1.0402 -0.1626 -3.0445
   10CHTO  C125 3815   5.703   6.554   4.962 -0.9026 -0.9315 -0.0866
   10CHTO   O84 3816   5.562   6.515   4.952  0.2281  0.3359  0.0874
   10CHTO  H205 3817   5.532   6.529   5.039  1.1605  0.0903  0.4620
   10CHTO  C114 3818   5.709   6.668   5.200  0.1693 -0.9704 -0.2990
   10CHTO  H218 3819   5.780   6.591   5.232  0.7794 -0.2946 -0.0163
   10CHTO  C116 3820   5.748   6.791   5.272 -0.0936 -0.4598 -0.2993
   10CHTO  H220 3821   5.665   6.863   5.254  0.8656  1.1511  1.4969
   10CHTO   O79 3822   5.753   6.775   5.412 -0.2076 -0.4091 -0.2564
   10CHTO  H201 3823   5.741   6.857   5.457 -1.7513 -1.3515  1.1183
   10CHTO  C120 3824   5.889   6.852   5.223  0.7176 -0.3128 -0.2847
   10CHTO  H224 3825   5.966   6.790   5.274  3.0961  3.0582  0.4134
   10CHTO   N21 3826   5.916   6.988   5.284 -0.3557  0.5666 -0.2819
   10CHTO  H211 3827   5.892   7.080   5.232  1.5355  0.5688 -1.1808
   10CHTO  H212 3828   5.882   6.988   5.387 -0.1634 -1.7511 -0.2116
   10CHTO   O75 3829   5.571   6.634   5.221 -0.0234 -0.0916 -0.1254
   10CHTO  C112 3830   5.534   6.567   5.355  0.0364 -0.1418 -0.0129
   10CHTO  H216 3831   5.573   6.628   5.438 -0.9394 -1.7163  1.6505
   10CHTO   O73 3832   5.586   6.434   5.358  0.2482 -0.3195  0.2658
   10CHTO  C113 3833   5.558   6.367   5.482  0.2858 -0.1064 -0.3251
   10CHTO  H217 3834   5.601   6.421   5.569 -2.8227  2.5032 -0.3342
   10CHTO  C124 3835   5.632   6.230   5.470 -0.6075  0.4080  0.0677
   10CHTO   O83 3836   5.775   6.253   5.465 -0.2262 -0.3815  0.2132
   10CHTO  H204 3837   5.797   6.298   5.544  1.4913  1.0075 -1.0169
   10CHTO  C109 3838   5.409   6.343   5.501 -0.1063 -0.1664 -0.1709
   10CHTO  H213 3839   5.373   6.293   5.410 -0.0916 -0.5652  0.0453
   10CHTO  C110 3840   5.334   6.489   5.507  0.3593 -0.4429 -0.2202
   10CHTO  H214 3841   5.367   6.539   5.599 -0.0238 -0.5527 -0.0222
   10CHTO   O78 3842   5.192   6.482   5.522  0.5979  0.5480 -0.4264
   10CHTO  H200 3843   5.162   6.404   5.564  0.8556  0.3618 -0.5895
   10CHTO  C111 3844   5.375   6.567   5.379 -0.0171  0.6405  0.5081
   10CHTO  H215 3845   5.322   6.517   5.296  0.1960  0.6647  0.3557
   10CHTO   N19 3846   5.334   6.709   5.378 -0.3565  0.5866 -0.3398
   10CHTO  H207 3847   5.365   6.745   5.281  0.7877 -1.6493 -0.8355
   10CHTO  H208 3848   5.385   6.766   5.454 -2.2499  0.2208  1.2480
   10CHTO   O74 3849   5.371   6.271   5.625  0.5231  0.8552  0.1665
   10CHTO  C115 3850   5.269   6.142   5.602  0.5249 -0.3259 -0.1938
   10CHTO  H219 3851   5.209   6.153   5.512  0.0454 -1.0491  0.0305
   10CHTO   O76 3852   5.344   6.019   5.581 -0.1266  0.2446  0.5249
   10CHTO  C122 3853   5.389   5.966   5.705 -0.3835 -0.5421 -0.4965
   10CHTO  H226 3854   5.450   6.043   5.753 -0.2138 -0.6760 -0.4943
   10CHTO  C126 3855   5.486   5.841   5.683  0.5417  0.5620 -0.5098
   10CHTO   O85 3856   5.423   5.720   5.661 -0.2486  0.3953  0.1835
   10CHTO  H206 3857   5.378   5.706   5.580 -0.6183  1.9019  0.1263
   10CHTO  C121 3858   5.269   5.939   5.805 -0.0656 -0.5670 -0.0231
   10CHTO  H225 3859   5.245   5.831   5.802  1.2122 -0.8343 -0.6993
   10CHTO   O81 3860   5.318   5.982   5.930 -0.0764  0.4703  0.4021
   10CHTO  H202 3861   5.318   5.920   6.001 -1.3036  0.4268  0.3805
   10CHTO  C119 3862   5.137   6.015   5.775 -0.1741  0.1142  0.6540
   10CHTO  H223 3863   5.096   5.965   5.687  0.9697 -1.3593  0.9369
   10CHTO  C117 3864   5.165   6.153   5.726 -0.1220  0.4070  0.4285
   10CHTO  H221 3865   5.216   6.216   5.799  1.4851  0.3595 -0.6141
   10CHTO   N20 3866   5.040   6.229   5.683  0.4714 -0.6399  0.2225
   10CHTO  H209 3867   4.985   6.242   5.775  0.2850 -0.7031  0.1205
   10CHTO  H210 3868   5.056   6.324   5.634 -0.9685 -1.0816 -1.1220
   10CHTO   O80 3869   5.040   5.989   5.878  0.6864  0.3472  0.0556
   10CHTO  C103 3870   4.923   5.893   5.861 -0.3491 -0.0318 -0.1194
   10CHTO  H190 3871   4.899   5.888   5.755  1.0889 -1.0798 -0.4105
   10CHTO  C101 3872   4.937   5.746   5.910  0.4207 -0.7155  0.0582
   10CHTO  H188 3873   4.948   5.736   6.018  0.0527 -0.3132  0.1352
   10CHTO   O68 3874   5.074   5.677   5.851  0.2147  0.0909  0.4392
   10CHTO  H168 3875   5.076   5.673   5.757 -3.1288  0.5862  0.2888
   10CHTO   C99 3876   4.802   5.659   5.866  0.0101  0.3033  0.6716
   10CHTO  H186 3877   4.779   5.654   5.758  1.1753  0.4880  0.4085
   10CHTO   N17 3878   4.807   5.514   5.913 -0.5802 -0.0422 -0.6101
   10CHTO  H174 3879   4.835   5.512   6.018  0.3599 -1.6016 -0.8655
   10CHTO  H175 3880   4.886   5.468   5.855  0.4343  0.1315  0.5976
   10CHTO   C97 3881   4.688   5.727   5.932  0.1693  1.0327  0.4821
   10CHTO  H184 3882   4.704   5.707   6.039 -1.7073 -1.7139  0.2916
   10CHTO   O64 3883   4.679   5.867   5.899  0.8569  0.0480 -0.2810
   10CHTO  C104 3884   4.795   5.953   5.933  0.7924  0.1284 -0.4041
   10CHTO  H191 3885   4.806   5.953   6.041  2.4545  2.2245 -0.5353
   10CHTO  C108 3886   4.755   6.095   5.899  0.3570  0.9501  0.2843
   10CHTO   O71 3887   4.853   6.188   5.941  0.4895  0.1993  0.4213
   10CHTO  H171 3888   4.824   6.277   5.929 -0.3040 -0.0186  0.7572
   10CHTO   O62 3889   4.559   5.674   5.880  0.0035  0.2408 -0.2025
   10CHTO   C91 3890   4.444   5.690   5.970 -0.3664 -0.2317  0.3054
   10CHTO  H178 3891   4.470   5.746   6.059  2.3178 -0.5122 -0.2649
   10CHTO   C92 3892   4.398   5.549   6.030 -1.7549 -0.0043  0.3528
   10CHTO  H179 3893   4.363   5.491   5.943 -0.2489  0.1573 -0.3659
   10CHTO   O66 3894   4.510   5.487   6.094 -0.3926  0.5201  0.2550
   10CHTO  H166 3895   4.490   5.396   6.101 -0.4353  0.4998 -0.1082
   10CHTO   C93 3896   4.275   5.565   6.128  0.4392 -0.2287 -0.8358
   10CHTO  H180 3897   4.312   5.593   6.228  1.5869 -1.2332 -0.9799
   10CHTO   N16 3898   4.209   5.433   6.152  0.0230 -0.2962 -0.2359
   10CHTO  H172 3899   4.133   5.420   6.076  0.1425  0.3526 -0.4766
   10CHTO  H173 3900   4.283   5.355   6.150 -1.0697 -1.3117 -2.6315
   10CHTO   C94 3901   4.171   5.663   6.080 -0.1073 -0.2408 -0.2889
   10CHTO  H181 3902   4.101   5.619   6.009  0.9185 -1.8528 -0.3178
   10CHTO   O61 3903   4.220   5.772   6.001 -0.0676  0.5305  0.2316
   10CHTO   C95 3904   4.317   5.740   5.905 -0.0678 -0.1918  0.1501
   10CHTO  H182 3905   4.279   5.661   5.840 -0.6754  0.2675 -0.0546
   10CHTO  C106 3906   4.344   5.859   5.806 -0.1892 -0.4226  0.0513
   10CHTO   O69 3907   4.379   5.987   5.865 -0.2208  0.1991 -0.2029
   10CHTO  H169 3908   4.472   5.999   5.861 -0.2466  0.7944  0.7683
   10CHTO   O63 3909   4.091   5.729   6.213  0.3286 -0.2973 -0.1908
   10CHTO   C96 3910   4.174   5.825   6.301 -0.4340 -0.2252  0.5426
   10CHTO  H183 3911   4.273   5.835   6.257 -0.5039  1.6280  0.7799
   10CHTO   C98 3912   4.194   5.795   6.453 -0.3142 -0.4735 -0.2014
   10CHTO  H185 3913   4.097   5.765   6.495 -0.1280  0.9827  1.3053
   10CHTO   O67 3914   4.283   5.684   6.475 -0.5234  0.7807  0.5126
   10CHTO  H167 3915   4.254   5.636   6.550 -0.7302  1.8931  1.1552
   10CHTO  C102 3916   4.255   5.923   6.529 -0.4836  0.4392 -0.0648
   10CHTO  H189 3917   4.347   5.952   6.477  0.0347 -1.3602 -0.2026
   10CHTO   N18 3918   4.285   5.894   6.673  0.6328 -0.7990  0.2920
   10CHTO  H176 3919   4.319   5.792   6.685  0.6682 -0.8031  0.1579
   10CHTO  H177 3920   4.356   5.966   6.712  0.5075 -0.2903 -0.4159
   10CHTO  C105 3921   4.169   6.049   6.507  0.2410 -0.2571 -0.4601
   10CHTO  H192 3922   4.077   6.038   6.564 -0.0020 -0.8730 -0.9775
   10CHTO   O65 3923   4.133   6.074   6.375 -0.2715 -0.6108  0.3618
   10CHTO  C100 3924   4.091   5.966   6.288  0.6314  0.2336  0.0009
   10CHTO  H187 3925   3.986   5.944   6.314  0.9195 -0.0883  0.9188
   10CHTO  C107 3926   4.090   6.028   6.141  0.1014 -0.0399 -0.5615
   10CHTO   O70 3927   3.969   6.089   6.109  0.3695 -0.2573  0.1722
   10CHTO  H170 3928   3.898   6.028   6.104  0.3734 -0.2288 -0.3198
   10CHTO   O57 3929   4.259   6.164   6.570  0.8832  0.8627 -0.1616
   10CHTO   C85 3930   4.204   6.297   6.592  0.2389  0.1106 -0.4488
   10CHTO  H157 3931   4.101   6.289   6.551  0.1306 -0.6784 -0.0319
   10CHTO   C83 3932   4.275   6.405   6.508  0.9797  0.6268 -0.2835
   10CHTO  H155 3933   4.254   6.390   6.402  0.2152 -1.4958  0.1467
   10CHTO   O56 3934   4.420   6.399   6.518  0.5480 -0.5073 -0.0925
   10CHTO  H135 3935   4.454   6.380   6.604 -0.6526 -1.7019  0.1275
   10CHTO   C81 3936   4.212   6.544   6.553  0.8102  0.6629  0.1513
   10CHTO  H153 3937   4.104   6.530   6.541  0.9039  0.6226 -0.6788
   10CHTO   N14 3938   4.236   6.659   6.463 -0.8326 -0.8105 -0.2444
   10CHTO  H141 3939   4.154   6.726   6.452  1.2131  2.1047  1.5649
   10CHTO  H142 3940   4.265   6.626   6.366  2.4740 -1.0108  0.7376
   10CHTO   C79 3941   4.241   6.570   6.701  0.1132  0.0395  0.0526
   10CHTO  H151 3942   4.194   6.667   6.720  0.9438  0.8270 -1.8251
   10CHTO   O52 3943   4.174   6.472   6.793 -0.0194 -0.1047  0.1714
   10CHTO   C86 3944   4.208   6.336   6.751  0.6374 -0.4432  0.6041
   10CHTO  H158 3945   4.304   6.315   6.803  0.7466  1.4792  1.2325
   10CHTO   C90 3946   4.099   6.251   6.813  0.2123 -0.0418  0.4153
   10CHTO   O60 3947   3.964   6.277   6.779  0.3239 -0.9344  0.1827
   10CHTO  H138 3948   3.912   6.229   6.842 -2.4147 -2.1705 -2.8658
   10CHTO   O50 3949   4.381   6.577   6.738 -0.9671  1.1800  0.4578
   10CHTO   C73 3950   4.516   6.558   6.758 -0.1201 -0.8393  0.1836
   10CHTO  H145 3951   4.551   6.485   6.683  1.3273  0.1572 -0.1471
   10CHTO   C74 3952   4.548   6.500   6.895 -0.3902 -0.4139 -0.3343
   10CHTO  H146 3953   4.489   6.408   6.911  3.1662 -2.8989 -1.0087
   10CHTO   O54 3954   4.680   6.448   6.892  0.1067  0.1014 -0.5716
   10CHTO  H133 3955   4.713   6.440   6.979  0.9927  0.1779 -0.8889
   10CHTO   C75 3956   4.523   6.610   7.006 -0.6238  0.1841 -0.4291
   10CHTO  H147 3957   4.424   6.656   6.991 -1.2694 -0.9352  0.3066
   10CHTO   N13 3958   4.544   6.563   7.149 -0.3648 -0.2316  0.1906
   10CHTO  H139 3959   4.456   6.510   7.180  0.8978 -2.1191  0.6413
   10CHTO  H140 3960   4.536   6.645   7.218  1.5294  0.7528 -0.7120
   10CHTO   C76 3961   4.614   6.729   6.970 -0.0064  0.1045 -0.1812
   10CHTO  H148 3962   4.715   6.688   6.974  0.1055  0.4034  0.0498
   10CHTO   O49 3963   4.591   6.784   6.844  0.1275  0.8942  0.4253
   10CHTO   C77 3964   4.598   6.695   6.734  0.1425 -0.7919  0.7098
   10CHTO  H149 3965   4.703   6.674   6.718 -0.0753 -1.7857  0.5388
   10CHTO   C88 3966   4.556   6.772   6.608  0.2751  0.2871 -0.3109
   10CHTO   O58 3967   4.591   6.682   6.498  0.5229 -0.4411  0.0667
   10CHTO  H136 3968   4.595   6.741   6.424 -1.4717 -0.6635 -0.2437
   10CHTO   O51 3969   4.585   6.844   7.076 -0.3530 -1.3704 -0.0964
   10CHTO   C78 3970   4.689   6.960   7.096 -0.0150 -0.0105 -0.0837
   10CHTO  H150 3971   4.767   6.961   7.017  0.4474  2.2527  0.3888
   10CHTO   C80 3972   4.758   6.946   7.231  0.4382 -0.2647 -0.5800
   10CHTO  H152 3973   4.682   6.917   7.306  1.1200 -0.0397  0.2179
   10CHTO   O55 3974   4.840   6.828   7.225  0.0550  0.3771  0.1614
   10CHTO  H134 3975   4.903   6.830   7.295 -0.2260  1.0207  0.3990
   10CHTO   C84 3976   4.844   7.076   7.267 -0.1156 -0.2964 -0.3420
   10CHTO  H156 3977   4.937   7.076   7.210  0.1358  1.0141  0.0282
   10CHTO   N15 3978   4.893   7.067   7.414 -0.4350  0.1062  0.3870
   10CHTO  H143 3979   4.820   7.102   7.485 -0.3446 -3.0208  2.0961
   10CHTO  H144 3980   4.918   6.967   7.442 -0.3970  0.4598  1.6960
   10CHTO   C87 3981   4.780   7.217   7.243  0.2229  0.0438  0.2843
   10CHTO  H159 3982   4.701   7.229   7.317 -1.6427 -0.0091 -1.6460
   10CHTO   O53 3983   4.707   7.211   7.088  0.4066  0.1257  0.2232
   10CHTO   C82 3984   4.620   7.098   7.072 -0.4410 -0.3831 -0.2013
   10CHTO  H154 3985   4.540   7.116   7.144 -1.4556  1.6881 -1.7926
   10CHTO   C89 3986   4.550   7.103   6.937 -0.1114 -0.2864 -0.1293
   10CHTO   O59 3987   4.636   7.062   6.829  0.0933 -0.0219  0.3648
   10CHTO  H137 3988   4.627   7.117   6.754 -1.3860 -1.0304 -0.2172
   10CHTO   O45 3989   4.887   7.341   7.248 -0.3856  0.5399  0.0717
   10CHTO   C67 3990   4.823   7.464   7.290  0.0653 -0.8512  0.1176
   10CHTO  H124 3991   4.715   7.459   7.277 -0.0723 -0.9795  1.2577
   10CHTO   C65 3992   4.851   7.497   7.442  0.1097 -0.2937  0.0699
   10CHTO  H122 3993   4.811   7.411   7.495 -0.7371  1.2581  2.0292
   10CHTO   O44 3994   4.780   7.616   7.475 -0.0306 -0.0778  0.0605
   10CHTO  H102 3995   4.831   7.665   7.537 -1.8096 -0.4095  1.8445
   10CHTO   C63 3996   5.009   7.506   7.453 -0.4949 -0.0200 -0.0710
   10CHTO  H120 3997   5.051   7.415   7.411  0.1496  1.3300 -2.4579
   10CHTO   N11 3998   5.063   7.501   7.595  0.0292 -0.2504  0.8992
   10CHTO  H108 3999   5.167   7.476   7.591 -0.1662 -0.8489 -1.0774
   10CHTO  H109 4000   5.060   7.602   7.630  1.8028  0.1491 -0.0486
   10CHTO   C61 4001   5.066   7.625   7.366  0.3619 -0.6093 -0.4022
   10CHTO  H118 4002   5.167   7.590   7.342  0.9079  0.6800 -0.0272
   10CHTO   O40 4003   5.001   7.643   7.238  0.3656  0.5357 -0.0926
   10CHTO   C68 4004   4.874   7.584   7.194 -0.2933  0.7552 -0.0459
   10CHTO  H125 4005   4.902   7.542   7.095 -0.8153  1.0210 -0.3132
   10CHTO   C72 4006   4.767   7.698   7.165 -0.0006  0.2292  0.7516
   10CHTO   O48 4007   4.806   7.765   7.043 -0.0926  0.0284 -0.2302
   10CHTO  H105 4008   4.891   7.805   7.039  0.0253 -0.2831 -0.8145
   10CHTO   O38 4009   5.046   7.757   7.426 -0.2254 -0.2361  0.0666
   10CHTO   C55 4010   5.149   7.857   7.397  0.2454 -0.1530  0.2932
   10CHTO  H112 4011   5.202   7.834   7.303  1.4690 -0.4362  1.0354
   10CHTO   C56 4012   5.253   7.863   7.512 -0.3571  0.5170 -0.7391
   10CHTO  H113 4013   5.194   7.866   7.605  1.8281  0.9803  0.6812
   10CHTO   O42 4014   5.323   7.739   7.527  0.5385  0.2625  0.5679
   10CHTO  H100 4015   5.348   7.727   7.617  3.7347 -1.9770 -0.5417
   10CHTO   C57 4016   5.351   7.988   7.503  0.4493 -0.1808  0.3521
   10CHTO  H114 4017   5.425   7.953   7.431 -1.2816 -0.9327 -1.0982
   10CHTO   N10 4018   5.426   8.013   7.626 -0.9655 -0.2184  0.3727
   10CHTO  H106 4019   5.369   8.056   7.708 -0.5032 -1.0768  1.1519
   10CHTO  H107 4020   5.463   7.917   7.659  2.0344 -0.0507 -2.3115
   10CHTO   C58 4021   5.281   8.120   7.457 -0.3080 -0.1221  0.0116
   10CHTO  H115 4022   5.217   8.162   7.537  1.6701  1.7346  0.6735
   10CHTO   O37 4023   5.195   8.098   7.337  0.2364  0.5205 -0.6157
   10CHTO   C59 4024   5.094   8.003   7.362 -0.3946 -0.2133  0.5839
   10CHTO  H116 4025   5.034   8.041   7.445  1.1539 -0.4655  1.8363
   10CHTO   C70 4026   5.007   7.995   7.229  0.1224  0.2053  0.3940
   10CHTO   O46 4027   4.939   8.117   7.203 -0.0024  0.1086  0.3078
   10CHTO  H103 4028   4.938   8.116   7.109  1.6176  1.4142  0.2520
   10CHTO   O39 4029   5.396   8.238   7.390 -0.3163  0.1512 -0.5137
   10CHTO   C60 4030   5.344   8.372   7.396 -0.3622 -0.2938  0.1556
   10CHTO  H117 4031   5.245   8.371   7.351 -0.4519  0.9763  0.3049
   10CHTO   C62 4032   5.324   8.414   7.546  0.6487 -0.1079 -0.2884
   10CHTO  H119 4033   5.234   8.368   7.592  1.1583 -0.5924  0.2400
   10CHTO   O43 4034   5.440   8.366   7.617  0.1262 -0.3661 -0.1808
   10CHTO  H101 4035   5.427   8.397   7.704 -0.1166  2.6875 -1.2559
   10CHTO   C66 4036   5.286   8.577   7.540 -0.5977  1.1045 -0.1819
   10CHTO  H123 4037   5.184   8.591   7.505 -0.4930 -0.4399 -1.1582
   10CHTO   N12 4038   5.293   8.638   7.671 -0.4421 -0.3243 -0.2577
   10CHTO  H110 4039   5.378   8.603   7.728  0.3974 -1.9361 -2.4376
   10CHTO  H111 4040   5.262   8.741   7.682  1.8712  0.4248 -0.4815
   10CHTO   C69 4041   5.369   8.670   7.443 -0.1623  0.0116  0.0598
   10CHTO  H126 4042   5.478   8.673   7.463 -0.2078 -0.2107  0.3504
   10CHTO   O41 4043   5.372   8.595   7.301  0.1126  0.3449  0.2283
   10CHTO   C64 4044   5.434   8.469   7.308 -0.2444  0.0382  0.6739
   10CHTO  H121 4045   5.537   8.481   7.348 -0.1773  2.5907 -0.1410
   10CHTO   C71 4046   5.451   8.407   7.164  0.3923  0.4927 -0.4750
   10CHTO   O47 4047   5.326   8.381   7.097  0.2897 -0.2854  0.9317
   10CHTO  H104 4048   5.316   8.446   7.030  0.1245  0.6501  1.8615
   10CHTO   O34 4049   5.311   8.815   7.422  0.1239  0.6769  0.4362
   10CHTO   C49 4050   5.389   8.917   7.344 -0.1944  0.0505 -0.9649
   10CHTO   H91 4051   5.491   8.880   7.349  0.0015  0.7109 -0.0364
   10CHTO   C47 4052   5.366   9.051   7.419  0.0036  1.0499 -0.6304
   10CHTO   H89 4053   5.426   9.133   7.374  0.6011  1.5359  1.0282
   10CHTO   O33 4054   5.421   9.032   7.551 -0.1418 -0.3614 -0.3831
   10CHTO   H70 4055   5.411   9.114   7.594  0.9322 -0.5686  0.2690
   10CHTO   C45 4056   5.209   9.093   7.404 -0.4534  0.0554 -0.3938
   10CHTO   H87 4057   5.153   9.007   7.443 -0.7335  1.0037  1.3888
   10CHTO    N8 4058   5.179   9.205   7.492 -0.0143  0.1811  0.3863
   10CHTO   H75 4059   5.085   9.191   7.544  0.0134 -0.5466  0.2438
   10CHTO   H76 4060   5.177   9.297   7.435  1.0622  0.3999  0.6938
   10CHTO   C43 4061   5.177   9.122   7.250 -0.1760  0.4212  0.4681
   10CHTO   H85 4062   5.074   9.155   7.241 -0.5355 -1.4477 -3.3415
   10CHTO   O29 4063   5.212   9.009   7.174 -0.5263  0.1212 -0.2377
   10CHTO   C50 4064   5.343   8.938   7.199 -0.2249 -0.2993  0.1606
   10CHTO   H92 4065   5.331   8.842   7.147  0.1286 -0.0674 -0.3637
   10CHTO   C54 4066   5.455   8.998   7.118 -0.1593 -0.2835  0.2107
   10CHTO   O36 4067   5.409   9.042   6.986  0.3115 -0.2135 -0.6281
   10CHTO   H72 4068   5.481   9.036   6.926  1.0990 -1.8126  0.4339
   10CHTO   O27 4069   5.246   9.236   7.192 -0.0681 -0.1473  0.2839
   10CHTO   C37 4070   5.260   9.319   7.077 -0.0312  0.3524 -0.2590
   10CHTO   H79 4071   5.353   9.295   7.025  0.4934  0.8064  0.4517
   10CHTO   C38 4072   5.137   9.293   6.976  0.1287  0.1993  0.3897
   10CHTO   H80 4073   5.042   9.323   7.022 -1.4472 -0.5846 -2.2553
   10CHTO   O31 4074   5.132   9.149   6.942  0.0898  0.6350  0.1400
   10CHTO   H68 4075   5.209   9.114   6.901  0.0328 -1.4395  1.7281
   10CHTO   C39 4076   5.152   9.373   6.841  0.5203 -0.1813  0.0926
   10CHTO   H81 4077   5.241   9.332   6.794  0.8809 -0.8047  1.2840
   10CHTO    N7 4078   5.033   9.355   6.745 -0.2773 -0.1290  0.1346
   10CHTO   H73 4079   4.955   9.294   6.788  0.6094  0.1020  2.1571
   10CHTO   H74 4080   4.997   9.448   6.702  0.7938 -0.4394 -1.4928
   10CHTO   C40 4081   5.176   9.529   6.875 -0.7568 -0.2757 -0.5108
   10CHTO   H82 4082   5.080   9.570   6.906 -0.9043 -0.0677 -1.2335
   10CHTO   O26 4083   5.278   9.544   6.981  0.1861 -0.0964 -0.0292
   10CHTO   C41 4084   5.261   9.472   7.103  0.3265 -0.7130  0.2332
   10CHTO   H83 4085   5.160   9.499   7.138 -0.6216 -2.0512 -1.4135
   10CHTO   C52 4086   5.370   9.519   7.191  0.1739 -0.7730 -0.3255
   10CHTO   O35 4087   5.370   9.466   7.324  0.3453 -0.0548 -0.2611
   10CHTO   H71 4088   5.403   9.379   7.322  2.5190  0.7561 -1.9326
   10CHTO   O28 4089   5.261   9.593   6.783 -0.3073  0.1923  0.2197
   10CHTO   C42 4090   5.261   9.727   6.723 -0.1078 -0.0353 -0.6795
   10CHTO   H84 4091   5.160   9.767   6.735 -0.1416 -0.0070 -1.0524
   10CHTO   C44 4092   5.294   9.728   6.564 -0.4663 -0.2891 -0.3944
   10CHTO   H86 4093   5.398   9.698   6.556 -0.6565 -0.5337 -2.1127
   10CHTO   O32 4094   5.198   9.637   6.503 -0.2575 -0.5435 -0.0730
   10CHTO   H69 4095   5.108   9.657   6.524 -0.0400  0.5496 -0.1531
   10CHTO   C48 4096   5.277   9.875   6.505 -0.7069 -0.5010 -0.3687
   10CHTO   H90 4097   5.179   9.922   6.516 -1.0872 -1.1735 -0.8207
   10CHTO    N9 4098   5.295   9.884   6.358 -0.1868  0.3626  0.1455
   10CHTO   H77 4099   5.204   9.842   6.316  0.3586 -0.0690 -0.6152
   10CHTO   H78 4100   5.305   9.989   6.335 -1.5668  0.1529 -1.5088
   10CHTO   C51 4101   5.378   9.975   6.573 -0.2180  0.3567  0.4885
   10CHTO   H93 4102   5.478   9.943   6.545 -1.1579 -0.3559 -2.1596
   10CHTO   O30 4103   5.359   9.975   6.716  1.0593  0.0494 -0.5657
   10CHTO   C46 4104   5.354   9.824   6.800  0.2563  0.0043  0.0287
   10CHTO   H88 4105   5.455   9.785   6.781  0.0915 -0.8186  0.7878
   10CHTO   C53 4106   5.314   9.851   6.951  0.2596  0.5193 -0.1509
   10CHTO   O72 4107   5.174   9.842   6.982 -0.0940  0.2843  0.3059
   10CHTO  H199 4108   5.117   9.888   6.924  0.5061  1.1056  0.3699
   10CHTO   O22 4109   5.357  10.105   6.524 -0.0226  0.3987  0.2260
   10CHTO   C31 4110   5.454  10.208   6.550 -0.0010  0.0826  0.3109
   10CHTO   H59 4111   5.403  10.295   6.502 -1.4285 -0.6934  0.4038
   10CHTO   C29 4112   5.476  10.247   6.697  0.0523 -0.5535  0.0020
   10CHTO   H57 4113   5.502  10.160   6.760  1.4632  1.5121  2.3808
   10CHTO   O21 4114   5.349  10.283   6.755 -0.2013 -0.7673 -0.1734
   10CHTO   H37 4115   5.355  10.353   6.816 -1.9141 -0.2981 -0.5429
   10CHTO   C27 4116   5.588  10.354   6.708 -0.2210  0.0799  0.3427
   10CHTO   H55 4117   5.550  10.443   6.655  0.9474 -0.2097 -1.0272
   10CHTO    N5 4118   5.613  10.395   6.848 -0.3397 -0.3701 -0.3677
   10CHTO   H43 4119   5.699  10.345   6.892 -1.5870 -3.0444 -0.9370
   10CHTO   H44 4120   5.655  10.495   6.855  1.2838 -1.0463 -0.1958
   10CHTO   C25 4121   5.719  10.311   6.640  0.1361  0.1834 -0.4401
   10CHTO   H53 4122   5.752  10.211   6.673  0.6419  1.4535  3.0492
   10CHTO   O17 4123   5.686  10.300   6.497 -0.1900  0.0825  0.0659
   10CHTO   C32 4124   5.591  10.192   6.473  0.3614  0.0539  0.6133
   10CHTO   H60 4125   5.647  10.106   6.512  1.4086  0.1104 -0.7133
   10CHTO   C36 4126   5.574  10.185   6.315 -0.1688  0.0474 -0.1998
   10CHTO   O25 4127   5.556  10.316   6.261 -0.5078 -0.7582 -0.2781
   10CHTO   H40 4128   5.637  10.353   6.232  0.4617 -1.5528  1.3226
   10CHTO   O15 4129   5.841  10.399   6.646  0.1561  0.0785  0.1580
   10CHTO   C19 4130   5.895  10.529   6.608 -0.2230  0.3186  0.3680
   10CHTO   H47 4131   5.962  10.500   6.526  0.2972 -0.6649  1.1230
   10CHTO   C20 4132   5.787  10.631   6.564 -0.4899 -0.2408  0.0987
   10CHTO   H48 4133   5.707  10.644   6.638 -1.7287  0.2396 -1.3002
   10CHTO   O19 4134   5.716  10.571   6.452  0.1969 -0.3241  0.2459
   10CHTO   H35 4135   5.693  10.484   6.479  1.6714 -0.4582  1.0803
   10CHTO   C21 4136   5.843  10.778   6.536 -0.2268 -0.5133 -0.2320
   10CHTO   H49 4137   5.897  10.778   6.441 -0.1529  1.7874 -0.2183
   10CHTO    N4 4138   5.737  10.885   6.526  0.0216  0.5205  0.2799
   10CHTO   H41 4139   5.725  10.937   6.620  0.7108 -1.7483  1.6456
   10CHTO   H42 4140   5.765  10.953   6.446 -0.8757  0.3876 -0.1515
   10CHTO   C22 4141   5.953  10.813   6.638 -0.9863 -0.5458  0.1375
   10CHTO   H50 4142   5.915  10.834   6.738  1.5913 -1.1349  1.2904
   10CHTO   O14 4143   6.050  10.704   6.660  0.3297 -0.1519  0.0781
   10CHTO   C23 4144   5.981  10.589   6.719 -0.4583 -0.5506 -0.4409
   10CHTO   H51 4145   5.920  10.628   6.801  0.4426 -0.7329  0.3239
   10CHTO   C34 4146   6.084  10.489   6.779 -0.6864 -0.1068 -0.0837
   10CHTO   O23 4147   6.013  10.412   6.883 -0.2095  0.0988  0.4296
   10CHTO   H38 4148   6.064  10.363   6.944 -0.3530 -0.4897  0.0788
   10CHTO   O16 4149   6.032  10.924   6.591  0.1603  0.5129 -0.3712
   10CHTO   C24 4150   6.118  11.002   6.725  0.0472  0.1134 -0.2752
   10CHTO   H52 4151   6.138  10.932   6.806 -2.2059  1.1227  1.2180
   10CHTO   C26 4152   6.033  11.119   6.781 -0.4489  1.1042  0.7237
   10CHTO   H54 4153   6.000  11.182   6.695 -0.0954 -0.0929 -0.2953
   10CHTO   O20 4154   5.908  11.067   6.835  0.0507 -0.0030  0.3244
   10CHTO   H36 4155   5.873  10.996   6.786 -0.2294  0.8796 -0.7795
   10CHTO   C30 4156   6.113  11.216   6.876 -0.1811 -0.0630 -0.1777
   10CHTO   H58 4157   6.140  11.153   6.962  0.2348  1.1743  0.6160
   10CHTO    N6 4158   6.027  11.328   6.927  0.1861  0.0711  0.3785
   10CHTO   H45 4159   6.048  11.335   7.033 -0.8891  0.5339  0.5630
   10CHTO   H46 4160   6.044  11.423   6.877 -3.4618  1.7889  2.2701
   10CHTO   C33 4161   6.241  11.250   6.799 -0.4409  0.5495  0.7362
   10CHTO   H61 4162   6.215  11.293   6.702  1.6958 -0.3123 -0.2593
   10CHTO   O18 4163   6.314  11.127   6.776 -0.4723 -0.1552 -0.5809
   10CHTO   C28 4164   6.249  11.050   6.667 -0.0640  0.1237 -0.6617
   10CHTO   H56 4165   6.228  11.107   6.577 -0.7900 -0.7023 -1.0245
   10CHTO   C35 4166   6.349  10.935   6.632 -0.1210  0.0580 -0.1283
   10CHTO   O24 4167   6.448  10.984   6.544  0.3405  0.2906 -0.0001
   10CHTO   H39 4168   6.532  10.955   6.573  0.1887 -0.8225 -0.6290
   10CHTO    O9 4169   6.324  11.344   6.876  0.0353 -0.0622 -0.4116
   10CHTO   C13 4170   6.381  11.472   6.792 -0.3334  0.3921  0.2446
   10CHTO   H26 4171   6.325  11.474   6.696 -0.4863  0.5364  0.3364
   10CHTO   C11 4172   6.535  11.453   6.770  0.5620  0.7573  0.1841
   10CHTO   H24 4173   6.550  11.363   6.709  2.1054  1.6869 -0.8531
   10CHTO    O8 4174   6.588  11.434   6.900 -0.2309  0.2039  0.0127
   10CHTO    H3 4175   6.673  11.394   6.895 -0.3439  0.0390 -0.6524
   10CHTO    C9 4176   6.588  11.577   6.688 -1.2430  0.0114 -0.7317
   10CHTO   H22 4177   6.574  11.551   6.582  1.1563 -2.8390 -0.4316
   10CHTO    N2 4178   6.733  11.601   6.704  0.1891 -0.1851 -0.0615
   10CHTO   H10 4179   6.754  11.662   6.790  0.7917  1.0155 -1.0462
   10CHTO   H11 4180   6.774  11.645   6.615 -2.5756 -0.4109 -1.5130
   10CHTO    C7 4181   6.497  11.702   6.707  0.2835 -0.6321 -0.0417
   10CHTO   H20 4182   6.417  11.695   6.630 -0.4101  1.3147  0.4777
   10CHTO    O4 4183   6.441  11.712   6.839 -0.8277 -0.4140  0.6861
   10CHTO   C14 4184   6.344  11.611   6.860  0.1943  0.9541  0.1508
   10CHTO   H27 4185   6.259  11.658   6.806  0.2441  0.1042 -0.6943
   10CHTO   C18 4186   6.301  11.597   7.009 -0.2765 -0.5252 -0.7211
   10CHTO   O13 4187   6.213  11.699   7.052  0.2827  0.6023  0.4074
   10CHTO    H7 4188   6.237  11.783   7.017 -1.4409  1.2127  0.6054
   10CHTO    O2 4189   6.601  11.851   6.681  0.3590 -0.2426 -0.2436
   10CHTO    C1 4190   6.548  11.962   6.752  0.6439  0.1779  0.0642
   10CHTO   H14 4191   6.496  11.932   6.845 -2.4632  1.2963 -1.2344
   10CHTO    C2 4192   6.439  12.034   6.666 -0.1778  0.1840 -0.4895
   10CHTO   H15 4193   6.483  12.056   6.567 -0.4464  1.2030 -0.3871
   10CHTO    O6 4194   6.327  11.944   6.652  0.1533 -0.2026 -0.0663
   10CHTO    H1 4195   6.285  11.930   6.735  0.2165  0.8990  0.1551
   10CHTO    C3 4196   6.391  12.172   6.739  0.8186  0.1799 -0.2320
   10CHTO   H16 4197   6.343  12.140   6.832  0.8833  0.5940 -0.0545
   10CHTO    N1 4198   6.290  12.251   6.661  0.2323 -0.3094 -0.2800
   10CHTO    H8 4199   6.208  12.184   6.640  0.3304 -0.3435 -0.5545
   10CHTO    H9 4200   6.259  12.331   6.727  0.9953 -1.2545  1.2469
   10CHTO    C4 4201   6.520  12.250   6.768 -0.5684 -0.8333  0.0331
   10CHTO   H17 4202   6.564  12.288   6.675 -2.7514  0.0095 -0.6882
   10CHTO    O1 4203   6.621  12.179   6.845  0.0996 -0.3626 -0.0415
   10CHTO    C5 4204   6.664  12.057   6.787 -0.4509  0.3746  0.1118
   10CHTO   H18 4205   6.727  12.080   6.701  1.9870  2.8616  2.4916
   10CHTO   C16 4206   6.757  11.993   6.894 -0.4344  0.5967  1.0313
   10CHTO   O11 4207   6.882  12.069   6.915  0.0685  0.5391 -0.1827
   10CHTO    H5 4208   6.910  12.056   7.003  0.5788  0.0998 -0.4055
   10CHTO    O3 4209   6.492  12.361   6.857 -0.0048  0.2174 -0.3280
   10CHTO    C6 4210   6.588  12.473   6.843  0.0951 -0.4121 -0.5318
   10CHTO   H19 4211   6.680  12.455   6.789  0.0737 -1.5224 -0.1960
   10CHTO    C8 4212   6.508  12.585   6.763  0.9075 -0.1224 -0.3170
   10CHTO   H21 4213   6.407  12.597   6.804 -0.7975 -3.1809 -3.3683
   10CHTO    O7 4214   6.493  12.533   6.628 -0.1286 -0.3431  0.2186
   10CHTO    H2 4215   6.556  12.572   6.570 -0.6563 -0.8231 -0.6835
   10CHTO   C12 4216   6.589  12.715   6.767 -0.5743 -0.3332  0.6440
   10CHTO   H25 4217   6.685  12.693   6.717 -1.6431 -1.0937 -1.0849
   10CHTO    N3 4218   6.512  12.825   6.698 -0.4686  0.1376  0.1533
   10CHTO   H12 4219   6.552  12.925   6.714  0.6840 -0.2275 -0.3834
   10CHTO   H13 4220   6.409  12.824   6.730 -0.6058 -0.4577 -0.3276
   10CHTO   C15 4221   6.621  12.744   6.918  0.1420 -0.4442  0.6356
   10CHTO   H28 4222   6.533  12.751   6.982  1.4660  1.9793  2.2764
   10CHTO   O10 4223   6.711  12.878   6.951 -0.2994 -0.0258 -0.3283
   10CHTO    H4 4224   6.789  12.873   6.899  0.3959 -1.8051  0.8256
   10CHTO    O5 4225   6.705  12.642   6.980 -0.3247  0.4464 -0.4859
   10CHTO   C10 4226   6.632  12.514   6.989 -0.1784  0.7159 -0.5273
   10CHTO   H23 4227   6.542  12.511   7.049 -1.4063  1.7156 -2.2725
   10CHTO   C17 4228   6.724  12.415   7.047 -0.0946  0.4028  0.6375
   10CHTO   O12 4229   6.843  12.394   6.973  0.0259  0.4135  0.4876
   10CHTO    H6 4230   6.905  12.462   6.994 -0.0335  1.0268 -1.2792
   11CHTO  H203 4231   7.819   4.932   0.782 -0.8217  0.4867 -0.0731
   11CHTO   O82 4232   7.760   4.905   0.850 -0.4574 -0.0008  0.0549
   11CHTO  C123 4233   7.669   5.017   0.877  0.6393  0.8223 -0.3354
   11CHTO  H227 4234   7.727   5.097   0.925  1.6106 -0.1343  0.0994
   11CHTO   O77 4235   7.617   5.066   0.749  0.2962  0.1847 -0.5693
   11CHTO  C118 4236   7.519   5.171   0.757 -0.2895 -0.1811 -1.0588
   11CHTO  H222 4237   7.552   5.254   0.821 -0.4331 -0.9094 -0.0320
   11CHTO  C125 4238   7.484   5.225   0.617  0.0342 -0.6801 -0.0025
   11CHTO   O84 4239   7.446   5.115   0.533 -0.1753  0.3297 -0.3139
   11CHTO  H205 4240   7.426   5.136   0.444 -1.3588 -2.9220 -0.8734
   11CHTO  C114 4241   7.392   5.131   0.830 -0.2829  0.1465 -0.6585
   11CHTO  H218 4242   7.344   5.050   0.775  1.9423 -1.8145  0.1870
   11CHTO  C116 4243   7.421   5.073   0.970 -0.1293  0.0382  0.0558
   11CHTO  H220 4244   7.456   5.155   1.037  2.9948 -0.4667 -0.8737
   11CHTO   O79 4245   7.309   5.006   1.034  0.4175 -0.4863 -0.4244
   11CHTO  H201 4246   7.286   4.930   0.984 -0.4527 -1.0853  0.8587
   11CHTO  C120 4247   7.546   4.963   0.972  0.3258  0.2447 -0.6162
   11CHTO  H224 4248   7.491   4.870   0.945  1.9312 -0.4606 -1.5723
   11CHTO   N21 4249   7.602   4.938   1.106 -0.6006 -0.1357 -0.6393
   11CHTO  H211 4250   7.579   5.026   1.165  1.5937  0.4954 -0.6721
   11CHTO  H212 4251   7.546   4.856   1.148  0.5664  0.8395  2.9652
   11CHTO   O75 4252   7.310   5.244   0.839 -0.2406 -0.4240 -0.2247
   11CHTO  C112 4253   7.158   5.245   0.876 -0.1011  0.3319  0.0184
   11CHTO  H216 4254   7.142   5.220   0.982  1.1909 -2.2465 -0.3468
   11CHTO   O73 4255   7.092   5.152   0.790  0.1807 -0.5840 -0.1204
   11CHTO  C113 4256   6.953   5.138   0.832 -0.1783 -0.4405 -0.2195
   11CHTO  H217 4257   6.951   5.119   0.941 -0.1731  1.4805  0.1378
   11CHTO  C124 4258   6.894   5.006   0.775 -0.4158  0.2703  0.9476
   11CHTO   O83 4259   6.907   5.004   0.628 -0.1162 -0.0999 -0.6009
   11CHTO  H204 4260   7.000   5.003   0.624 -0.0390 -0.6839  1.0324
   11CHTO  C109 4261   6.876   5.261   0.789  0.7275  0.6465  0.1413
   11CHTO  H213 4262   6.874   5.262   0.679 -1.1649 -3.1317  0.0911
   11CHTO  C110 4263   6.946   5.383   0.858 -0.5270 -0.3626  0.1860
   11CHTO  H214 4264   6.914   5.381   0.962 -1.5423 -0.3575 -0.1138
   11CHTO   O78 4265   6.883   5.504   0.800  0.3689 -0.2081  0.1536
   11CHTO  H200 4266   6.936   5.578   0.820 -1.8148  1.8491 -1.4283
   11CHTO  C111 4267   7.101   5.384   0.850 -0.0391 -0.0340 -0.3166
   11CHTO  H215 4268   7.128   5.409   0.747 -0.2240  2.2775  0.1703
   11CHTO   N19 4269   7.168   5.484   0.936  0.0800 -0.3287 -0.1255
   11CHTO  H207 4270   7.276   5.490   0.938  0.1816 -1.3501 -1.5669
   11CHTO  H208 4271   7.121   5.472   1.032 -0.4772 -2.1116 -0.6036
   11CHTO   O74 4272   6.733   5.260   0.828 -0.6099  0.2840 -0.8191
   11CHTO  C115 4273   6.626   5.276   0.717  0.5392  0.2507  0.1832
   11CHTO  H219 4274   6.674   5.284   0.620  1.6102  1.0310  0.7577
   11CHTO   O76 4275   6.530   5.149   0.711 -0.3702  0.0089 -0.4494
   11CHTO  C122 4276   6.458   5.131   0.831 -0.0298 -0.1112  0.2713
   11CHTO  H226 4277   6.526   5.135   0.916 -1.6442  1.6168  1.5396
   11CHTO  C126 4278   6.391   4.982   0.831 -0.1718 -0.3058  0.1129
   11CHTO   O85 4279   6.291   4.972   0.934 -0.4495  0.0900  0.1257
   11CHTO  H206 4280   6.264   4.883   0.941  1.4637 -0.6846 -1.7126
   11CHTO  C121 4281   6.343   5.248   0.848 -1.1039 -0.4326  0.6623
   11CHTO  H225 4282   6.245   5.212   0.812 -3.1810  1.7602  3.8360
   11CHTO   O81 4283   6.333   5.291   0.982  0.3818 -0.4658  0.1143
   11CHTO  H202 4284   6.403   5.259   1.035  1.8389  0.7583 -1.0190
   11CHTO  C119 4285   6.379   5.371   0.757 -0.3810 -0.3761  0.4463
   11CHTO  H223 4286   6.347   5.337   0.659  0.4608 -1.1533  0.4363
   11CHTO  C117 4287   6.537   5.402   0.750 -0.2366  0.9456  0.4139
   11CHTO  H221 4288   6.573   5.457   0.837  0.1230 -0.0282  0.8807
   11CHTO   N20 4289   6.557   5.494   0.637  0.2784 -0.3271 -0.5705
   11CHTO  H209 4290   6.660   5.528   0.640 -0.6718  2.7360 -1.0411
   11CHTO  H210 4291   6.516   5.454   0.546 -1.7739 -3.0516  1.4543
   11CHTO   O80 4292   6.283   5.486   0.774 -0.2925 -0.1203  0.8303
   11CHTO  C103 4293   6.282   5.581   0.912  0.3464 -0.0668 -0.5367
   11CHTO  H190 4294   6.312   5.529   1.003  2.2718  1.2110 -0.4028
   11CHTO  C101 4295   6.357   5.721   0.900 -0.3140  0.3503  0.0662
   11CHTO  H188 4296   6.341   5.760   0.799  0.1368  0.7428  0.1452
   11CHTO   O68 4297   6.503   5.689   0.922 -0.0226  0.0718  0.7487
   11CHTO  H168 4298   6.531   5.708   1.010 -0.5674  2.0056  0.5259
   11CHTO   C99 4299   6.300   5.829   1.004  0.0513  0.6483  0.4624
   11CHTO  H186 4300   6.320   5.786   1.105  2.0385  0.2828 -0.0614
   11CHTO   N17 4301   6.374   5.956   1.010 -0.2842 -0.2130 -0.0107
   11CHTO  H174 4302   6.300   6.034   0.996  1.0416  0.9847 -0.4344
   11CHTO  H175 4303   6.447   5.955   0.931  0.0597  1.5452  0.2556
   11CHTO   C97 4304   6.145   5.847   0.989 -0.2720  0.6587  0.7008
   11CHTO  H184 4305   6.125   5.884   0.887  1.3869  2.2636  0.9321
   11CHTO   O64 4306   6.088   5.716   1.012  0.5407 -0.1963 -0.2152
   11CHTO  C104 4307   6.123   5.617   0.923 -0.1887  0.2151  0.2652
   11CHTO  H191 4308   6.088   5.651   0.826 -1.8406 -2.4227 -0.1098
   11CHTO  C108 4309   6.039   5.491   0.960  0.0848  0.4470  0.7816
   11CHTO   O71 4310   5.899   5.510   0.926 -0.3128 -0.4114  0.3232
   11CHTO  H171 4311   5.881   5.594   0.888 -0.7810  1.2375  3.9725
   11CHTO   O62 4312   6.086   5.939   1.082 -0.0096 -0.0714  0.5844
   11CHTO   C91 4313   5.951   5.983   1.078  0.3592 -0.5617  0.2678
   11CHTO  H178 4314   5.904   5.897   1.031 -1.0587  0.3176  0.0638
   11CHTO   C92 4315   5.940   6.114   0.985 -0.0972  0.5467 -0.1347
   11CHTO  H179 4316   5.991   6.093   0.889  1.8975 -0.0328  1.0286
   11CHTO   O66 4317   5.798   6.137   0.955 -0.0777 -0.0821 -0.7330
   11CHTO  H166 4318   5.742   6.157   1.027  0.4934 -0.5511 -0.1446
   11CHTO   C93 4319   5.996   6.241   1.062  0.1831  0.8260  0.0446
   11CHTO  H180 4320   5.961   6.329   1.006  2.1192  0.5268 -1.6887
   11CHTO   N16 4321   6.145   6.248   1.076  0.1642 -0.3236 -0.4840
   11CHTO  H172 4322   6.173   6.175   1.150  0.4331  0.8659  0.6029
   11CHTO  H173 4323   6.200   6.225   0.985 -0.2556 -0.1770 -0.7749
   11CHTO   C94 4324   5.937   6.245   1.211  0.7640  0.5816  0.4948
   11CHTO  H181 4325   6.012   6.221   1.286  1.5489 -0.3710 -0.5784
   11CHTO   O61 4326   5.834   6.150   1.223 -0.0104  0.1257 -0.7064
   11CHTO   C95 4327   5.881   6.014   1.215  0.4112  0.5110 -0.1709
   11CHTO  H182 4328   5.952   5.985   1.293  1.8030  1.6695 -0.9948
   11CHTO  C106 4329   5.763   5.914   1.242 -0.7389 -0.0776 -0.0236
   11CHTO   O69 4330   5.710   5.936   1.369  0.2212 -0.2752  0.0050
   11CHTO  H169 4331   5.734   6.021   1.401 -0.9111  0.4710 -1.1024
   11CHTO   O63 4332   5.869   6.384   1.234  0.0467  0.3973 -0.1927
   11CHTO   C96 4333   5.853   6.402   1.393  0.0973 -0.5001 -0.0283
   11CHTO  H183 4334   5.833   6.303   1.434  0.6301  0.5108  2.7827
   11CHTO   C98 4335   5.735   6.488   1.450 -0.2303 -0.6026 -0.5895
   11CHTO  H185 4336   5.641   6.464   1.399 -0.5653 -2.0139  0.6788
   11CHTO   O67 4337   5.711   6.470   1.589  0.5795 -0.1672  0.5049
   11CHTO  H167 4338   5.786   6.451   1.641  0.6031 -2.2626 -0.2334
   11CHTO  C102 4339   5.773   6.645   1.427 -0.0977  0.1727 -0.0782
   11CHTO  H189 4340   5.699   6.701   1.485 -0.2348  0.2774 -0.3542
   11CHTO   N18 4341   5.746   6.692   1.284  0.4582  0.1001 -0.2273
   11CHTO  H176 4342   5.668   6.629   1.245  0.7284  0.4800 -1.3999
   11CHTO  H177 4343   5.714   6.795   1.277  2.5741  0.8032  0.0044
   11CHTO  C105 4344   5.920   6.677   1.480  0.3119 -1.0717 -0.1829
   11CHTO  H192 4345   5.987   6.716   1.404 -0.5618  1.6567  0.4137
   11CHTO   O65 4346   5.979   6.555   1.546 -0.0464 -0.0451  0.2657
   11CHTO  C100 4347   5.991   6.448   1.454  0.1482  0.0627  0.0447
   11CHTO  H187 4348   6.058   6.484   1.375 -1.3268  2.9730  0.0624
   11CHTO  C107 4349   6.063   6.337   1.536  0.1989  0.6165  0.0940
   11CHTO   O70 4350   6.002   6.294   1.653  0.1932  0.1768 -0.3994
   11CHTO  H170 4351   6.007   6.358   1.722 -0.4781 -0.6911  0.4656
   11CHTO   O57 4352   5.898   6.799   1.588 -0.3250  0.1922 -0.1113
   11CHTO   C85 4353   5.992   6.907   1.607 -0.1972  0.7987 -0.1590
   11CHTO  H157 4354   5.957   6.961   1.698 -1.3184 -0.0162 -0.1042
   11CHTO   C83 4355   5.994   7.013   1.492 -0.6901  0.1328 -0.4951
   11CHTO  H155 4356   5.898   7.064   1.504 -0.5472  0.3951 -0.4666
   11CHTO   O56 4357   5.988   6.956   1.359  0.4416 -0.4921 -0.4645
   11CHTO  H135 4358   6.054   6.988   1.301  0.2167 -2.8509 -2.0991
   11CHTO   C81 4359   6.105   7.122   1.516  0.5969 -0.3028  0.1530
   11CHTO  H153 4360   6.104   7.161   1.618 -0.3765 -1.5545  0.6301
   11CHTO   N14 4361   6.085   7.241   1.426 -0.4741 -0.2087 -0.9336
   11CHTO  H141 4362   6.021   7.226   1.342  1.8971 -1.7111 -2.4969
   11CHTO  H142 4363   6.171   7.293   1.389  0.3559 -1.7303 -1.1585
   11CHTO   C79 4364   6.245   7.051   1.503 -0.7888 -0.8666  0.7089
   11CHTO  H151 4365   6.320   7.128   1.519  0.9163 -2.7475  1.9666
   11CHTO   O52 4366   6.252   6.954   1.618  0.3595 -0.1414 -0.1192
   11CHTO   C86 4367   6.141   6.856   1.625  0.6046  0.4062 -0.3818
   11CHTO  H158 4368   6.165   6.782   1.546 -0.3452 -1.1522  0.7430
   11CHTO   C90 4369   6.156   6.775   1.759  0.1133  0.3407  0.6280
   11CHTO   O60 4370   6.267   6.689   1.761  0.1080 -0.2210  0.7356
   11CHTO  H138 4371   6.289   6.646   1.680  0.8982 -0.3600  1.0153
   11CHTO   O50 4372   6.275   6.999   1.371  0.8297 -0.3807  0.0013
   11CHTO   C73 4373   6.348   6.999   1.246 -0.1606 -0.1174 -0.2216
   11CHTO  H145 4374   6.367   7.099   1.205 -0.7953 -0.0323 -0.3159
   11CHTO   C74 4375   6.260   6.920   1.138 -0.0759 -0.7417 -0.1593
   11CHTO  H146 4376   6.163   6.972   1.143 -0.4316 -1.1799 -2.1871
   11CHTO   O54 4377   6.321   6.941   1.004 -0.3649  0.7111 -0.0845
   11CHTO  H133 4378   6.415   6.936   1.007 -0.3507 -0.3191 -1.3437
   11CHTO   C75 4379   6.240   6.764   1.177  0.3217  0.2486 -0.5034
   11CHTO  H147 4380   6.199   6.759   1.279  3.2441 -0.1260  0.7166
   11CHTO   N13 4381   6.154   6.697   1.079 -0.2117  0.3368  0.2504
   11CHTO  H139 4382   6.054   6.671   1.111 -0.0410 -0.1736  0.3829
   11CHTO  H140 4383   6.149   6.748   0.984 -0.2322  0.8057  0.5028
   11CHTO   C76 4384   6.383   6.698   1.204  0.1390  0.1391  0.3098
   11CHTO  H148 4385   6.434   6.687   1.108 -1.7782  0.8822 -0.8093
   11CHTO   O49 4386   6.466   6.781   1.288  0.4106 -0.3088 -0.1925
   11CHTO   C77 4387   6.483   6.921   1.257 -0.3997  0.6737  0.1189
   11CHTO  H149 4388   6.539   6.934   1.164  0.5943 -1.0667  0.4473
   11CHTO   C88 4389   6.564   6.984   1.370  0.1391  0.3515 -0.6186
   11CHTO   O58 4390   6.691   6.931   1.387  0.7447 -0.4971  0.0850
   11CHTO  H136 4391   6.693   6.871   1.459 -2.5369 -0.3438  0.3574
   11CHTO   O51 4392   6.370   6.555   1.288 -0.0954  0.2065  0.2646
   11CHTO   C78 4393   6.518   6.495   1.330 -0.1152  0.5773 -0.5981
   11CHTO  H150 4394   6.602   6.568   1.322 -0.4120  1.3074  2.2744
   11CHTO   C80 4395   6.541   6.366   1.254 -0.0307  0.0939  0.0187
   11CHTO  H152 4396   6.453   6.301   1.276  0.0877 -0.4246 -1.0267
   11CHTO   O55 4397   6.535   6.410   1.117  0.3480 -0.2870 -0.2680
   11CHTO  H134 4398   6.539   6.339   1.055  0.9761  1.5124 -2.3855
   11CHTO   C84 4399   6.671   6.291   1.296 -0.6427 -0.3007  0.0033
   11CHTO  H156 4400   6.749   6.361   1.263 -0.7930 -0.0492  0.1800
   11CHTO   N15 4401   6.689   6.163   1.215 -0.3796  0.1576 -0.7172
   11CHTO  H143 4402   6.787   6.166   1.171  0.7530  0.1908  1.7037
   11CHTO  H144 4403   6.613   6.144   1.143 -1.6201  1.1248  0.3245
   11CHTO   C87 4404   6.683   6.278   1.450  0.7933  0.2742 -0.3728
   11CHTO  H159 4405   6.615   6.198   1.478 -0.8666  1.0173 -2.1577
   11CHTO   O53 4406   6.637   6.422   1.523  0.2129 -0.1761 -0.1074
   11CHTO   C82 4407   6.517   6.472   1.477 -0.0320  0.0319  0.6109
   11CHTO  H154 4408   6.439   6.406   1.514  0.7311  0.0679  2.3614
   11CHTO   C89 4409   6.498   6.603   1.553 -0.0540  0.0941  0.2659
   11CHTO   O59 4410   6.610   6.694   1.541 -0.1921  0.3040  0.4050
   11CHTO  H137 4411   6.609   6.728   1.453  1.3942  1.1012  0.6746
   11CHTO   O45 4412   6.831   6.231   1.503  0.1781  0.2062  0.0490
   11CHTO   C67 4413   6.946   6.290   1.445 -0.1736  0.1674  0.2453
   11CHTO  H124 4414   6.940   6.279   1.336 -0.3263 -0.8273  0.3484
   11CHTO   C65 4415   6.960   6.446   1.476 -0.0022  0.3134 -0.2900
   11CHTO  H122 4416   6.908   6.455   1.572  0.1204 -0.8541 -0.1101
   11CHTO   O44 4417   6.894   6.522   1.374  0.3205  0.0999 -0.4173
   11CHTO  H102 4418   6.888   6.479   1.291 -0.3800 -0.2483 -0.1872
   11CHTO   C63 4419   7.110   6.482   1.494 -0.0726  0.3868 -0.5651
   11CHTO  H120 4420   7.138   6.448   1.594 -1.3106 -2.1313 -1.0294
   11CHTO   N11 4421   7.143   6.629   1.507 -0.1280  0.8568  0.2660
   11CHTO  H108 4422   7.232   6.653   1.453  1.1667 -0.5841  1.6799
   11CHTO  H109 4423   7.054   6.680   1.477 -0.7500  0.5575  1.5361
   11CHTO   C61 4424   7.201   6.407   1.392 -0.1043 -0.1474  0.3753
   11CHTO  H118 4425   7.301   6.440   1.425 -1.2365  1.7362  2.1232
   11CHTO   O40 4426   7.193   6.265   1.416 -0.2319 -0.7826 -0.3130
   11CHTO   C68 4427   7.075   6.215   1.480 -0.2719  0.5425  0.1371
   11CHTO  H125 4428   7.088   6.223   1.590  2.5270 -0.6546 -0.0689
   11CHTO   C72 4429   7.042   6.071   1.448  0.1273 -0.4425  0.3912
   11CHTO   O48 4430   7.030   6.037   1.308  0.0036  0.0535 -0.2993
   11CHTO  H105 4431   6.966   6.093   1.269 -0.1466  0.8068  1.0056
   11CHTO   O38 4432   7.179   6.444   1.252  0.0930  0.0487 -0.1070
   11CHTO   C55 4433   7.231   6.352   1.155 -0.5108 -0.5094  0.1117
   11CHTO  H112 4434   7.223   6.246   1.183 -0.3247 -0.4804  0.2737
   11CHTO   C56 4435   7.383   6.389   1.122  0.3965 -0.1414  0.8589
   11CHTO  H113 4436   7.393   6.498   1.106  2.9144 -0.2209  1.6387
   11CHTO   O42 4437   7.463   6.363   1.245 -0.3949  0.0762  0.0049
   11CHTO  H100 4438   7.431   6.284   1.283 -1.2759  0.9812  1.2237
   11CHTO   C57 4439   7.440   6.299   1.002  0.4295 -0.5276  0.4422
   11CHTO  H114 4440   7.466   6.197   1.028  0.9941 -0.8128 -1.1399
   11CHTO   N10 4441   7.563   6.363   0.944  0.1727 -0.6151  0.3428
   11CHTO  H106 4442   7.627   6.420   1.010  0.8587 -0.8141 -0.1564
   11CHTO  H107 4443   7.624   6.296   0.885  0.5373 -0.7243  0.8420
   11CHTO   C58 4444   7.333   6.294   0.887 -0.2178 -0.1372  0.3549
   11CHTO  H115 4445   7.321   6.397   0.848  1.8577  0.1067  0.3142
   11CHTO   O37 4446   7.208   6.253   0.940  0.3382  0.1442  0.3618
   11CHTO   C59 4447   7.146   6.356   1.026  0.2481 -0.5825  0.9088
   11CHTO  H116 4448   7.143   6.454   0.979 -1.2640  0.3239  2.8487
   11CHTO   C70 4449   7.000   6.308   1.052  0.1222  0.0305 -0.1564
   11CHTO   O46 4450   6.922   6.321   0.930 -0.6674 -0.3400  0.1315
   11CHTO  H103 4451   6.977   6.300   0.858 -0.2334  0.0081  0.3631
   11CHTO   O39 4452   7.354   6.194   0.771  0.5083  0.1871 -0.2136
   11CHTO   C60 4453   7.342   6.257   0.644  0.3007  0.0780  0.0835
   11CHTO  H117 4454   7.260   6.329   0.653  0.0142 -0.2634  0.1969
   11CHTO   C62 4455   7.479   6.326   0.599 -0.1739  0.2278  0.3485
   11CHTO  H119 4456   7.519   6.385   0.685  1.0970  0.4299 -0.3650
   11CHTO   O43 4457   7.581   6.226   0.580  0.2164 -0.0241  0.1782
   11CHTO  H101 4458   7.654   6.270   0.542  1.1374 -0.4169  1.4589
   11CHTO   C66 4459   7.457   6.417   0.467 -0.5258 -0.2551  0.0610
   11CHTO  H123 4460   7.390   6.498   0.496  1.0983  0.5642  1.6072
   11CHTO   N12 4461   7.577   6.492   0.416  0.1353 -0.3898  0.0194
   11CHTO  H110 4462   7.578   6.505   0.309  2.1113 -0.2423  0.0447
   11CHTO  H111 4463   7.605   6.583   0.466 -1.4453 -0.0121  0.2526
   11CHTO   C69 4464   7.402   6.317   0.358  0.5307 -0.3085 -0.3284
   11CHTO  H126 4465   7.479   6.243   0.327 -1.1668 -2.1386 -0.2995
   11CHTO   O41 4466   7.274   6.239   0.407  1.3517  0.1976  0.3142
   11CHTO   C64 4467   7.302   6.156   0.538  0.1152 -0.2702 -0.3199
   11CHTO  H121 4468   7.383   6.084   0.515 -0.9043 -1.2873 -0.7621
   11CHTO   C71 4469   7.173   6.075   0.580 -0.6162  1.0368 -0.1494
   11CHTO   O47 4470   7.055   6.151   0.600  0.1070 -0.6960 -0.1918
   11CHTO  H104 4471   6.996   6.098   0.650  0.3893  2.5454  3.8379
   11CHTO   O34 4472   7.347   6.407   0.230  0.0196  0.4632  0.0366
   11CHTO   C49 4473   7.372   6.362   0.081 -0.2023 -0.2490 -0.5096
   11CHTO   H91 4474   7.479   6.357   0.062 -0.3884  0.6825 -1.8550
   11CHTO   C47 4475   7.322   6.462  -0.027  0.1270  0.7738  0.0416
   11CHTO   H89 4476   7.356   6.416  -0.123  2.7985  0.1981  1.2273
   11CHTO   O33 4477   7.382   6.590  -0.012  0.0839  0.2006  0.1750
   11CHTO   H70 4478   7.472   6.577   0.009  0.6921  2.1381 -1.1905
   11CHTO   C45 4479   7.163   6.483  -0.041 -0.1272 -0.1898 -0.0393
   11CHTO   H87 4480   7.124   6.562   0.026  3.2612  1.3872  0.1670
   11CHTO    N8 4481   7.133   6.509  -0.185  0.4105  0.6409 -0.0848
   11CHTO   H75 4482   7.077   6.601  -0.195 -1.0788 -0.2672 -0.2679
   11CHTO   H76 4483   7.074   6.427  -0.223  0.4894  0.3453  0.4283
   11CHTO   C43 4484   7.087   6.358   0.016 -0.2753  0.7205 -0.1890
   11CHTO   H85 4485   7.088   6.379   0.123 -1.1212  3.6174 -0.7067
   11CHTO   O29 4486   7.171   6.240  -0.018  0.2475 -0.0321 -0.1370
   11CHTO   C50 4487   7.293   6.231   0.054 -0.1404  0.8740  0.2317
   11CHTO   H92 4488   7.269   6.198   0.157  0.2223  0.3794  0.1589
   11CHTO   C54 4489   7.388   6.123   0.002  0.0293  0.1526 -0.1103
   11CHTO   O36 4490   7.429   6.157  -0.128  0.3709 -0.0432  0.7279
   11CHTO   H72 4491   7.447   6.074  -0.167 -0.0567 -0.1434  0.7393
   11CHTO   O27 4492   6.942   6.341  -0.020 -0.1034 -0.4476  0.2426
   11CHTO   C37 4493   6.855   6.241   0.042 -0.3934 -0.2720  0.4385
   11CHTO   H79 4494   6.908   6.166   0.102 -1.7372 -1.3574  0.3004
   11CHTO   C38 4495   6.757   6.326   0.136 -0.7455  0.0229  0.9105
   11CHTO   H80 4496   6.714   6.407   0.075  2.1262  1.6324  0.9059
   11CHTO   O31 4497   6.849   6.380   0.235  0.5809 -0.3196  0.7941
   11CHTO   H68 4498   6.807   6.373   0.319 -0.5204  0.1757  0.2970
   11CHTO   C39 4499   6.652   6.220   0.195 -0.5658 -0.1026  0.1284
   11CHTO   H81 4500   6.706   6.144   0.251 -0.9485  1.1904  2.3266
   11CHTO    N7 4501   6.568   6.292   0.297 -0.3739  0.6686  0.1617
   11CHTO   H73 4502   6.463   6.284   0.272 -0.9861  2.0082  2.2477
   11CHTO   H74 4503   6.617   6.303   0.392  0.3996 -1.3529  0.0315
   11CHTO   C40 4504   6.573   6.143   0.087  0.3082  0.0385  0.2201
   11CHTO   H82 4505   6.514   6.215   0.031 -1.7228 -1.6944  0.0635
   11CHTO   O26 4506   6.671   6.078   0.001 -0.0217 -0.0046 -0.8417
   11CHTO   C41 4507   6.766   6.172  -0.060 -0.0665 -0.7336  0.0877
   11CHTO   H83 4508   6.699   6.241  -0.114  0.0035 -3.7383 -4.0815
   11CHTO   C52 4509   6.854   6.096  -0.158  0.1124  0.1134  0.2171
   11CHTO   O35 4510   6.774   6.014  -0.244  0.2585  0.3210 -0.7341
   11CHTO   H71 4511   6.801   6.025  -0.333  1.4042 -1.1981 -0.6046
   11CHTO   O28 4512   6.492   6.038   0.144  0.0406  0.2171 -0.2278
   11CHTO   C42 4513   6.382   5.970   0.077  0.5060  0.1528  0.3809
   11CHTO   H84 4514   6.386   5.994  -0.029 -1.6226  0.4777  0.3505
   11CHTO   C44 4515   6.234   6.003   0.125 -0.7995 -0.8411  0.1279
   11CHTO   H86 4516   6.220   5.970   0.228  0.7769 -2.5579 -0.1879
   11CHTO   O32 4517   6.222   6.142   0.098 -0.0016  0.3506 -0.2819
   11CHTO   H69 4518   6.141   6.173   0.132 -0.7153 -0.5174 -1.1713
   11CHTO   C48 4519   6.123   5.926   0.047  0.2735  0.3951 -0.5267
   11CHTO   H90 4520   6.132   5.952  -0.059  0.3746 -0.7635 -0.8153
   11CHTO    N9 4521   5.979   5.956   0.089 -0.7725  0.1059  0.2123
   11CHTO   H77 4522   5.960   5.903   0.181 -1.9234  1.1421  0.5790
   11CHTO   H78 4523   5.960   6.062   0.096 -1.8936  0.0588 -1.7533
   11CHTO   C51 4524   6.154   5.773   0.057  0.0236 -0.0206 -0.2224
   11CHTO   H93 4525   6.133   5.737   0.157 -0.8718 -0.2112 -0.4744
   11CHTO   O30 4526   6.289   5.747   0.021  0.3320 -0.0904  0.1061
   11CHTO   C46 4527   6.392   5.816   0.093  0.4489 -0.2974  0.4997
   11CHTO   H88 4528   6.380   5.799   0.200 -1.0219 -0.8064  0.2552
   11CHTO   C53 4529   6.520   5.752   0.041 -0.0937  0.5090 -0.2136
   11CHTO   O72 4530   6.579   5.812  -0.075  0.3035  0.4562 -0.0323
   11CHTO  H199 4531   6.529   5.877  -0.120 -1.2502 -0.7232 -0.0627
   11CHTO   O22 4532   6.079   5.704  -0.046 -0.0529  0.2749 -0.2272
   11CHTO   C31 4533   6.051   5.562  -0.043 -0.5497 -0.2655  0.4096
   11CHTO   H59 4534   6.137   5.509   0.002 -1.1938 -0.7931  1.0407
   11CHTO   C29 4535   5.929   5.527   0.039 -0.3280  0.5975 -0.2721
   11CHTO   H57 4536   5.851   5.588  -0.010 -0.3269  0.0265 -0.9934
   11CHTO   O21 4537   5.952   5.567   0.174 -0.4068 -0.5731  0.4479
   11CHTO   H37 4538   5.898   5.512   0.228 -1.0305 -0.0859  0.3268
   11CHTO   C27 4539   5.891   5.377   0.025 -0.1471 -0.0501 -0.2068
   11CHTO   H55 4540   5.977   5.318   0.059  0.6061  1.4032  0.4711
   11CHTO    N5 4541   5.772   5.331   0.103  0.3285 -0.1289 -0.0693
   11CHTO   H43 4542   5.729   5.242   0.061 -0.1131  0.1948 -0.2996
   11CHTO   H44 4543   5.790   5.325   0.210 -1.2851  0.3149  0.2495
   11CHTO   C25 4544   5.873   5.336  -0.128 -0.3304  0.3389 -0.1308
   11CHTO   H53 4545   5.791   5.388  -0.180  0.3438  0.5911 -0.9545
   11CHTO   O17 4546   5.998   5.366  -0.199 -0.3162  0.3795 -1.2065
   11CHTO   C32 4547   6.033   5.509  -0.193 -0.1954 -0.5099 -0.4915
   11CHTO   H60 4548   5.953   5.561  -0.246  2.0868  1.0493 -2.5011
   11CHTO   C36 4549   6.167   5.519  -0.272 -0.4052  0.1904  0.1515
   11CHTO   O25 4550   6.185   5.657  -0.309 -0.1680 -0.2773 -0.4519
   11CHTO   H40 4551   6.246   5.667  -0.379  1.0908  1.4013  0.8439
   11CHTO   O15 4552   5.849   5.194  -0.143 -0.1046 -1.0596  0.5358
   11CHTO   C19 4553   5.802   5.112  -0.252  0.3783 -0.1448  0.2307
   11CHTO   H47 4554   5.818   5.017  -0.198 -3.2044 -1.0086 -0.0785
   11CHTO   C20 4555   5.655   5.134  -0.294  1.0205  0.0678 -0.0704
   11CHTO   H48 4556   5.636   5.239  -0.319  0.3223  0.2664  1.2581
   11CHTO   O19 4557   5.570   5.111  -0.176 -0.2848  0.5804  0.0741
   11CHTO   H35 4558   5.487   5.152  -0.193 -0.5804 -0.5643 -1.3523
   11CHTO   C21 4559   5.612   5.049  -0.415 -0.1711  0.1502 -0.2920
   11CHTO   H49 4560   5.600   4.947  -0.380 -1.1483  0.6388  0.8261
   11CHTO    N4 4561   5.477   5.085  -0.471  0.0798 -0.0033  0.9599
   11CHTO   H41 4562   5.475   5.095  -0.578  1.0592  0.4037  0.9748
   11CHTO   H42 4563   5.426   5.168  -0.424  2.1920  2.1591 -0.4849
   11CHTO   C22 4564   5.723   5.060  -0.523 -0.4972 -0.8475  0.1301
   11CHTO   H50 4565   5.724   5.166  -0.549 -0.6795 -0.9008 -0.1006
   11CHTO   O14 4566   5.849   5.013  -0.466 -0.4226 -0.3164 -0.3412
   11CHTO   C23 4567   5.909   5.108  -0.375 -0.7208 -0.1102  0.6234
   11CHTO   H51 4568   5.917   5.204  -0.428  0.4563 -1.3190 -1.4886
   11CHTO   C34 4569   6.049   5.065  -0.328 -0.5338  0.5247 -0.5543
   11CHTO   O23 4570   6.144   5.079  -0.431 -0.3404  0.4915 -0.0660
   11CHTO   H38 4571   6.219   5.031  -0.404 -0.3145 -0.3118 -1.5057
   11CHTO   O16 4572   5.712   4.975  -0.637  0.1206 -0.6437  0.7027
   11CHTO   C24 4573   5.766   5.051  -0.774  0.3456 -0.0896  0.1290
   11CHTO   H52 4574   5.818   5.144  -0.754  1.8453 -0.6020 -1.2621
   11CHTO   C26 4575   5.640   5.069  -0.859 -0.1258 -0.0036 -0.1601
   11CHTO   H54 4576   5.603   4.974  -0.904 -2.4198  1.5096 -1.5619
   11CHTO   O20 4577   5.528   5.114  -0.787 -0.8915 -0.4552 -0.4981
   11CHTO   H36 4578   5.472   5.049  -0.750 -0.3724 -1.9114 -2.1938
   11CHTO   C30 4579   5.672   5.145  -0.991 -0.0137  0.6141 -0.0474
   11CHTO   H58 4580   5.708   5.245  -0.964 -1.2758  1.8200 -2.6630
   11CHTO    N6 4581   5.561   5.162  -1.085  0.2898  0.1134  0.2531
   11CHTO   H45 4582   5.521   5.070  -1.127 -0.1722  1.2025 -1.7445
   11CHTO   H46 4583   5.594   5.223  -1.168 -1.4881  0.4720 -0.2137
   11CHTO   C33 4584   5.794   5.073  -1.060 -0.3671 -0.2403  0.1321
   11CHTO   H61 4585   5.760   4.976  -1.097  0.4157 -0.1087 -0.9383
   11CHTO   O18 4586   5.898   5.046  -0.965 -0.0153 -0.1399  0.2359
   11CHTO   C28 4587   5.865   4.966  -0.851  0.1861 -0.2988 -0.1079
   11CHTO   H56 4588   5.818   4.871  -0.878 -1.4638  0.4689  0.0176
   11CHTO   C35 4589   6.003   4.940  -0.780 -0.5899 -0.6897 -0.0597
   11CHTO   O24 4590   5.982   4.844  -0.679  0.4229 -0.1714 -0.2085
   11CHTO   H39 4591   5.971   4.878  -0.593 -1.6801 -0.6994 -0.2369
   11CHTO    O9 4592   5.850   5.143  -1.175  0.1622 -0.1341  0.2504
   11CHTO   C13 4593   5.916   5.296  -1.143  0.0385 -0.5969 -0.3538
   11CHTO   H26 4594   5.869   5.342  -1.053 -2.8246  0.2305 -2.2213
   11CHTO   C11 4595   5.892   5.388  -1.265 -0.2474 -0.4089  0.3735
   11CHTO   H24 4596   5.782   5.390  -1.271 -0.2572 -0.5855  0.4779
   11CHTO    O8 4597   5.949   5.330  -1.385 -0.3919 -0.0623 -0.0847
   11CHTO    H3 4598   6.041   5.319  -1.370 -0.1977 -0.2172 -1.3297
   11CHTO    C9 4599   5.946   5.529  -1.229 -0.6108 -0.6729  0.1490
   11CHTO   H22 4600   5.896   5.554  -1.135 -0.4898 -0.3888  0.1373
   11CHTO    N2 4601   5.902   5.638  -1.321  0.1672 -0.2225  0.0961
   11CHTO   H10 4602   5.835   5.600  -1.396  0.7727  1.6047 -1.4271
   11CHTO   H11 4603   5.844   5.713  -1.268  0.0620 -0.2412  0.0081
   11CHTO    C7 4604   6.099   5.515  -1.195 -0.0398 -0.0275 -0.1279
   11CHTO   H20 4605   6.133   5.611  -1.151  3.5533 -0.7597 -1.1654
   11CHTO    O4 4606   6.125   5.416  -1.090  0.9268 -0.7451  0.4321
   11CHTO   C14 4607   6.070   5.286  -1.098 -0.0605  0.4423  0.1238
   11CHTO   H27 4608   6.080   5.242  -0.996 -0.9359  0.2594  0.1317
   11CHTO   C18 4609   6.164   5.200  -1.191 -0.2061 -0.2593 -0.0913
   11CHTO   O13 4610   6.112   5.063  -1.191 -0.0238  0.1961  0.3578
   11CHTO    H7 4611   6.185   5.004  -1.180  0.1220 -0.1311 -2.1463
   11CHTO    O2 4612   6.188   5.472  -1.335  0.0048  0.2019  0.4604
   11CHTO    C1 4613   6.283   5.568  -1.384 -0.0926 -0.0835  0.2559
   11CHTO   H14 4614   6.280   5.650  -1.308  0.6434  1.0563 -0.9237
   11CHTO    C2 4615   6.248   5.630  -1.526  0.4287 -0.3438 -0.2011
   11CHTO   H15 4616   6.262   5.557  -1.606  0.8875  0.4756 -0.8837
   11CHTO    O6 4617   6.112   5.680  -1.526 -0.1623  0.3960 -0.4027
   11CHTO    H1 4618   6.107   5.761  -1.479  0.6777 -0.1184  0.6005
   11CHTO    C3 4619   6.357   5.743  -1.560 -0.6080  0.9626 -0.3573
   11CHTO   H16 4620   6.350   5.824  -1.486  0.5151  0.6938  0.0571
   11CHTO    N1 4621   6.331   5.813  -1.685 -0.3608  0.1085  0.2767
   11CHTO    H8 4622   6.419   5.874  -1.702 -0.8879  0.7001 -0.3657
   11CHTO    H9 4623   6.251   5.886  -1.677  0.6003  1.4340 -1.7808
   11CHTO    C4 4624   6.506   5.679  -1.550  0.4971  0.5625 -0.3928
   11CHTO   H17 4625   6.520   5.627  -1.645 -3.8421  0.3441 -1.0430
   11CHTO    O1 4626   6.529   5.598  -1.430  0.0482 -0.0071  0.0871
   11CHTO    C5 4627   6.422   5.505  -1.396  0.3467  0.4590 -0.1949
   11CHTO   H18 4628   6.430   5.446  -1.487  1.9530  0.5621 -0.1362
   11CHTO   C16 4629   6.465   5.420  -1.274 -0.3197 -0.4269 -0.8767
   11CHTO   O11 4630   6.434   5.482  -1.149  0.2620 -0.1228  0.2957
   11CHTO    H5 4631   6.492   5.556  -1.151 -0.6659  0.6206 -2.1448
   11CHTO    O3 4632   6.603   5.787  -1.559  0.0981  0.0321 -0.0402
   11CHTO    C6 4633   6.742   5.744  -1.590 -0.6162  0.0710  0.1294
   11CHTO   H19 4634   6.774   5.642  -1.567 -0.4050  0.5910  2.2910
   11CHTO    C8 4635   6.780   5.774  -1.744  0.0051  0.3616 -0.4372
   11CHTO   H21 4636   6.761   5.879  -1.763 -0.3070  0.7362  1.8034
   11CHTO    O7 4637   6.700   5.691  -1.824  0.1249 -1.2535  0.3649
   11CHTO    H2 4638   6.724   5.601  -1.828 -0.1776 -1.2817 -1.2232
   11CHTO   C12 4639   6.932   5.758  -1.774 -0.0366 -0.6117 -0.0482
   11CHTO   H25 4640   6.952   5.649  -1.782 -0.0356 -0.4580 -2.5187
   11CHTO    N3 4641   6.976   5.806  -1.911 -0.3434  0.5284 -0.3864
   11CHTO   H12 4642   7.084   5.812  -1.912 -0.3384  0.5892  0.5545
   11CHTO   H13 4643   6.937   5.903  -1.939  0.7621  1.5668  1.5783
   11CHTO   C15 4644   7.019   5.823  -1.658  0.3270 -0.0199 -0.8809
   11CHTO   H28 4645   7.025   5.931  -1.668  2.7228  0.1021  1.3159
   11CHTO   O10 4646   7.150   5.767  -1.648  0.0909 -0.2514  0.0285
   11CHTO    H4 4647   7.146   5.674  -1.656  1.3135 -0.2192 -1.1759
   11CHTO    O5 4648   6.968   5.790  -1.527  0.3560 -0.3292 -0.0602
   11CHTO   C10 4649   6.831   5.837  -1.496 -0.4667 -0.0054 -0.3216
   11CHTO   H23 4650   6.824   5.942  -1.523 -3.1606  0.5897  2.4439
   11CHTO   C17 4651   6.820   5.822  -1.344  0.1541 -0.1532 -0.0711
   11CHTO   O12 4652   6.742   5.934  -1.299 -0.3021 -0.7242 -0.5321
   11CHTO    H6 4653   6.679   5.902  -1.238  1.1535 -1.4942  0.6028
   12CHTO  H203 4654   4.967   2.062   5.723  1.5931  0.3282  1.1708
   12CHTO   O82 4655   4.988   1.971   5.729  0.3516 -0.0693 -0.3260
   12CHTO  C123 4656   5.125   1.950   5.770  1.0060 -0.5440 -0.3152
   12CHTO  H227 4657   5.144   1.852   5.817  0.4678 -0.3708  0.2706
   12CHTO   O77 4658   5.201   1.950   5.647 -0.0533 -0.5688 -0.2364
   12CHTO  C118 4659   5.341   1.922   5.645  1.0805  0.0388  0.4159
   12CHTO  H222 4660   5.364   1.820   5.679 -0.5732 -1.5225 -2.8919
   12CHTO  C125 4661   5.389   1.936   5.500  0.3770 -0.7054 -0.0512
   12CHTO   O84 4662   5.355   1.825   5.415 -0.5635 -0.2838 -0.3185
   12CHTO  H205 4663   5.374   1.848   5.326  0.0735 -1.0768 -0.3952
   12CHTO  C114 4664   5.407   2.035   5.726  0.6149  0.5903  0.3670
   12CHTO  H218 4665   5.384   2.128   5.675 -2.1687 -0.5851 -0.6070
   12CHTO  C116 4666   5.338   2.028   5.867  0.0414  0.0002 -0.2607
   12CHTO  H220 4667   5.352   1.926   5.908 -1.6113 -0.0427  0.2285
   12CHTO   O79 4668   5.411   2.127   5.942  0.3806  0.4271 -0.1648
   12CHTO  H201 4669   5.386   2.212   5.912  0.0272  0.5960  0.5977
   12CHTO  C120 4670   5.182   2.067   5.864 -0.0255 -0.6155  0.2630
   12CHTO  H224 4671   5.177   2.168   5.819  1.0179 -1.5349 -1.9670
   12CHTO   N21 4672   5.120   2.068   5.996 -0.0734 -0.0253  0.8136
   12CHTO  H211 4673   5.161   1.997   6.067  0.1337  1.2861  2.0299
   12CHTO  H212 4674   5.013   2.061   6.010 -0.0904 -0.6454  0.4172
   12CHTO   O75 4675   5.553   2.018   5.732  0.4220  0.5716 -0.3455
   12CHTO  C112 4676   5.614   1.857   5.756  0.5380  0.0441  0.0287
   12CHTO  H216 4677   5.586   1.799   5.667 -1.8845  0.7862  0.2861
   12CHTO   O73 4678   5.559   1.800   5.873 -0.3841 -0.3266  0.1024
   12CHTO  C113 4679   5.578   1.656   5.881 -0.7925  0.1000 -1.0636
   12CHTO  H217 4680   5.556   1.609   5.783  0.2772 -1.4525 -0.5727
   12CHTO  C124 4681   5.490   1.594   5.990  0.4479  0.0431  0.0703
   12CHTO   O83 4682   5.347   1.612   5.979  0.3801  0.5198 -0.0809
   12CHTO  H204 4683   5.318   1.688   6.026 -1.6567  0.5795 -1.3869
   12CHTO  C109 4684   5.726   1.633   5.912 -0.8022  0.2766 -0.0994
   12CHTO  H213 4685   5.745   1.683   6.008 -0.1187  0.5717 -0.3879
   12CHTO  C110 4686   5.818   1.701   5.809  0.1997 -0.6685 -0.4384
   12CHTO  H214 4687   5.804   1.639   5.720 -0.4288  0.6129 -1.2581
   12CHTO   O78 4688   5.954   1.696   5.855  0.3956 -0.3627 -0.4311
   12CHTO  H200 4689   6.003   1.728   5.781 -3.4175  1.3808 -2.3163
   12CHTO  C111 4690   5.776   1.852   5.779 -0.1610  0.3559  0.2101
   12CHTO  H215 4691   5.806   1.919   5.861 -0.4558  2.0092 -0.9925
   12CHTO   N19 4692   5.844   1.902   5.658 -0.5334  0.7094  0.4375
   12CHTO  H207 4693   5.825   2.003   5.623  1.7873  0.8856 -0.4128
   12CHTO  H208 4694   5.865   1.822   5.589 -0.2610  0.1545  1.1475
   12CHTO   O74 4695   5.764   1.489   5.928 -0.2794  0.5964 -0.6812
   12CHTO  C115 4696   5.863   1.451   6.047 -0.4358  0.0331  0.6237
   12CHTO  H219 4697   5.940   1.527   6.059  0.1061 -0.0901 -1.7628
   12CHTO   O76 4698   5.796   1.463   6.182  0.3696  0.3594  0.0671
   12CHTO  C122 4699   5.693   1.362   6.199 -0.7086 -0.3868  0.4010
   12CHTO  H226 4700   5.606   1.414   6.159 -0.6665  0.1620  1.0190
   12CHTO  C126 4701   5.670   1.343   6.353  0.1762 -0.8423  0.1229
   12CHTO   O85 4702   5.576   1.437   6.413 -0.5665  0.5724  0.2571
   12CHTO  H206 4703   5.611   1.460   6.497 -0.3889  1.4387 -0.0413
   12CHTO  C121 4704   5.702   1.221   6.123 -0.0284  0.0278  0.4994
   12CHTO  H225 4705   5.662   1.141   6.189 -0.1633 -0.0189  0.3615
   12CHTO   O81 4706   5.626   1.230   6.005 -0.2958  0.6266 -0.0664
   12CHTO  H202 4707   5.541   1.266   6.019 -0.1648 -0.0827  2.7997
   12CHTO  C119 4708   5.852   1.200   6.100 -0.2222 -0.7091  0.3612
   12CHTO  H223 4709   5.895   1.208   6.200 -2.4236  0.8486  1.2063
   12CHTO  C117 4710   5.927   1.311   6.015 -0.3057  0.4749 -0.1265
   12CHTO  H221 4711   5.913   1.305   5.907 -2.1410 -0.0271  0.1191
   12CHTO   N20 4712   6.075   1.304   6.031  0.2940 -0.4383  0.2817
   12CHTO  H209 4713   6.101   1.293   6.135  2.7512 -0.6954 -0.3211
   12CHTO  H210 4714   6.121   1.218   5.984  0.2502  0.0805 -0.7178
   12CHTO   O80 4715   5.889   1.051   6.057  0.1104 -0.0520  0.2020
   12CHTO  C103 4716   5.841   0.933   6.148 -0.3184 -0.9268 -0.8859
   12CHTO  H190 4717   5.820   0.964   6.250  0.6252  0.9202 -1.2330
   12CHTO  C101 4718   5.718   0.855   6.092  0.3205 -0.2316  0.0381
   12CHTO  H188 4719   5.730   0.834   5.986  0.2353 -0.0129 -0.0150
   12CHTO   O68 4720   5.592   0.925   6.085  0.3676 -0.6369  0.6508
   12CHTO  H168 4721   5.602   1.014   6.056  1.3207 -0.5843  1.1209
   12CHTO   C99 4722   5.699   0.711   6.164 -0.1045 -0.1363 -0.2730
   12CHTO  H186 4723   5.686   0.735   6.272 -1.0403 -1.8077  0.0006
   12CHTO   N17 4724   5.581   0.627   6.123  0.5751  0.4826 -0.3091
   12CHTO  H174 4725   5.492   0.684   6.145 -1.3080 -1.7993 -1.8006
   12CHTO  H175 4726   5.581   0.531   6.172  2.0204  0.0082 -1.1845
   12CHTO   C97 4727   5.835   0.637   6.146 -1.1268 -0.2557  0.0133
   12CHTO  H184 4728   5.855   0.631   6.038  0.0064 -1.9585  0.2987
   12CHTO   O64 4729   5.939   0.710   6.212  0.1569  0.3892  0.3757
   12CHTO  C104 4730   5.963   0.841   6.156  0.1642 -0.1193 -0.5902
   12CHTO  H191 4731   6.009   0.828   6.058  0.4970 -2.5196 -0.1558
   12CHTO  C108 4732   6.075   0.905   6.234  0.4366 -0.5645  0.1056
   12CHTO   O71 4733   6.188   0.820   6.242  0.0499 -0.3602 -0.0446
   12CHTO  H171 4734   6.257   0.877   6.271 -0.5649  0.8338 -0.9285
   12CHTO   O62 4735   5.837   0.504   6.190  0.0703 -0.0154  0.0772
   12CHTO   C91 4736   5.900   0.403   6.109 -0.3154 -0.7664 -0.0049
   12CHTO  H178 4737   5.988   0.441   6.058  0.3767 -2.9377 -0.4555
   12CHTO   C92 4738   5.805   0.354   5.998  0.8400  0.0285 -0.1646
   12CHTO  H179 4739   5.716   0.321   6.053  0.7522  0.9603  0.2677
   12CHTO   O66 4740   5.787   0.470   5.911  0.0137 -0.1441  0.1380
   12CHTO  H166 4741   5.740   0.540   5.952 -1.0910 -0.4378 -0.5968
   12CHTO   C93 4742   5.853   0.235   5.916  0.4062 -0.1180 -0.8019
   12CHTO  H180 4743   5.932   0.270   5.848 -0.1056 -1.0197 -1.8681
   12CHTO   N16 4744   5.743   0.174   5.830  0.5346 -0.3137 -0.0025
   12CHTO  H172 4745   5.654   0.139   5.881 -0.3804  0.7275 -0.8712
   12CHTO  H173 4746   5.716   0.239   5.748  3.2334  0.8032 -0.0720
   12CHTO   C94 4747   5.920   0.122   6.007  0.2651 -0.4403 -0.3888
   12CHTO  H181 4748   5.847   0.066   6.064  0.2699 -1.2524 -1.1716
   12CHTO   O61 4749   6.013   0.181   6.101 -0.2319  0.3591 -0.1865
   12CHTO   C95 4750   5.955   0.283   6.189 -0.4312  0.5799 -0.6151
   12CHTO  H182 4751   5.870   0.239   6.241  0.1772  0.7367  0.5279
   12CHTO  C106 4752   6.064   0.328   6.295 -0.7554  0.5576  0.7300
   12CHTO   O69 4753   6.174   0.403   6.242 -0.5184  0.0077 -0.3754
   12CHTO  H169 4754   6.161   0.496   6.254  0.1909  0.4973 -2.9489
   12CHTO   O63 4755   5.996   0.016   5.900  0.5879 -0.1448 -0.1130
   12CHTO   C96 4756   6.086  -0.104   5.969  0.7093 -0.3863  0.9029
   12CHTO  H183 4757   6.086  -0.080   6.076 -2.4675  0.9976  0.6429
   12CHTO   C98 4758   6.235  -0.113   5.918 -0.3124  0.1773 -0.0056
   12CHTO  H185 4759   6.228  -0.127   5.809 -1.7000 -0.6983  0.1791
   12CHTO   O67 4760   6.295   0.016   5.941 -0.0954  0.5341 -0.1660
   12CHTO  H167 4761   6.246   0.086   5.903 -1.3426  1.1597  2.4612
   12CHTO  C102 4762   6.314  -0.227   5.998  0.4277 -0.0706  0.5104
   12CHTO  H189 4763   6.322  -0.186   6.100  1.2944 -0.7072  0.7077
   12CHTO   N18 4764   6.451  -0.241   5.948 -0.2377  0.2001  0.6902
   12CHTO  H176 4765   6.515  -0.243   6.035  0.9727 -0.1933 -0.2027
   12CHTO  H177 4766   6.460  -0.341   5.910  2.3663  0.0479  1.6353
   12CHTO  C105 4767   6.233  -0.359   6.006 -0.9249  0.5173  0.1120
   12CHTO  H192 4768   6.240  -0.415   5.913  0.1790  1.8032 -0.5955
   12CHTO   O65 4769   6.093  -0.338   6.026  0.8571  0.0130  0.7476
   12CHTO  C100 4770   6.027  -0.246   5.942  0.3572 -0.3091 -0.7087
   12CHTO  H187 4771   6.030  -0.275   5.836 -2.9267  0.5343 -1.0985
   12CHTO  C107 4772   5.880  -0.244   5.979  0.0345  1.1869 -0.2378
   12CHTO   O70 4773   5.824  -0.372   5.954 -0.0869 -0.6466 -0.4632
   12CHTO  H170 4774   5.735  -0.359   5.927 -0.3042 -2.1222 -0.5021
   12CHTO   O57 4775   6.288  -0.443   6.141  0.5959 -0.0908 -0.2750
   12CHTO   C85 4776   6.237  -0.581   6.151 -1.3434  0.3281 -0.2575
   12CHTO  H157 4777   6.237  -0.620   6.047  0.9068 -2.1517  0.6055
   12CHTO   C83 4778   6.088  -0.583   6.220 -0.8165  0.9411  0.0968
   12CHTO  H155 4779   6.024  -0.542   6.142 -0.6843 -1.6600 -1.4578
   12CHTO   O56 4780   6.091  -0.502   6.341  0.1497  0.1953 -0.0117
   12CHTO  H135 4781   6.122  -0.414   6.330 -1.2378  0.8033  0.8778
   12CHTO   C81 4782   6.043  -0.735   6.244 -0.4584  0.5043  0.0897
   12CHTO  H153 4783   6.048  -0.792   6.151  1.0097  0.3917  0.2291
   12CHTO   N14 4784   5.907  -0.756   6.293  0.4748  0.0433  0.5364
   12CHTO  H141 4785   5.896  -0.754   6.399  0.4391  0.3221  0.5275
   12CHTO  H142 4786   5.875  -0.850   6.253 -0.4054  1.0044 -1.0886
   12CHTO   C79 4787   6.142  -0.803   6.345 -0.0160  0.3882 -0.5092
   12CHTO  H151 4788   6.109  -0.904   6.367 -0.5197  0.4961 -0.7762
   12CHTO   O52 4789   6.273  -0.802   6.276  0.1276  0.2915 -0.0386
   12CHTO   C86 4790   6.330  -0.669   6.251 -0.7862  0.0756  0.0399
   12CHTO  H158 4791   6.342  -0.622   6.351  0.8095 -2.7649  1.2479
   12CHTO   C90 4792   6.477  -0.678   6.193  0.4548  0.1372 -0.1176
   12CHTO   O60 4793   6.563  -0.753   6.277 -0.3130  0.0337 -0.2405
   12CHTO  H138 4794   6.564  -0.842   6.247  1.3579  0.2834 -0.9536
   12CHTO   O50 4795   6.174  -0.745   6.475  0.0878  0.0380 -0.0329
   12CHTO   C73 4796   6.117  -0.745   6.612 -0.5792  0.2429 -0.1548
   12CHTO  H145 4797   6.021  -0.798   6.608 -0.0164 -0.6675 -3.6142
   12CHTO   C74 4798   6.099  -0.594   6.657 -0.7905  0.2038 -0.1651
   12CHTO  H146 4799   6.033  -0.537   6.591 -0.2543  0.7695 -0.2180
   12CHTO   O54 4800   6.028  -0.588   6.783  0.2288  0.2822  0.5778
   12CHTO  H133 4801   5.945  -0.550   6.762  1.4122  1.5110 -2.1875
   12CHTO   C75 4802   6.241  -0.532   6.668 -0.3283 -0.1638 -0.1045
   12CHTO  H147 4803   6.279  -0.516   6.566 -0.1407  1.6379  0.2315
   12CHTO   N13 4804   6.243  -0.398   6.732  0.2305 -0.5146  0.1640
   12CHTO  H139 4805   6.211  -0.414   6.834  3.3949  0.4738  1.3674
   12CHTO  H140 4806   6.347  -0.368   6.737  0.7171 -2.3354  1.2500
   12CHTO   C76 4807   6.341  -0.628   6.748 -0.1966  0.1916  0.5097
   12CHTO  H148 4808   6.314  -0.633   6.854 -0.2036  1.9196  0.5968
   12CHTO   O49 4809   6.347  -0.763   6.690 -0.0292 -0.0887 -0.3823
   12CHTO   C77 4810   6.214  -0.818   6.706 -0.5297 -0.3237 -0.0687
   12CHTO  H149 4811   6.179  -0.813   6.809 -0.7548  2.2377 -0.2158
   12CHTO   C88 4812   6.228  -0.965   6.684  0.0709 -0.5299 -0.0381
   12CHTO   O58 4813   6.107  -1.050   6.717 -0.2173 -0.1226  0.0114
   12CHTO  H136 4814   6.038  -1.023   6.660  0.5474 -0.8475 -1.2984
   12CHTO   O51 4815   6.501  -0.571   6.719 -0.3270  0.0366 -0.0134
   12CHTO   C78 4816   6.629  -0.675   6.783  0.2707 -0.0061  0.4643
   12CHTO  H150 4817   6.601  -0.775   6.743 -1.7466  1.7018 -2.5643
   12CHTO   C80 4818   6.631  -0.689   6.937  0.6292 -0.6929 -0.6110
   12CHTO  H152 4819   6.633  -0.590   6.987 -0.1321 -0.6961 -0.5769
   12CHTO   O55 4820   6.520  -0.759   6.986  0.5867 -0.0344 -0.0996
   12CHTO  H134 4821   6.523  -0.743   7.079  1.6592 -0.0219 -0.1268
   12CHTO   C84 4822   6.763  -0.762   6.980 -0.0752 -0.4022 -0.2236
   12CHTO  H156 4823   6.757  -0.865   6.947  0.6599 -0.2896 -0.7307
   12CHTO   N15 4824   6.773  -0.760   7.129 -0.4359  0.5512 -0.4136
   12CHTO  H143 4825   6.860  -0.815   7.158 -1.0738 -0.3834 -0.2348
   12CHTO  H144 4826   6.787  -0.654   7.138  1.7805  0.1688  0.8058
   12CHTO   C87 4827   6.884  -0.703   6.907 -0.2586 -0.0472  0.0908
   12CHTO  H159 4828   6.902  -0.605   6.951 -1.7651  0.4677 -0.4079
   12CHTO   O53 4829   6.871  -0.696   6.774 -0.2221  0.0884 -0.5551
   12CHTO   C82 4830   6.762  -0.613   6.728 -0.5996  0.9291  0.5450
   12CHTO  H154 4831   6.771  -0.508   6.754  1.2971  0.9950 -0.3192
   12CHTO   C89 4832   6.759  -0.623   6.572  0.5977  0.5038  0.3471
   12CHTO   O59 4833   6.881  -0.571   6.502 -0.0127  0.6199 -0.3005
   12CHTO  H137 4834   6.902  -0.629   6.431  0.1285  1.5842 -1.0540
   12CHTO   O45 4835   7.014  -0.783   6.957  0.3621 -0.1145 -0.0469
   12CHTO   C67 4836   7.036  -0.911   6.903  0.2994 -0.5139  0.0313
   12CHTO  H124 4837   6.945  -0.957   6.867  1.3120 -1.3770 -1.4962
   12CHTO   C65 4838   7.130  -0.893   6.787 -0.7476  0.0422 -0.0545
   12CHTO  H122 4839   7.104  -0.797   6.743  1.7550  0.8280  0.1374
   12CHTO   O44 4840   7.109  -1.008   6.707  0.2176 -0.1506  0.1324
   12CHTO  H102 4841   7.184  -1.064   6.711  0.7608  0.5414 -0.2879
   12CHTO   C63 4842   7.271  -0.873   6.848 -0.1596 -0.2932  0.0493
   12CHTO  H120 4843   7.270  -0.801   6.930  0.3881 -0.5303  0.2605
   12CHTO   N11 4844   7.368  -0.817   6.751  0.1418 -0.4261 -0.5285
   12CHTO  H108 4845   7.462  -0.799   6.800  0.4098 -2.7533 -0.1375
   12CHTO  H109 4846   7.321  -0.732   6.707  1.0792  0.0416 -0.6416
   12CHTO   C61 4847   7.315  -1.015   6.905  0.4678  0.0052 -0.2527
   12CHTO  H118 4848   7.382  -0.992   6.989 -0.3553 -0.1070  0.4407
   12CHTO   O40 4849   7.208  -1.093   6.962  0.4810 -0.2482  0.1783
   12CHTO   C68 4850   7.098  -1.010   7.015  0.8359 -0.6802 -0.4130
   12CHTO  H125 4851   7.140  -0.949   7.098  1.0806  1.7035 -2.2281
   12CHTO   C72 4852   6.973  -1.085   7.078 -0.4321 -0.1680  0.1218
   12CHTO   O48 4853   7.002  -1.121   7.210 -0.4802 -0.2306 -0.5687
   12CHTO  H105 4854   7.075  -1.179   7.218  1.3255  2.1792  1.0922
   12CHTO   O38 4855   7.376  -1.107   6.811  0.5381 -0.4132  0.1790
   12CHTO   C55 4856   7.480  -1.191   6.857  0.6536 -0.1731  0.3225
   12CHTO  H112 4857   7.461  -1.211   6.963 -0.5126  1.3735  0.4164
   12CHTO   C56 4858   7.617  -1.118   6.835  0.6780 -0.3987  0.3210
   12CHTO  H113 4859   7.616  -1.091   6.729 -1.8568  0.9366  0.6489
   12CHTO   O42 4860   7.626  -0.995   6.902  0.7127  0.0710 -0.7659
   12CHTO  H100 4861   7.550  -0.948   6.874  0.7576  0.3140 -0.4822
   12CHTO   C57 4862   7.739  -1.212   6.864 -0.1184  0.0582 -0.4265
   12CHTO  H114 4863   7.741  -1.231   6.971  0.7690 -0.3213 -0.5042
   12CHTO   N10 4864   7.867  -1.147   6.816 -0.0671  0.2887  0.1338
   12CHTO  H106 4865   7.948  -1.195   6.868  0.7465  0.0055 -1.3722
   12CHTO  H107 4866   7.887  -1.151   6.710  0.6623 -0.0568  0.2804
   12CHTO   C58 4867   7.718  -1.346   6.792  0.5398 -0.1897 -0.4634
   12CHTO  H115 4868   7.732  -1.328   6.684 -1.9084  1.2934 -0.5785
   12CHTO   O37 4869   7.586  -1.405   6.816 -0.2151 -0.2086  0.8513
   12CHTO   C59 4870   7.473  -1.326   6.782 -0.3128  0.5699 -0.2110
   12CHTO  H116 4871   7.481  -1.308   6.675 -1.0389 -0.4959 -0.4547
   12CHTO   C70 4872   7.353  -1.413   6.814 -0.0418 -0.5061 -0.2019
   12CHTO   O46 4873   7.240  -1.359   6.755  0.0422 -0.1850  0.1962
   12CHTO  H103 4874   7.173  -1.425   6.753  0.5703 -0.7590  0.9971
   12CHTO   O39 4875   7.811  -1.453   6.861  0.3194 -0.5118  0.1194
   12CHTO   C60 4876   7.854  -1.550   6.771  0.3376  0.2104 -0.2104
   12CHTO  H117 4877   7.778  -1.550   6.692 -0.7790  1.2886  0.8372
   12CHTO   C62 4878   7.993  -1.524   6.710 -0.2280 -0.4831  0.1218
   12CHTO  H119 4879   7.992  -1.434   6.645 -1.4365 -1.0992 -0.7307
   12CHTO   O43 4880   8.086  -1.490   6.815 -0.1729 -0.5039 -0.3863
   12CHTO  H101 4881   8.167  -1.463   6.777  1.2549 -0.9696  2.1579
   12CHTO   C66 4882   8.049  -1.646   6.614  0.2027  0.0130  0.0672
   12CHTO  H123 4883   7.981  -1.647   6.528 -3.0014 -1.3745  2.5110
   12CHTO   N12 4884   8.182  -1.617   6.547 -0.3429 -0.5552  0.1119
   12CHTO  H110 4885   8.195  -1.683   6.462  1.0209  1.4699 -1.3053
   12CHTO  H111 4886   8.263  -1.627   6.618 -0.8576  0.3720  0.8287
   12CHTO   C69 4887   8.043  -1.779   6.688  0.8151 -0.2650 -0.2566
   12CHTO  H126 4888   8.108  -1.774   6.778 -0.5275  0.5411  0.6821
   12CHTO   O41 4889   7.890  -1.800   6.740  0.2579  0.5083 -0.3817
   12CHTO   C64 4890   7.838  -1.692   6.838 -0.1815  0.3568  0.2217
   12CHTO  H121 4891   7.903  -1.687   6.928  1.0341 -0.1790 -0.6166
   12CHTO   C71 4892   7.689  -1.720   6.877  0.1941 -0.0769  0.4054
   12CHTO   O47 4893   7.687  -1.848   6.939  0.7593 -0.3414  0.0155
   12CHTO  H104 4894   7.726  -1.839   7.024  3.3856 -0.8122 -1.1068
   12CHTO   O34 4895   8.076  -1.887   6.610  0.5609 -0.2114  0.1831
   12CHTO   C49 4896   8.140  -2.010   6.624  0.0654 -0.1576 -0.2791
   12CHTO   H91 4897   8.245  -1.993   6.649  0.0991 -0.3830 -0.2663
   12CHTO   C47 4898   8.139  -2.090   6.492 -0.1494 -0.1679 -0.1688
   12CHTO   H89 4899   8.186  -2.190   6.501  1.3388  0.6347  1.2700
   12CHTO   O33 4900   8.212  -2.014   6.399  0.6941 -0.1186 -0.1500
   12CHTO   H70 4901   8.302  -2.005   6.425  1.4617 -1.3261 -2.3159
   12CHTO   C45 4902   7.984  -2.103   6.439  0.6047 -0.3096 -0.4084
   12CHTO   H87 4903   7.944  -2.008   6.400  0.4904 -1.2504 -2.6501
   12CHTO    N8 4904   7.983  -2.203   6.331  0.0610  0.8689 -0.2138
   12CHTO   H75 4905   8.038  -2.164   6.247  2.3870 -0.6213  0.5747
   12CHTO   H76 4906   7.892  -2.255   6.304  0.4879  0.5334 -1.0191
   12CHTO   C43 4907   7.890  -2.135   6.568 -0.2960  0.1941 -0.1876
   12CHTO   H85 4908   7.852  -2.037   6.596  1.6182  0.5151  1.4332
   12CHTO   O29 4909   7.972  -2.193   6.675 -0.2001 -0.0912  0.0458
   12CHTO   C50 4910   8.072  -2.105   6.726  0.2357 -0.7340  0.3667
   12CHTO   H92 4911   8.018  -2.037   6.793  1.3152  0.5723 -0.0798
   12CHTO   C54 4912   8.166  -2.189   6.822  0.7397 -0.3334 -0.2002
   12CHTO   O36 4913   8.090  -2.205   6.942 -0.2579  0.2066 -0.6285
   12CHTO   H72 4914   8.130  -2.276   6.989 -2.8481 -0.3794  0.7945
   12CHTO   O27 4915   7.777  -2.219   6.562  0.7770  0.0585 -0.8510
   12CHTO   C37 4916   7.657  -2.222   6.639  0.5887 -0.0704  0.1918
   12CHTO   H79 4917   7.602  -2.316   6.624 -1.1580  0.8042  0.9192
   12CHTO   C38 4918   7.692  -2.234   6.794 -0.0627  0.3605  0.4250
   12CHTO   H80 4919   7.758  -2.150   6.819  0.2349  0.0165  0.8023
   12CHTO   O31 4920   7.763  -2.358   6.812  0.0977  0.0020  0.8767
   12CHTO   H68 4921   7.715  -2.437   6.829  0.1315 -0.4955 -1.2610
   12CHTO   C39 4922   7.560  -2.218   6.873  0.0699 -0.4837  0.0154
   12CHTO   H81 4923   7.492  -2.299   6.845 -2.2143  0.2277  3.2738
   12CHTO    N7 4924   7.570  -2.223   7.022 -0.0205 -0.1332  0.7214
   12CHTO   H73 4925   7.493  -2.175   7.080  0.1728  1.3922 -0.2389
   12CHTO   H74 4926   7.664  -2.174   7.047  0.0773  0.3867 -0.6243
   12CHTO   C40 4927   7.476  -2.093   6.826  0.0377 -0.1826  0.7168
   12CHTO   H82 4928   7.518  -1.995   6.849  0.4055 -0.2593  0.3843
   12CHTO   O26 4929   7.452  -2.106   6.685 -0.2862 -0.3817 -0.1990
   12CHTO   C41 4930   7.565  -2.097   6.592 -0.4218  0.4456  0.0321
   12CHTO   H83 4931   7.625  -2.007   6.612  3.2766 -1.7129 -0.8017
   12CHTO   C52 4932   7.518  -2.100   6.445  0.0849  0.1022  0.2650
   12CHTO   O35 4933   7.424  -2.003   6.416  0.1521 -0.7210 -0.2830
   12CHTO   H71 4934   7.376  -2.019   6.336 -3.3555  0.7217  1.4434
   12CHTO   O28 4935   7.344  -2.085   6.888 -0.0036  0.3426  0.2944
   12CHTO   C42 4936   7.242  -1.990   6.842  0.4256 -0.4989 -0.0592
   12CHTO   H84 4937   7.168  -2.011   6.918 -0.4297 -0.2023 -0.8010
   12CHTO   C44 4938   7.172  -2.019   6.701 -0.2694  0.1451 -0.2112
   12CHTO   H86 4939   7.246  -2.018   6.621 -1.6791 -0.5409 -1.5527
   12CHTO   O32 4940   7.123  -2.153   6.713  0.6101 -0.2054  1.0198
   12CHTO   H69 4941   7.060  -2.165   6.645  1.2181  0.1105  0.3951
   12CHTO   C48 4942   7.068  -1.904   6.673 -0.0960  0.2015  0.2235
   12CHTO   H90 4943   6.994  -1.902   6.753 -0.5724  1.7069 -0.2280
   12CHTO    N9 4944   7.000  -1.929   6.540  0.1941  0.1936  0.3179
   12CHTO   H77 4945   6.905  -1.977   6.558 -1.6878  2.2262 -3.6313
   12CHTO   H78 4946   6.981  -1.836   6.489  0.6785 -1.0292 -2.1326
   12CHTO   C51 4947   7.147  -1.769   6.676 -0.1783  0.6338 -0.1084
   12CHTO   H93 4948   7.232  -1.793   6.613  0.3942  1.1478  0.4649
   12CHTO   O30 4949   7.184  -1.753   6.812  0.1838 -0.4071 -0.0066
   12CHTO   C46 4950   7.291  -1.842   6.860  0.4508  0.0000 -0.0332
   12CHTO   H88 4951   7.384  -1.819   6.808  0.0652  0.8167 -0.3641
   12CHTO   C53 4952   7.302  -1.811   7.012  0.4019  0.1786  0.5349
   12CHTO   O72 4953   7.394  -1.701   7.040 -0.0850  0.0977 -0.2911
   12CHTO  H199 4954   7.433  -1.723   7.123 -0.6256  0.5752  0.0974
   12CHTO   O22 4955   7.077  -1.648   6.636 -0.1120  0.1611 -0.8500
   12CHTO   C31 4956   6.950  -1.593   6.696  0.1546 -0.7210 -0.2005
   12CHTO   H59 4957   6.870  -1.661   6.660  0.2620 -1.0532  0.1836
   12CHTO   C29 4958   6.930  -1.581   6.850 -0.5922  0.0575  0.0576
   12CHTO   H57 4959   7.017  -1.525   6.887  0.3892 -1.9914  0.9085
   12CHTO   O21 4960   6.933  -1.715   6.899 -0.1617 -0.0678  0.4330
   12CHTO   H37 4961   6.907  -1.722   6.989  1.2481 -2.0069  0.7134
   12CHTO   C27 4962   6.795  -1.513   6.895  0.1996 -0.2939 -0.8046
   12CHTO   H55 4963   6.711  -1.573   6.856  0.2846 -0.3740 -0.8645
   12CHTO    N5 4964   6.777  -1.499   7.039 -0.0326  0.2217  0.5693
   12CHTO   H43 4965   6.870  -1.456   7.074  1.7725 -0.7414 -2.7760
   12CHTO   H44 4966   6.689  -1.445   7.067 -0.6460 -1.7630  2.6433
   12CHTO   C25 4967   6.767  -1.384   6.814  0.2893  0.1630  0.3521
   12CHTO   H53 4968   6.837  -1.303   6.838  0.1349  0.0920  1.0573
   12CHTO   O17 4969   6.788  -1.414   6.670 -0.5608 -0.3573 -0.4655
   12CHTO   C32 4970   6.920  -1.456   6.639  0.1795 -0.5451  0.7417
   12CHTO   H60 4971   6.997  -1.387   6.674 -0.3726 -1.3273  3.6194
   12CHTO   C36 4972   6.925  -1.452   6.483  0.4440 -0.4517 -0.1513
   12CHTO   O25 4973   6.905  -1.320   6.434 -0.2656 -0.4424  0.0469
   12CHTO   H40 4974   6.983  -1.291   6.391 -0.4786 -0.3645 -0.2875
   12CHTO   O15 4975   6.620  -1.323   6.825  0.5850  0.2943  0.0360
   12CHTO   C19 4976   6.547  -1.234   6.734 -1.0482  0.5081  0.1378
   12CHTO   H47 4977   6.470  -1.183   6.794 -0.7633  1.9247 -0.7071
   12CHTO   C20 4978   6.642  -1.130   6.662  0.6629  0.3457 -0.3419
   12CHTO   H48 4979   6.735  -1.178   6.630 -0.5117 -0.6592 -2.3269
   12CHTO   O19 4980   6.687  -1.024   6.754 -0.0534  0.0129  0.5924
   12CHTO   H35 4981   6.771  -1.048   6.787  1.4839  3.5958 -0.4513
   12CHTO   C21 4982   6.581  -1.048   6.537  0.6399 -0.1186  0.0922
   12CHTO   H49 4983   6.512  -0.971   6.569  1.8428  1.6343 -1.4201
   12CHTO    N4 4984   6.684  -0.984   6.454  0.0644 -0.8279 -0.8501
   12CHTO   H41 4985   6.748  -1.061   6.414  1.2967  1.2164 -2.8983
   12CHTO   H42 4986   6.750  -0.923   6.514 -0.1173 -0.6401 -0.8437
   12CHTO   C22 4987   6.503  -1.148   6.452  0.3194  0.6267 -0.3019
   12CHTO   H50 4988   6.565  -1.210   6.387  0.8935  0.6870  0.1842
   12CHTO   O14 4989   6.409  -1.212   6.535 -0.4494 -0.3732 -0.0032
   12CHTO   C23 4990   6.470  -1.311   6.618 -0.0940  0.2312 -1.0569
   12CHTO   H51 4991   6.535  -1.370   6.552 -0.2871  0.3847 -1.3850
   12CHTO   C34 4992   6.354  -1.404   6.677 -0.3293  0.1704 -0.0109
   12CHTO   O23 4993   6.270  -1.344   6.772 -0.0737  0.4099 -0.1612
   12CHTO   H38 4994   6.270  -1.385   6.856  1.1674 -1.4616 -1.0440
   12CHTO   O16 4995   6.414  -1.074   6.370 -0.3344  0.0231 -0.5325
   12CHTO   C24 4996   6.374  -1.148   6.229  0.5191 -0.5836  0.3727
   12CHTO   H52 4997   6.406  -1.252   6.229  0.5936 -0.5641 -0.7808
   12CHTO   C26 4998   6.430  -1.068   6.110 -0.2584  0.2130 -0.1126
   12CHTO   H54 4999   6.389  -0.965   6.120  0.9161  0.6766  0.0095
   12CHTO   O20 5000   6.573  -1.069   6.122 -0.3108 -0.3140 -0.0670
   12CHTO   H36 5001   6.603  -0.998   6.175 -0.8932  0.1054 -0.2864
   12CHTO   C30 5002   6.385  -1.121   5.976 -0.3944  0.1450  0.6856
   12CHTO   H58 5003   6.425  -1.224   5.966  1.4129  0.9287 -0.4256
   12CHTO    N6 5004   6.428  -1.044   5.857  0.2585 -0.9054  0.1414
   12CHTO   H45 5005   6.353  -0.972   5.827  0.4014 -1.1279 -0.7609
   12CHTO   H46 5006   6.529  -1.006   5.869  0.2563 -1.2954  1.4844
   12CHTO   C33 5007   6.230  -1.141   5.971 -0.5609  0.3607  0.0778
   12CHTO   H61 5008   6.183  -1.042   5.974 -0.8870  0.2453 -1.2066
   12CHTO   O18 5009   6.194  -1.212   6.090  0.3863  0.2316 -0.3881
   12CHTO   C28 5010   6.220  -1.151   6.211  0.5640 -0.6288 -0.4962
   12CHTO   H56 5011   6.185  -1.048   6.217  2.3946  0.0038 -0.5675
   12CHTO   C35 5012   6.159  -1.226   6.336  0.2552 -0.1430 -0.6641
   12CHTO   O24 5013   6.018  -1.228   6.320 -0.0055  0.2664 -0.0948
   12CHTO   H39 5014   5.983  -1.165   6.381 -0.2982 -0.7364  0.7793
   12CHTO    O9 5015   6.181  -1.207   5.854 -0.2612  0.1443  0.1872
   12CHTO   C13 5016   6.216  -1.372   5.844 -0.1074 -0.0329 -0.0573
   12CHTO   H26 5017   6.281  -1.409   5.926 -0.3431  0.2905  0.2794
   12CHTO   C11 5018   6.273  -1.397   5.701  0.3253 -0.0096  0.6438
   12CHTO   H24 5019   6.367  -1.343   5.683 -0.2694  0.5293 -0.9494
   12CHTO    O8 5020   6.180  -1.351   5.595  0.8289 -0.1142  0.0384
   12CHTO    H3 5021   6.184  -1.258   5.590  1.6884 -0.2487 -2.7380
   12CHTO    C9 5022   6.314  -1.546   5.685  0.0014 -0.0795 -0.4339
   12CHTO   H22 5023   6.391  -1.567   5.761 -0.4530 -0.0359  0.0433
   12CHTO    N2 5024   6.390  -1.570   5.556 -0.3938 -0.3098  0.1201
   12CHTO   H10 5025   6.480  -1.510   5.554 -0.4001 -0.3519 -1.3720
   12CHTO   H11 5026   6.412  -1.674   5.540  0.4448  0.0979 -1.4912
   12CHTO    C7 5027   6.190  -1.636   5.718 -0.3403  0.0585 -0.5287
   12CHTO   H20 5028   6.231  -1.697   5.801 -2.2770 -0.9423 -0.2770
   12CHTO    O4 5029   6.072  -1.562   5.764  0.0743  0.3986  0.2460
   12CHTO   C14 5030   6.084  -1.457   5.864 -0.3813  0.0311 -0.3335
   12CHTO   H27 5031   6.085  -1.504   5.965  0.7739  1.4123  0.3227
   12CHTO   C18 5032   5.949  -1.371   5.851  0.2237 -0.5462 -0.1113
   12CHTO   O13 5033   5.915  -1.306   5.975  0.6491  0.3809  0.0297
   12CHTO    H7 5034   5.853  -1.363   6.016 -1.2450  2.9040  0.7747
   12CHTO    O2 5035   6.140  -1.738   5.596 -0.2311  0.3721 -0.3357
   12CHTO    C1 5036   6.127  -1.868   5.652 -0.5805  0.5879 -0.0808
   12CHTO   H14 5037   6.108  -1.862   5.761 -1.6126 -0.3196 -0.2021
   12CHTO    C2 5038   6.257  -1.948   5.631  0.0658  0.5432  0.2779
   12CHTO   H15 5039   6.269  -1.940   5.522  1.2582 -1.1651  0.2673
   12CHTO    O6 5040   6.364  -1.897   5.712  0.2656  0.2287  0.2569
   12CHTO    H1 5041   6.431  -1.963   5.719  1.2263  1.2210  0.6049
   12CHTO    C3 5042   6.236  -2.106   5.668  0.2251  0.1028 -0.1482
   12CHTO   H16 5043   6.242  -2.115   5.777  0.8329 -1.1106 -0.2787
   12CHTO    N1 5044   6.348  -2.193   5.612 -0.6057 -0.0496 -0.0092
   12CHTO    H8 5045   6.338  -2.296   5.642  3.2744 -0.8019 -1.1295
   12CHTO    H9 5046   6.360  -2.190   5.505 -0.4303 -1.6671 -0.0512
   12CHTO    C4 5047   6.097  -2.162   5.624  0.3370 -0.2979  0.7429
   12CHTO   H17 5048   6.095  -2.174   5.516  1.6789  0.5479  0.6180
   12CHTO    O1 5049   5.993  -2.070   5.662  0.0635 -0.6526 -0.5346
   12CHTO    C5 5050   6.005  -1.943   5.593  1.1204  0.8875 -0.1414
   12CHTO   H18 5051   6.021  -1.957   5.486  2.6792 -0.0088  0.1973
   12CHTO   C16 5052   5.875  -1.863   5.609 -0.3167 -0.1681  0.8700
   12CHTO   O11 5053   5.852  -1.805   5.732 -0.0468 -0.4834  0.0169
   12CHTO    H5 5054   5.926  -1.747   5.734 -0.3287 -0.1413  0.6379
   12CHTO    O3 5055   6.069  -2.288   5.689 -0.3665 -0.1738 -0.5385
   12CHTO    C6 5056   5.995  -2.379   5.599 -1.0232  0.1691 -0.3190
   12CHTO   H19 5057   5.958  -2.336   5.506  0.6741 -1.6951 -1.8943
   12CHTO    C8 5058   6.075  -2.497   5.557 -0.1723 -0.4906  0.0147
   12CHTO   H21 5059   6.114  -2.543   5.648  0.1416 -0.0145  0.1279
   12CHTO    O7 5060   6.183  -2.452   5.474 -0.5588  0.0303 -0.4455
   12CHTO    H2 5061   6.264  -2.451   5.522 -0.3450 -0.8224 -0.7916
   12CHTO   C12 5062   5.990  -2.596   5.468  0.2981  0.2594  0.4867
   12CHTO   H25 5063   5.967  -2.545   5.372  1.3565 -0.7280 -0.3064
   12CHTO    N3 5064   6.070  -2.715   5.425 -0.3522  0.1580 -0.0884
   12CHTO   H12 5065   6.040  -2.809   5.471  1.5603 -1.4246 -1.9777
   12CHTO   H13 5066   6.053  -2.723   5.319  2.4068 -0.0362 -0.5351
   12CHTO   C15 5067   5.860  -2.630   5.540  1.1883 -0.1472 -0.0318
   12CHTO   H28 5068   5.867  -2.702   5.622 -1.2245 -1.7761 -1.2035
   12CHTO   O10 5069   5.735  -2.677   5.437 -0.2097 -0.0130 -0.2398
   12CHTO    H4 5070   5.757  -2.757   5.392 -2.1934 -1.3061  1.0422
   12CHTO    O5 5071   5.799  -2.508   5.586 -0.1108  0.1616 -0.4309
   12CHTO   C10 5072   5.875  -2.428   5.678 -0.4163 -0.9519 -0.4516
   12CHTO   H23 5073   5.907  -2.491   5.760  0.2704 -0.8618 -0.6525
   12CHTO   C17 5074   5.786  -2.311   5.716  0.5054  0.0661 -0.0620
   12CHTO   O12 5075   5.663  -2.346   5.769  0.3045  0.5803  0.3288
   12CHTO    H6 5076   5.605  -2.368   5.699 -1.6282  0.5491  1.8673
   13CHTO  H203 5077   7.389   4.479   2.184 -0.8212 -0.8084 -0.6792
   13CHTO   O82 5078   7.345   4.547   2.137 -0.5848 -0.0815  0.1301
   13CHTO  C123 5079   7.372   4.677   2.191 -0.3827  0.3251 -0.3059
   13CHTO  H227 5080   7.465   4.715   2.146  0.5608  1.0921  2.1773
   13CHTO   O77 5081   7.262   4.757   2.138  0.0987  0.2361 -0.2959
   13CHTO  C118 5082   7.273   4.900   2.165  0.8213  0.5537  1.1972
   13CHTO  H222 5083   7.371   4.934   2.128  1.1294 -0.8736  0.6678
   13CHTO  C125 5084   7.161   4.967   2.074  0.1636  0.8417  0.1552
   13CHTO   O84 5085   7.168   5.112   2.090 -0.2718  0.0480  0.1183
   13CHTO  H205 5086   7.245   5.159   2.063 -0.6532  1.6752  1.7559
   13CHTO  C114 5087   7.256   4.907   2.318 -0.1095  0.4955  0.3748
   13CHTO  H218 5088   7.162   4.855   2.337  0.1318  0.0584  0.4020
   13CHTO  C116 5089   7.371   4.838   2.386  0.5914  0.2222 -0.1412
   13CHTO  H220 5090   7.463   4.886   2.349  0.6032 -0.8429 -1.5640
   13CHTO   O79 5091   7.368   4.858   2.528 -0.4764  0.0260 -0.0836
   13CHTO  H201 5092   7.429   4.923   2.559 -2.3002  3.0782 -2.5159
   13CHTO  C120 5093   7.378   4.680   2.347 -0.2092  0.2248  0.1051
   13CHTO  H224 5094   7.286   4.639   2.394  1.7443 -1.5168  2.5790
   13CHTO   N21 5095   7.504   4.615   2.402  0.2500 -0.0870 -0.2374
   13CHTO  H211 5096   7.526   4.667   2.495 -0.8035  0.4794 -0.3007
   13CHTO  H212 5097   7.477   4.513   2.425  1.2698 -0.2595  0.2445
   13CHTO   O75 5098   7.245   5.046   2.339  0.3133  0.0964  0.5402
   13CHTO  C112 5099   7.166   5.105   2.483  0.4948  0.1081  0.0837
   13CHTO  H216 5100   7.225   5.084   2.573 -2.0796  0.2092  1.8302
   13CHTO   O73 5101   7.042   5.041   2.483  0.3172  0.3847  0.0029
   13CHTO  C113 5102   6.948   5.084   2.580 -0.3202 -0.1547 -0.5395
   13CHTO  H217 5103   6.996   5.078   2.679  1.1242  3.1278 -0.9690
   13CHTO  C124 5104   6.829   4.990   2.591  0.3679  0.1574 -0.7628
   13CHTO   O83 5105   6.858   4.848   2.602  0.2630  0.1075 -0.3879
   13CHTO  H204 5106   6.869   4.817   2.514 -1.4454  1.2911 -1.0471
   13CHTO  C109 5107   6.916   5.237   2.559 -0.0644 -1.1623 -0.6772
   13CHTO  H213 5108   6.865   5.250   2.462  0.1596  0.0087 -0.6484
   13CHTO  C110 5109   7.044   5.324   2.572 -0.4130  0.1447 -0.0629
   13CHTO  H214 5110   7.073   5.322   2.677 -0.4435 -0.5570 -0.0657
   13CHTO   O78 5111   7.004   5.463   2.542  0.4320 -0.0277  0.1755
   13CHTO  H200 5112   7.069   5.526   2.566 -1.9425  1.2830  3.6870
   13CHTO  C111 5113   7.151   5.263   2.471 -0.2838  0.4416  0.0925
   13CHTO  H215 5114   7.119   5.282   2.368 -1.6090  2.3663  0.8220
   13CHTO   N19 5115   7.287   5.318   2.486 -0.2574  0.5079  0.4787
   13CHTO  H207 5116   7.274   5.425   2.485 -3.3078  0.1790  0.2271
   13CHTO  H208 5117   7.323   5.287   2.584 -1.0361 -0.4404  0.4742
   13CHTO   O74 5118   6.821   5.270   2.660 -0.0667  0.2928  0.6154
   13CHTO  C115 5119   6.671   5.344   2.608 -0.3395  0.4125 -0.2626
   13CHTO  H219 5120   6.664   5.348   2.500 -1.0026 -0.5059 -0.2676
   13CHTO   O76 5121   6.541   5.246   2.655  0.3742 -0.2166 -0.2581
   13CHTO  C122 5122   6.512   5.257   2.796  0.7701  0.4602  0.2104
   13CHTO  H226 5123   6.601   5.242   2.858  0.9444  0.4422 -0.0425
   13CHTO  C126 5124   6.402   5.154   2.843 -0.1402 -0.2423 -0.2234
   13CHTO   O85 5125   6.266   5.163   2.785  0.0394  0.0309 -0.2128
   13CHTO  H206 5126   6.221   5.242   2.808  1.2113  0.3322  1.0744
   13CHTO  C121 5127   6.472   5.401   2.829 -0.7489  0.5320  0.0026
   13CHTO  H225 5128   6.361   5.400   2.832 -0.7356  0.9981  0.7828
   13CHTO   O81 5129   6.506   5.437   2.960  0.3124  0.3446 -0.7616
   13CHTO  H202 5130   6.590   5.407   2.991 -1.2082 -0.8969  2.3273
   13CHTO  C119 5131   6.520   5.517   2.733  0.2822 -0.2140 -0.1267
   13CHTO  H223 5132   6.454   5.516   2.646  1.0674 -3.4170 -0.7379
   13CHTO  C117 5133   6.660   5.490   2.676  0.5800  0.7152 -0.3800
   13CHTO  H221 5134   6.747   5.494   2.743  1.1214  1.3572 -1.1186
   13CHTO   N20 5135   6.693   5.586   2.570 -0.4940  0.1852  0.1118
   13CHTO  H209 5136   6.733   5.562   2.473 -0.0707 -0.0444  0.3414
   13CHTO  H210 5137   6.641   5.679   2.589  0.5803  0.9490 -0.5879
   13CHTO   O80 5138   6.506   5.676   2.789 -0.3755  0.3448  0.5281
   13CHTO  C103 5139   6.370   5.754   2.765  0.4758  0.7353 -0.2152
   13CHTO  H190 5140   6.393   5.858   2.741  0.6332  0.1538 -2.6490
   13CHTO  C101 5141   6.271   5.711   2.651  1.1065  0.4971 -0.1768
   13CHTO  H188 5142   6.254   5.603   2.655 -1.2817  0.9063  3.0575
   13CHTO   O68 5143   6.343   5.744   2.514  0.0797  0.3150  0.2873
   13CHTO  H168 5144   6.430   5.710   2.507 -0.1422  0.2168 -2.2582
   13CHTO   C99 5145   6.128   5.784   2.670  0.2799 -0.3470 -1.1684
   13CHTO  H186 5146   6.151   5.892   2.659 -0.5131  0.0751  0.9970
   13CHTO   N17 5147   6.030   5.749   2.566  0.4030  0.4030 -0.0445
   13CHTO  H174 5148   5.930   5.778   2.594  0.4053 -0.1598  0.5857
   13CHTO  H175 5149   6.065   5.783   2.470  0.3967  0.6313  0.0332
   13CHTO   C97 5150   6.074   5.766   2.812 -0.1098 -0.4955 -0.0926
   13CHTO  H184 5151   6.055   5.659   2.832 -0.1876 -0.3774  0.4973
   13CHTO   O64 5152   6.167   5.825   2.908  0.0115 -0.2927 -0.4306
   13CHTO  C104 5153   6.290   5.748   2.911 -0.0217 -0.9159  0.0065
   13CHTO  H191 5154   6.273   5.642   2.932  0.6492 -1.3121 -1.4435
   13CHTO  C108 5155   6.376   5.796   3.023  0.2915  0.5537  0.0179
   13CHTO   O71 5156   6.302   5.815   3.139  0.5565  0.1914  0.2229
   13CHTO  H171 5157   6.356   5.801   3.214  0.6774 -0.4129  0.0218
   13CHTO   O62 5158   5.952   5.836   2.838 -0.4065 -0.1272  0.9733
   13CHTO   C91 5159   5.859   5.770   2.923  0.4023  0.0008  0.1659
   13CHTO  H178 5160   5.919   5.696   2.976 -0.2094 -2.9669 -3.1034
   13CHTO   C92 5161   5.754   5.679   2.848  0.8881  0.0575  0.5587
   13CHTO  H179 5162   5.706   5.739   2.770 -0.7323 -1.8021  0.0658
   13CHTO   O66 5163   5.831   5.565   2.792 -0.5337  0.3397  0.1774
   13CHTO  H166 5164   5.877   5.526   2.864  1.1778  2.9824  0.6094
   13CHTO   C93 5165   5.639   5.616   2.932  1.1672  0.0025 -0.2696
   13CHTO  H180 5166   5.672   5.523   2.979  1.3019  0.2147  0.0589
   13CHTO   N16 5167   5.526   5.575   2.844 -0.1877 -0.1065 -1.2537
   13CHTO  H172 5168   5.566   5.501   2.776  0.5523 -1.9234  1.0970
   13CHTO  H173 5169   5.453   5.517   2.898  2.8969 -1.9155  1.1462
   13CHTO   C94 5170   5.584   5.716   3.034  0.6813 -0.0893  0.3843
   13CHTO  H181 5171   5.532   5.799   2.987  1.6862  1.4724  1.9415
   13CHTO   O61 5172   5.692   5.774   3.108  0.1102 -0.4566  0.5718
   13CHTO   C95 5173   5.789   5.851   3.035 -0.4615  0.2633  0.0802
   13CHTO  H182 5174   5.742   5.933   2.982  2.4769  1.0006 -1.4881
   13CHTO  C106 5175   5.888   5.914   3.138 -0.4847 -0.1608 -0.6390
   13CHTO   O69 5176   5.833   6.017   3.213  0.4380 -0.4127  0.0068
   13CHTO  H169 5177   5.828   6.092   3.157  1.9496 -0.9602 -0.9012
   13CHTO   O63 5178   5.500   5.636   3.152 -0.0003 -0.2098 -0.7076
   13CHTO   C96 5179   5.352   5.664   3.142  0.3291  0.6357  0.1562
   13CHTO  H183 5180   5.320   5.683   3.040 -4.4997  0.5629  1.5244
   13CHTO   C98 5181   5.309   5.792   3.218  0.7688  0.3956 -0.0160
   13CHTO  H185 5182   5.364   5.878   3.179  1.8363  0.9177  2.5576
   13CHTO   O67 5183   5.169   5.820   3.196  0.0959 -0.3058 -0.2026
   13CHTO  H167 5184   5.146   5.805   3.106  0.4190  2.2895 -0.7454
   13CHTO  C102 5185   5.327   5.777   3.373  0.7377  0.9008 -0.0083
   13CHTO  H189 5186   5.261   5.852   3.420 -1.1339  0.9763 -2.5866
   13CHTO   N18 5187   5.463   5.803   3.421  0.5035  0.2226  0.2616
   13CHTO  H176 5188   5.524   5.729   3.372  1.5293  0.2927  1.4060
   13CHTO  H177 5189   5.468   5.788   3.528  0.2490  2.0653  0.5448
   13CHTO  C105 5190   5.277   5.635   3.419 -0.1209 -0.1389 -0.0791
   13CHTO  H192 5191   5.361   5.574   3.449 -1.6062 -0.9406  2.6014
   13CHTO   O65 5192   5.197   5.566   3.318  0.1410 -0.2480 -0.3738
   13CHTO  C100 5193   5.272   5.539   3.199  0.2792  0.2685  0.5046
   13CHTO  H187 5194   5.348   5.467   3.233  0.1023  0.6773  1.7684
   13CHTO  C107 5195   5.192   5.474   3.085  0.3369  0.1733 -0.4909
   13CHTO   O70 5196   5.145   5.341   3.109  0.2325 -0.2772 -0.0798
   13CHTO  H170 5197   5.209   5.272   3.118 -0.0810 -0.6493 -0.6631
   13CHTO   O57 5198   5.188   5.669   3.537  0.0332  0.0333  0.3564
   13CHTO   C85 5199   5.161   5.572   3.643  0.0008 -0.9981 -0.1212
   13CHTO  H157 5200   5.224   5.483   3.620 -0.0450 -0.8997 -0.6203
   13CHTO   C83 5201   5.015   5.525   3.627  0.0265 -1.1012  0.2774
   13CHTO  H155 5202   5.011   5.484   3.526 -1.5296  0.8660 -0.4990
   13CHTO   O56 5203   4.931   5.638   3.638  1.1099 -0.4838  0.3102
   13CHTO  H135 5204   4.984   5.714   3.623 -2.8885  2.0685 -1.4247
   13CHTO   C81 5205   4.989   5.411   3.729  0.2099  0.6883 -0.4868
   13CHTO  H153 5206   5.065   5.334   3.716 -0.2764 -0.4213  2.8308
   13CHTO   N14 5207   4.861   5.334   3.700  0.2715 -0.7290  0.4381
   13CHTO  H141 5208   4.779   5.403   3.708 -0.2224 -1.1337 -0.8742
   13CHTO  H142 5209   4.860   5.261   3.778 -1.1861 -0.0272  1.0948
   13CHTO   C79 5210   5.006   5.472   3.878  0.8580 -0.4728 -0.0069
   13CHTO  H151 5211   4.998   5.389   3.948 -1.5629 -0.5138 -0.2805
   13CHTO   O52 5212   5.136   5.528   3.889  0.3604  0.1707  0.2233
   13CHTO   C86 5213   5.177   5.625   3.787 -0.2131 -0.0638 -0.1144
   13CHTO  H158 5214   5.116   5.717   3.803  0.2945  0.1337  0.6941
   13CHTO   C90 5215   5.323   5.671   3.802 -0.5040  0.5952 -0.0673
   13CHTO   O60 5216   5.338   5.728   3.928 -0.6005  0.2354 -0.1666
   13CHTO  H138 5217   5.428   5.744   3.950 -0.3302 -3.1110  1.4675
   13CHTO   O50 5218   4.903   5.566   3.912  0.3424  0.1692  0.5325
   13CHTO   C73 5219   4.814   5.636   4.001 -0.4261 -0.2429 -0.7060
   13CHTO  H145 5220   4.718   5.662   3.955  0.3686  1.3240 -1.5220
   13CHTO   C74 5221   4.890   5.763   4.053 -0.4243  0.2432  0.9293
   13CHTO  H146 5222   4.923   5.834   3.976 -1.4948 -0.5096 -0.2285
   13CHTO   O54 5223   4.788   5.829   4.129  0.0627  0.0651 -0.1361
   13CHTO  H133 5224   4.833   5.878   4.195  0.1860  1.0518 -0.9399
   13CHTO   C75 5225   5.016   5.720   4.145  0.1327  0.1667 -0.0373
   13CHTO  H147 5226   5.090   5.671   4.081  0.2217 -0.1229  0.2862
   13CHTO   N13 5227   5.079   5.842   4.211 -0.5379  0.1173 -0.3803
   13CHTO  H139 5228   5.027   5.857   4.304 -2.1094  0.8790 -1.3651
   13CHTO  H140 5229   5.182   5.821   4.236 -1.2800 -1.5981  1.2886
   13CHTO   C76 5230   4.975   5.614   4.260  0.0634 -0.0385  0.9620
   13CHTO  H148 5231   4.906   5.659   4.332 -0.0521  0.4939  0.5176
   13CHTO   O49 5232   4.908   5.504   4.187  0.6255  0.7709 -0.1815
   13CHTO   C77 5233   4.791   5.542   4.118  0.0772 -0.2770  0.4800
   13CHTO  H149 5234   4.725   5.590   4.189 -2.3437 -1.9025 -0.5966
   13CHTO   C88 5235   4.708   5.416   4.077  0.3771  0.2247  0.0563
   13CHTO   O58 5236   4.652   5.371   4.165 -0.0318  0.3158 -0.4738
   13CHTO  H136 5237   4.559   5.384   4.169 -0.2413 -1.4721  1.0687
   13CHTO   O51 5238   5.090   5.546   4.308 -0.2524  0.4940  0.5394
   13CHTO   C78 5239   5.112   5.534   4.464 -0.2733 -0.4802  0.3879
   13CHTO  H150 5240   5.014   5.519   4.514 -0.1892  1.5150  1.1996
   13CHTO   C80 5241   5.182   5.656   4.534 -0.9486  0.4069 -0.3042
   13CHTO  H152 5242   5.263   5.692   4.468 -0.4940  1.5157  0.8216
   13CHTO   O55 5243   5.077   5.760   4.548  0.2746  0.1855 -0.3403
   13CHTO  H134 5244   5.111   5.840   4.513 -2.1435  1.1860 -0.5029
   13CHTO   C84 5245   5.242   5.620   4.674 -0.3765 -0.5162 -0.0644
   13CHTO  H156 5246   5.164   5.595   4.746  0.1049  0.5854  0.8622
   13CHTO   N15 5247   5.324   5.732   4.726 -0.1156 -0.2411  0.4788
   13CHTO  H143 5248   5.350   5.724   4.830  0.6831  1.8263  0.4638
   13CHTO  H144 5249   5.414   5.734   4.669 -0.2481 -0.1253  0.2756
   13CHTO   C87 5250   5.326   5.492   4.660  0.3179  0.3789  0.2457
   13CHTO  H159 5251   5.398   5.509   4.580  1.5546  0.7580  1.4228
   13CHTO   O53 5252   5.237   5.404   4.627 -0.1827  0.5077 -0.3420
   13CHTO   C82 5253   5.193   5.410   4.491 -0.6475  0.0309  0.2040
   13CHTO  H154 5254   5.282   5.410   4.428 -0.1313  0.3827  0.9288
   13CHTO   C89 5255   5.117   5.277   4.459 -0.2382 -0.3069  0.1571
   13CHTO   O59 5256   5.013   5.260   4.553  0.6396 -0.4316  0.2678
   13CHTO  H137 5257   4.966   5.181   4.536 -0.6311  0.5057 -0.6953
   13CHTO   O45 5258   5.397   5.434   4.789 -0.6706 -0.0761  0.3706
   13CHTO   C67 5259   5.545   5.433   4.775  0.4520  0.0692  0.4358
   13CHTO  H124 5260   5.578   5.490   4.689 -0.2269 -0.3027 -0.0741
   13CHTO   C65 5261   5.615   5.495   4.905  0.4331 -0.3297  0.4350
   13CHTO  H122 5262   5.545   5.476   4.986 -1.3377  2.1055 -0.4490
   13CHTO   O44 5263   5.617   5.640   4.893 -0.0996 -0.2058 -0.0621
   13CHTO  H102 5264   5.667   5.674   4.966  2.8273 -0.5557 -1.8064
   13CHTO   C63 5265   5.747   5.420   4.945 -0.4775 -1.2706  0.3291
   13CHTO  H120 5266   5.716   5.331   4.999  1.2977 -0.5581  2.5859
   13CHTO   N11 5267   5.842   5.499   5.039 -0.5964 -0.2925  0.7292
   13CHTO  H108 5268   5.792   5.524   5.131 -0.6278  1.0451  0.3566
   13CHTO  H109 5269   5.886   5.584   4.992  0.3278 -0.8406  0.5831
   13CHTO   C61 5270   5.824   5.368   4.817  0.2820  0.0513  0.1054
   13CHTO  H118 5271   5.907   5.306   4.854 -0.2687  0.4822  2.1531
   13CHTO   O40 5272   5.740   5.282   4.733 -0.6331  0.0401  0.0238
   13CHTO   C68 5273   5.594   5.287   4.752 -0.1079  0.2634  0.1172
   13CHTO  H125 5274   5.570   5.223   4.839  1.4913 -2.4532 -1.3640
   13CHTO   C72 5275   5.527   5.215   4.628  0.1792 -0.3562 -0.6923
   13CHTO   O48 5276   5.552   5.296   4.512 -0.3334  0.3552  0.0800
   13CHTO  H105 5277   5.471   5.331   4.480 -0.0775  0.3891 -0.5156
   13CHTO   O38 5278   5.882   5.480   4.743  0.3241 -0.5213 -0.0172
   13CHTO   C55 5279   6.003   5.447   4.672 -0.3554  0.0565  0.1375
   13CHTO  H112 5280   6.015   5.342   4.640 -3.2679 -0.5732  0.9907
   13CHTO   C56 5281   6.129   5.504   4.755 -0.4432 -0.2173 -0.7994
   13CHTO  H113 5282   6.105   5.610   4.768 -0.2489 -0.1701 -0.8258
   13CHTO   O42 5283   6.132   5.446   4.889  0.1326  0.9891  0.1790
   13CHTO  H100 5284   6.207   5.481   4.933  0.6658  1.4633 -1.0853
   13CHTO   C57 5285   6.263   5.476   4.680 -0.1937 -0.3665 -0.5362
   13CHTO  H114 5286   6.266   5.367   4.684  1.5714 -0.2924  0.7901
   13CHTO   N10 5287   6.387   5.527   4.737 -0.3570  0.1071  0.3507
   13CHTO  H106 5288   6.411   5.623   4.692  1.7837 -0.1905  0.7926
   13CHTO  H107 5289   6.458   5.454   4.702 -0.0265  0.7112 -0.2648
   13CHTO   C58 5290   6.253   5.516   4.528 -0.8338  0.8967 -0.1638
   13CHTO  H115 5291   6.266   5.626   4.517  2.7251  0.5696  0.1297
   13CHTO   O37 5292   6.128   5.477   4.475  0.3567  0.0951  0.6284
   13CHTO   C59 5293   6.009   5.518   4.539 -0.1413  0.0546  0.0195
   13CHTO  H116 5294   6.009   5.626   4.552 -0.9125 -0.0325  0.7954
   13CHTO   C70 5295   5.883   5.481   4.454 -0.1111  0.5690  0.2244
   13CHTO   O46 5296   5.874   5.556   4.336 -0.5161  0.3054  0.1459
   13CHTO  H103 5297   5.807   5.516   4.283  0.9982 -0.8728 -0.9063
   13CHTO   O39 5298   6.379   5.448   4.425 -0.3180  0.0019 -0.3211
   13CHTO   C60 5299   6.504   5.523   4.416  1.1395 -0.2753  0.3151
   13CHTO  H117 5300   6.494   5.610   4.482  0.4781 -0.5932  0.6394
   13CHTO   C62 5301   6.626   5.445   4.464  0.1571 -0.5556 -0.0505
   13CHTO  H119 5302   6.611   5.419   4.571  2.0773 -1.3619  0.0473
   13CHTO   O43 5303   6.632   5.318   4.394  0.0502 -0.1127  0.2929
   13CHTO  H101 5304   6.663   5.253   4.455  0.8215  0.8927  0.9850
   13CHTO   C66 5305   6.769   5.525   4.427  0.7803  0.3869 -0.3907
   13CHTO  H123 5306   6.778   5.623   4.474  3.6107  0.3248 -0.7326
   13CHTO   N12 5307   6.891   5.467   4.488  0.2874 -0.1529  0.1012
   13CHTO  H110 5308   6.927   5.513   4.579  0.3470 -0.2881  0.1457
   13CHTO  H111 5309   6.861   5.364   4.501 -2.6261  0.2764 -2.6028
   13CHTO   C69 5310   6.763   5.547   4.275  0.4257  0.4523  0.0540
   13CHTO  H126 5311   6.761   5.451   4.218 -1.5790  0.5207 -0.0051
   13CHTO   O41 5312   6.635   5.639   4.241  0.1829 -0.3104 -0.1356
   13CHTO   C64 5313   6.514   5.574   4.268 -0.2360  0.1190  0.4101
   13CHTO  H121 5314   6.522   5.484   4.204  1.8928 -0.5062  1.5238
   13CHTO   C71 5315   6.393   5.658   4.228  0.9975 -0.0019  0.1601
   13CHTO   O47 5316   6.374   5.773   4.302  0.3363 -0.7495 -0.2690
   13CHTO  H104 5317   6.355   5.849   4.249  2.4835  1.5035  2.0618
   13CHTO   O34 5318   6.884   5.627   4.219  0.0640 -0.0139  0.5475
   13CHTO   C49 5319   6.973   5.693   4.109  0.5889  0.0251  0.3878
   13CHTO   H91 5320   7.016   5.628   4.034  0.4860  1.7469 -1.2036
   13CHTO   C47 5321   7.089   5.752   4.191  0.0075  0.7240 -0.1477
   13CHTO   H89 5322   7.154   5.805   4.118  1.4656 -0.9287 -0.0711
   13CHTO   O33 5323   7.161   5.646   4.245 -0.3427  0.8830 -0.2117
   13CHTO   H70 5324   7.126   5.615   4.326  2.6086 -0.6416  0.5396
   13CHTO   C45 5325   7.035   5.851   4.307  0.5023 -0.4893  0.2244
   13CHTO   H87 5326   7.020   5.792   4.398  1.7723  0.6690  1.2147
   13CHTO    N8 5327   7.150   5.946   4.337 -0.5450 -1.0843 -0.0716
   13CHTO   H75 5328   7.119   6.029   4.399  3.7436  0.1427  0.6136
   13CHTO   H76 5329   7.236   5.891   4.371  1.8616  2.7314  0.3210
   13CHTO   C43 5330   6.896   5.922   4.262 -0.2702  1.1730  0.7352
   13CHTO   H85 5331   6.821   5.849   4.292  0.1186  0.0045 -1.0692
   13CHTO   O29 5332   6.892   5.936   4.120  0.3398 -0.2469  1.3524
   13CHTO   C50 5333   6.897   5.812   4.047  0.4667  0.6172  0.0127
   13CHTO   H92 5334   6.791   5.783   4.040  0.8756 -0.6292 -1.1391
   13CHTO   C54 5335   6.946   5.836   3.907  0.4545  0.4482 -0.1937
   13CHTO   O36 5336   6.842   5.890   3.825  0.0555 -0.5484 -0.3445
   13CHTO   H72 5337   6.879   5.945   3.759 -1.8506  1.0850 -0.1013
   13CHTO   O27 5338   6.867   6.044   4.336  0.1091  0.2718  1.3203
   13CHTO   C37 5339   6.858   6.088   4.469 -0.2818 -0.7736  0.1333
   13CHTO   H79 5340   6.923   6.030   4.536 -1.1007  0.3711  1.9727
   13CHTO   C38 5341   6.904   6.236   4.486  1.0511  0.3867  0.9897
   13CHTO   H80 5342   6.868   6.296   4.401  2.8179 -0.7364 -0.5850
   13CHTO   O31 5343   7.048   6.229   4.482  0.0778 -0.2182 -0.1996
   13CHTO   H68 5344   7.082   6.309   4.446  0.0559  0.2922  0.8720
   13CHTO   C39 5345   6.855   6.310   4.616  0.0841  1.0086  0.1076
   13CHTO   H81 5346   6.908   6.269   4.703  2.3608  0.9637 -1.2592
   13CHTO    N7 5347   6.877   6.456   4.604  0.5922 -0.3543 -0.4472
   13CHTO   H73 5348   6.983   6.470   4.585  0.1850  0.9931 -1.8046
   13CHTO   H74 5349   6.826   6.522   4.673  0.2988  0.1951 -1.1813
   13CHTO   C40 5350   6.704   6.265   4.653 -0.0109  0.7480  0.1142
   13CHTO   H82 5351   6.632   6.307   4.583  0.4540 -1.3277 -1.6763
   13CHTO   O26 5352   6.689   6.123   4.654 -0.9025  0.8810  0.1482
   13CHTO   C41 5353   6.710   6.075   4.518  0.2977  0.5584 -0.3878
   13CHTO   H83 5354   6.638   6.136   4.461 -2.3524 -0.4591  1.7143
   13CHTO   C52 5355   6.659   5.929   4.498  0.4888  0.5644 -0.1765
   13CHTO   O35 5356   6.697   5.830   4.602  0.3629  0.0003  0.3255
   13CHTO   H71 5357   6.621   5.793   4.644 -0.7546  1.3007 -0.5030
   13CHTO   O28 5358   6.679   6.319   4.784  0.0145  0.2924  0.4819
   13CHTO   C42 5359   6.549   6.365   4.829 -0.2575  0.2468 -0.5917
   13CHTO   H84 5360   6.479   6.327   4.755 -2.0428 -0.1421  1.2526
   13CHTO   C44 5361   6.538   6.519   4.814 -0.2554  0.3712  0.0273
   13CHTO   H86 5362   6.610   6.563   4.884  0.0506  1.3561 -0.8897
   13CHTO   O32 5363   6.569   6.559   4.677 -0.3767 -0.3342 -0.9087
   13CHTO   H69 5364   6.640   6.510   4.639 -1.5801 -0.8138 -2.5927
   13CHTO   C48 5365   6.399   6.573   4.865  0.6182  0.4813 -0.5205
   13CHTO   H90 5366   6.320   6.546   4.794  0.2141  0.5658 -0.1030
   13CHTO    N9 5367   6.393   6.722   4.867  0.3998 -0.3143 -0.4373
   13CHTO   H77 5368   6.418   6.759   4.769 -1.9694  1.3505 -0.4686
   13CHTO   H78 5369   6.291   6.744   4.896  0.7315 -0.2497  0.6742
   13CHTO   C51 5370   6.372   6.510   5.007  0.7612 -0.2400  0.1994
   13CHTO   H93 5371   6.452   6.544   5.073  0.0259  0.7912  0.5642
   13CHTO   O30 5372   6.369   6.368   4.986 -0.0770  0.5823  0.6623
   13CHTO   C46 5373   6.503   6.314   4.973 -0.1558 -0.4784  0.9003
   13CHTO   H88 5374   6.566   6.347   5.055 -0.7712 -1.0149  1.6044
   13CHTO   C53 5375   6.499   6.159   4.972  0.2490  0.1167 -0.1542
   13CHTO   O72 5376   6.627   6.105   4.975  0.0686  0.2501  0.2035
   13CHTO  H199 5377   6.626   6.012   4.976 -0.8757  0.2518 -0.0582
   13CHTO   O22 5378   6.242   6.550   5.067  0.4267  0.9590 -0.6288
   13CHTO   C31 5379   6.236   6.558   5.218 -0.5686 -0.2219  0.5639
   13CHTO   H59 5380   6.309   6.484   5.257  0.3894 -0.0748 -0.9208
   13CHTO   C29 5381   6.267   6.694   5.286 -0.3107  0.3936 -0.3529
   13CHTO   H57 5382   6.195   6.762   5.238  0.0947  1.4214  0.4947
   13CHTO   O21 5383   6.397   6.734   5.248 -0.2783 -0.4943  0.1278
   13CHTO   H37 5384   6.402   6.745   5.155 -2.3994 -0.6948 -0.0346
   13CHTO   C27 5385   6.244   6.702   5.445 -0.3856  0.6302  0.2393
   13CHTO   H55 5386   6.328   6.648   5.492  0.0550  1.9733  0.9938
   13CHTO    N5 5387   6.252   6.840   5.493  0.5387 -0.4878 -0.3198
   13CHTO   H43 5388   6.355   6.853   5.524  0.7571 -0.7299 -0.9339
   13CHTO   H44 5389   6.235   6.906   5.410 -2.0850 -1.0487 -0.2698
   13CHTO   C25 5390   6.106   6.634   5.481 -0.4362 -0.0149 -0.5610
   13CHTO   H53 5391   6.029   6.699   5.438  1.9149  3.5956  0.4692
   13CHTO   O17 5392   6.102   6.510   5.420  0.0132  0.6710  0.8564
   13CHTO   C32 5393   6.102   6.508   5.271  0.2093 -0.0684  0.7035
   13CHTO   H60 5394   6.018   6.567   5.235 -0.0782  0.1419  1.7002
   13CHTO   C36 5395   6.081   6.359   5.220  0.5595 -0.6065  0.4694
   13CHTO   O25 5396   5.949   6.325   5.210  0.8734  0.6901 -0.2180
   13CHTO   H40 5397   5.944   6.247   5.158  1.5358  1.7433 -1.9234
   13CHTO   O15 5398   6.090   6.619   5.636  0.8439 -0.0076 -0.1672
   13CHTO   C19 5399   5.979   6.668   5.728  0.4286 -0.5606  0.3150
   13CHTO   H47 5400   6.028   6.645   5.824  0.5548 -0.7956  0.1954
   13CHTO   C20 5401   5.943   6.823   5.730 -0.2014  0.3169  0.4562
   13CHTO   H48 5402   5.908   6.861   5.633  1.1329  3.8031  1.2538
   13CHTO   O19 5403   6.062   6.894   5.780  0.1394 -0.1089  0.6348
   13CHTO   H35 5404   6.113   6.846   5.842  1.0683  1.5645  1.2047
   13CHTO   C21 5405   5.815   6.851   5.826 -0.1587  0.2009 -0.2154
   13CHTO   H49 5406   5.847   6.854   5.930 -1.2020 -0.3182  0.1334
   13CHTO    N4 5407   5.770   6.993   5.809 -0.0068  0.2854  0.2599
   13CHTO   H41 5408   5.850   7.044   5.759 -0.0020 -0.3730 -0.4001
   13CHTO   H42 5409   5.687   6.987   5.740  0.0798 -1.7561  0.3114
   13CHTO   C22 5410   5.707   6.741   5.793 -0.4115 -0.3072  0.4644
   13CHTO   H50 5411   5.685   6.749   5.687  0.8556  3.5150  0.4265
   13CHTO   O14 5412   5.757   6.609   5.818  0.3545 -0.0017  0.4074
   13CHTO   C23 5413   5.856   6.570   5.725  0.1243  0.1613  0.7448
   13CHTO   H51 5414   5.805   6.569   5.627  3.1638  0.9719 -0.9101
   13CHTO   C34 5415   5.883   6.419   5.755  0.0807 -0.3691  0.0656
   13CHTO   O23 5416   5.948   6.411   5.876  0.3085  0.0254  0.2294
   13CHTO   H38 5417   6.037   6.439   5.873  0.5547 -0.9290 -1.9414
   13CHTO   O16 5418   5.594   6.760   5.879  0.1263 -0.9003  0.1190
   13CHTO   C24 5419   5.447   6.746   5.806 -0.0079  0.3422  0.0801
   13CHTO   H52 5420   5.456   6.696   5.710  1.9684  1.1064 -0.1478
   13CHTO   C26 5421   5.385   6.887   5.772  0.1443 -0.2369  0.0135
   13CHTO   H54 5422   5.401   6.958   5.856 -2.7688  1.7584 -1.0343
   13CHTO   O20 5423   5.467   6.957   5.670 -0.0876 -0.4497  0.0396
   13CHTO   H36 5424   5.460   6.908   5.590  1.2722  1.6764 -1.4260
   13CHTO   C30 5425   5.239   6.879   5.733  0.6657 -0.8513 -0.1580
   13CHTO   H58 5426   5.234   6.843   5.630 -0.0719 -0.2629 -0.3374
   13CHTO    N6 5427   5.171   7.017   5.744  0.2020 -0.4335  0.2420
   13CHTO   H45 5428   5.187   7.057   5.843 -0.9029  1.4604 -0.3209
   13CHTO   H46 5429   5.212   7.088   5.674 -2.3267  1.7073  0.8453
   13CHTO   C33 5430   5.150   6.782   5.813  0.2546  0.5022 -0.2094
   13CHTO   H61 5431   5.126   6.829   5.910 -0.3380  1.8688 -1.0029
   13CHTO   O18 5432   5.219   6.653   5.832  0.0955  0.3677 -0.3767
   13CHTO   C28 5433   5.349   6.658   5.891  0.1345  0.2399  0.2566
   13CHTO   H56 5434   5.342   6.701   5.991  1.7079 -0.3292  0.6231
   13CHTO   C35 5435   5.397   6.514   5.906  0.2008 -0.0944  0.2858
   13CHTO   O24 5436   5.322   6.449   6.007  0.1476  0.4974 -0.6358
   13CHTO   H39 5437   5.293   6.363   5.983 -1.3799  0.2095  2.0154
   13CHTO    O9 5438   5.022   6.766   5.751 -0.4953 -0.0285  0.6376
   13CHTO   C13 5439   4.887   6.762   5.854 -0.0826 -0.1503 -0.7684
   13CHTO   H26 5440   4.891   6.844   5.929 -0.1776 -0.2321 -0.6730
   13CHTO   C11 5441   4.879   6.622   5.924 -0.1280 -0.0419  0.3642
   13CHTO   H24 5442   4.956   6.624   6.002  1.9581  0.3120 -1.6549
   13CHTO    O8 5443   4.913   6.515   5.831 -0.0269  0.1875 -0.2924
   13CHTO    H3 5444   4.835   6.486   5.788  0.1719 -1.0092  0.1285
   13CHTO    C9 5445   4.733   6.606   5.981  0.2812 -0.2411 -0.7438
   13CHTO   H22 5446   4.722   6.703   6.031 -1.9032 -1.2859  0.8556
   13CHTO    N2 5447   4.715   6.495   6.080 -0.4570 -0.9009  0.4433
   13CHTO   H10 5448   4.748   6.400   6.042  0.7412 -1.8174  3.5811
   13CHTO   H11 5449   4.773   6.509   6.171 -0.6269 -1.2089  0.5988
   13CHTO    C7 5450   4.637   6.585   5.860  0.2014  0.0987 -0.2405
   13CHTO   H20 5451   4.544   6.636   5.892 -0.2824  0.2118 -1.7983
   13CHTO    O4 5452   4.687   6.657   5.746  0.1632 -0.2135  0.5367
   13CHTO   C14 5453   4.751   6.783   5.764 -0.0674 -0.3667  0.7503
   13CHTO   H27 5454   4.677   6.854   5.805 -0.1547  0.9288 -1.5803
   13CHTO   C18 5455   4.789   6.842   5.626  0.4999  0.6307  0.4047
   13CHTO   O13 5456   4.845   6.971   5.640 -0.8667 -0.1678  0.1781
   13CHTO    H7 5457   4.802   7.027   5.578  0.7038 -0.1605 -0.9445
   13CHTO    O2 5458   4.615   6.441   5.822 -0.2529 -0.6444  0.0837
   13CHTO    C1 5459   4.494   6.426   5.741 -0.2220 -0.1479 -0.9509
   13CHTO   H14 5460   4.456   6.522   5.701 -1.4226 -0.7978 -1.4105
   13CHTO    C2 5461   4.376   6.352   5.820 -0.6236 -1.0484  0.3871
   13CHTO   H15 5462   4.407   6.258   5.867 -0.8779 -0.0246  2.6659
   13CHTO    O6 5463   4.326   6.434   5.933  0.3049  0.5669 -0.0289
   13CHTO    H1 5464   4.374   6.404   6.007 -1.3890 -0.4310  0.7107
   13CHTO    C3 5465   4.251   6.321   5.718 -0.0649  0.3688 -0.3799
   13CHTO   H16 5466   4.195   6.412   5.692 -1.8245  0.2021  2.5866
   13CHTO    N1 5467   4.150   6.234   5.786  0.5063  0.5537 -0.8696
   13CHTO    H8 5468   4.110   6.271   5.879  1.3266  3.2111 -1.5338
   13CHTO    H9 5469   4.157   6.127   5.774  1.4046  0.3757  1.1759
   13CHTO    C4 5470   4.304   6.255   5.585  0.7596 -0.1668 -0.2732
   13CHTO   H17 5471   4.347   6.157   5.605  0.9120  0.1157  0.7619
   13CHTO    O1 5472   4.407   6.340   5.531  0.0774 -0.1933  0.0430
   13CHTO    C5 5473   4.523   6.345   5.614 -1.0012  0.0401  1.1122
   13CHTO   H18 5474   4.556   6.244   5.641 -0.9763 -0.7729 -1.8003
   13CHTO   C16 5475   4.641   6.396   5.520 -0.4363  0.5017 -0.5439
   13CHTO   O11 5476   4.773   6.363   5.582  0.1615  0.2241 -0.2933
   13CHTO    H5 5477   4.832   6.427   5.546  0.6430 -1.2060 -2.0853
   13CHTO    O3 5478   4.198   6.252   5.481 -0.0263 -0.2359  0.0488
   13CHTO    C6 5479   4.243   6.174   5.366  0.0189  0.4540  0.0760
   13CHTO   H19 5480   4.351   6.163   5.357 -0.1991 -2.5007  0.5296
   13CHTO    C8 5481   4.173   6.028   5.364 -0.4067  0.1480 -0.0472
   13CHTO   H21 5482   4.064   6.036   5.358 -0.7136 -3.1916  0.2045
   13CHTO    O7 5483   4.203   5.970   5.492 -0.2965 -0.1513 -0.3218
   13CHTO    H2 5484   4.294   5.951   5.505 -0.0740  0.8632 -0.3395
   13CHTO   C12 5485   4.229   5.952   5.240 -0.3588  0.2019  0.6015
   13CHTO   H25 5486   4.337   5.935   5.259 -0.0976 -1.0181 -1.7922
   13CHTO    N3 5487   4.158   5.818   5.232 -0.3083  0.1377 -0.7729
   13CHTO   H12 5488   4.216   5.735   5.270 -2.4701 -1.1106 -0.0816
   13CHTO   H13 5489   4.062   5.820   5.282  0.2044  0.6585  0.2173
   13CHTO   C15 5490   4.207   6.041   5.115  0.1475  0.9820  0.0679
   13CHTO   H28 5491   4.100   6.052   5.094 -0.2109 -1.7902  0.2324
   13CHTO   O10 5492   4.296   5.983   4.999  0.1817  0.0945 -0.0121
   13CHTO    H4 5493   4.255   5.906   4.965  1.6645 -0.5956 -0.2454
   13CHTO    O5 5494   4.255   6.179   5.129 -0.5480 -0.0165 -0.6164
   13CHTO   C10 5495   4.191   6.244   5.236 -0.4751 -0.4721  0.2711
   13CHTO   H23 5496   4.083   6.236   5.230 -0.5790  1.2377 -0.3680
   13CHTO   C17 5497   4.228   6.393   5.222  0.1091  0.0186  0.4629
   13CHTO   O12 5498   4.163   6.474   5.321  0.4709  0.4492  0.4858
   13CHTO    H6 5499   4.227   6.497   5.385  2.1635  1.8127 -1.6129
   14CHTO  H203 5500   5.625   5.628   3.452  0.3709  0.4232 -0.1677
   14CHTO   O82 5501   5.716   5.615   3.472  0.3374  0.2007 -0.1574
   14CHTO  C123 5502   5.729   5.534   3.590  0.0947  0.0754 -0.7792
   14CHTO  H227 5503   5.825   5.481   3.589 -0.7216 -1.4343  0.0162
   14CHTO   O77 5504   5.727   5.625   3.705 -0.5838 -0.2611  0.0574
   14CHTO  C118 5505   5.776   5.557   3.816  0.6259  0.1349 -0.0648
   14CHTO  H222 5506   5.860   5.489   3.794 -0.2538 -0.2418 -2.3291
   14CHTO  C125 5507   5.826   5.657   3.930  0.5019  0.2923  0.4603
   14CHTO   O84 5508   5.738   5.762   3.982 -0.2717 -0.2312  0.3132
   14CHTO  H205 5509   5.673   5.781   3.917 -0.8038  3.8454  1.8441
   14CHTO  C114 5510   5.658   5.470   3.868 -0.3882 -0.1800 -0.4178
   14CHTO  H218 5511   5.577   5.538   3.896 -0.8496 -1.7586  2.2479
   14CHTO  C116 5512   5.616   5.368   3.757  0.1202  0.2444 -0.0529
   14CHTO  H220 5513   5.693   5.289   3.764 -1.7389 -1.5637  0.3760
   14CHTO   O79 5514   5.492   5.303   3.789 -0.6363 -0.0342 -0.3261
   14CHTO  H201 5515   5.488   5.217   3.752  2.4314 -0.1997 -0.4365
   14CHTO  C120 5516   5.606   5.436   3.619  0.2121  0.5327  0.5487
   14CHTO  H224 5517   5.515   5.500   3.616 -0.3284 -0.2363  0.3112
   14CHTO   N21 5518   5.587   5.329   3.510  0.2961 -0.0687  0.2380
   14CHTO  H211 5519   5.669   5.259   3.508  0.4199  0.0673  0.5614
   14CHTO  H212 5520   5.505   5.267   3.544  0.3707  0.0079  0.5605
   14CHTO   O75 5521   5.707   5.410   3.996 -0.1068 -0.5012 -0.1849
   14CHTO  C112 5522   5.619   5.324   4.093  0.3595 -0.2290 -0.4462
   14CHTO  H216 5523   5.679   5.318   4.185  2.4041 -1.1354 -1.8063
   14CHTO   O73 5524   5.605   5.196   4.029  0.3183 -0.0408 -0.3146
   14CHTO  C113 5525   5.515   5.101   4.084  0.2214 -0.3806  0.1836
   14CHTO  H217 5526   5.533   5.075   4.191 -0.8031 -1.8519  0.0116
   14CHTO  C124 5527   5.545   4.968   4.007 -0.2368 -0.4527 -0.0387
   14CHTO   O83 5528   5.537   4.976   3.865  0.2185 -0.7050 -0.4958
   14CHTO  H204 5529   5.610   5.024   3.831  1.0177  0.0854  2.2607
   14CHTO  C109 5530   5.371   5.157   4.077 -1.0451 -0.0081  0.0883
   14CHTO  H213 5531   5.351   5.188   3.974 -0.2236 -1.4903 -0.5290
   14CHTO  C110 5532   5.365   5.289   4.155 -0.5230  0.7147  1.0906
   14CHTO  H214 5533   5.388   5.270   4.260  0.5671 -0.4258  0.6541
   14CHTO   O78 5534   5.229   5.345   4.154  0.1538  0.0132  0.2403
   14CHTO  H200 5535   5.187   5.289   4.217  1.4018 -1.2751 -0.0369
   14CHTO  C111 5536   5.474   5.388   4.101  0.1396 -0.2353  0.1569
   14CHTO  H215 5537   5.444   5.422   4.001  3.0601  0.4841 -0.5310
   14CHTO   N19 5538   5.474   5.510   4.181 -0.7455  0.3992  0.6715
   14CHTO  H207 5539   5.574   5.536   4.213 -0.3827 -1.3040  0.9560
   14CHTO  H208 5540   5.405   5.498   4.263 -2.6984 -1.1596 -1.1476
   14CHTO   O74 5541   5.270   5.067   4.124  0.8580  0.0897 -0.3901
   14CHTO  C115 5542   5.171   5.016   4.003  0.1249 -0.2433  0.2823
   14CHTO  H219 5543   5.152   5.097   3.932  0.0964 -0.2286  0.3077
   14CHTO   O76 5544   5.230   4.904   3.923 -0.1447 -0.3662 -0.2316
   14CHTO  C122 5545   5.144   4.862   3.811  0.2667 -0.5001  0.4429
   14CHTO  H226 5546   5.207   4.791   3.757 -1.9008  0.4831 -3.5851
   14CHTO  C126 5547   5.133   4.975   3.699 -0.3908 -0.2729  0.1554
   14CHTO   O85 5548   5.245   4.997   3.611 -0.2250  0.1003 -0.1705
   14CHTO  H206 5549   5.208   5.051   3.544 -1.8191  0.1839  0.7582
   14CHTO  C121 5550   5.002   4.814   3.873 -0.0481  0.1604 -0.8968
   14CHTO  H225 5551   4.935   4.792   3.788 -2.1075  1.7987  0.2688
   14CHTO   O81 5552   5.006   4.692   3.951  0.7117  0.4019  0.6204
   14CHTO  H202 5553   5.056   4.706   4.029  1.1946  1.8126  0.0645
   14CHTO  C119 5554   4.937   4.926   3.959  0.2172 -0.4063 -0.1360
   14CHTO  H223 5555   4.924   5.009   3.889 -0.7661 -0.9694 -0.6300
   14CHTO  C117 5556   5.030   4.978   4.069  0.7229 -0.1362 -0.2684
   14CHTO  H221 5557   5.048   4.909   4.151  0.3156 -0.6030 -0.5700
   14CHTO   N20 5558   4.979   5.101   4.142  0.3364 -0.4234  0.3738
   14CHTO  H209 5559   5.040   5.126   4.227  0.6296 -0.6121  0.2170
   14CHTO  H210 5560   4.871   5.108   4.144  0.2100 -0.6833 -3.0442
   14CHTO   O80 5561   4.778   4.880   3.995 -0.3488 -0.0314 -0.1057
   14CHTO  C103 5562   4.665   4.980   3.971  0.2267  0.1711 -0.0210
   14CHTO  H190 5563   4.700   5.083   3.966 -0.4788  0.4484  0.6219
   14CHTO  C101 5564   4.589   4.950   3.844 -0.3891  0.4548 -0.4737
   14CHTO  H188 5565   4.550   4.848   3.839  1.0951 -0.1483  0.0513
   14CHTO   O68 5566   4.693   4.966   3.717  0.3934 -0.5221 -0.3064
   14CHTO  H168 5567   4.756   4.898   3.726 -0.9022 -1.6317  0.6517
   14CHTO   C99 5568   4.463   5.054   3.836 -0.0071 -0.2539  0.3442
   14CHTO  H186 5569   4.502   5.152   3.800 -2.0170  0.4821  0.0897
   14CHTO   N17 5570   4.366   5.026   3.727 -0.4514  0.0843  0.3959
   14CHTO  H174 5571   4.404   5.068   3.635  2.0015 -1.0606  0.8457
   14CHTO  H175 5572   4.266   5.057   3.750 -0.4944  0.3485 -0.1404
   14CHTO   C97 5573   4.386   5.090   3.967  0.3875 -0.2103  0.1480
   14CHTO  H184 5574   4.305   5.017   3.983  2.1077 -2.1733  0.1357
   14CHTO   O64 5575   4.485   5.084   4.076  0.3487 -0.1436  0.2531
   14CHTO  C104 5576   4.570   4.971   4.096  0.3967 -0.0933 -0.6333
   14CHTO  H191 5577   4.513   4.878   4.095  0.4422 -0.2377  3.1909
   14CHTO  C108 5578   4.646   4.979   4.233 -0.1640  0.4060 -0.0928
   14CHTO   O71 5579   4.554   4.997   4.345 -0.1836  0.0227  0.7318
   14CHTO  H171 5580   4.563   4.946   4.423 -3.2496 -0.7092  0.6725
   14CHTO   O62 5581   4.338   5.227   3.966  0.1114  0.0234  0.3309
   14CHTO   C91 5582   4.245   5.269   4.069  0.2105  0.0017 -0.3052
   14CHTO  H178 5583   4.221   5.180   4.127  0.6530 -0.2102 -0.4433
   14CHTO   C92 5584   4.105   5.309   4.009  0.0268 -0.5336 -0.3204
   14CHTO  H179 5585   4.055   5.221   3.966  0.8520 -1.0911 -0.1505
   14CHTO   O66 5586   4.023   5.352   4.113  0.1598 -0.3808 -0.2735
   14CHTO  H166 5587   3.974   5.283   4.155  1.8127 -0.3194  1.8789
   14CHTO   C93 5588   4.131   5.425   3.916 -0.5976 -0.1364 -0.4930
   14CHTO  H180 5589   4.039   5.484   3.910 -0.4692  0.4223  2.2635
   14CHTO   N16 5590   4.155   5.381   3.772 -0.0378 -0.4729  0.3866
   14CHTO  H172 5591   4.258   5.349   3.773 -0.4719 -1.9032  0.4196
   14CHTO  H173 5592   4.085   5.299   3.772 -2.8473  1.8711  0.0930
   14CHTO   C94 5593   4.244   5.522   3.969  0.7193  0.5204  0.5789
   14CHTO  H181 5594   4.341   5.505   3.922  0.4571  0.1587  0.1731
   14CHTO   O61 5595   4.262   5.513   4.110  0.0436 -0.1981 -0.5636
   14CHTO   C95 5596   4.301   5.386   4.157 -0.3098 -0.3366  0.1493
   14CHTO  H182 5597   4.410   5.382   4.152 -0.2842  1.1339 -0.4970
   14CHTO  C106 5598   4.262   5.366   4.305 -0.0506 -0.1208  0.5595
   14CHTO   O69 5599   4.331   5.260   4.369 -0.4012  0.0444 -0.3506
   14CHTO  H169 5600   4.291   5.177   4.353  0.8778 -0.9350  1.4052
   14CHTO   O63 5601   4.195   5.669   3.944 -0.1914 -0.2676 -0.1689
   14CHTO   C96 5602   4.313   5.758   3.854  0.7633  0.0136 -0.0848
   14CHTO  H183 5603   4.271   5.858   3.839 -0.6949 -0.7958 -1.5776
   14CHTO   C98 5604   4.342   5.697   3.709  0.2100 -0.2074  0.2446
   14CHTO  H185 5605   4.386   5.597   3.712 -0.6413 -0.5973 -0.1123
   14CHTO   O67 5606   4.213   5.685   3.641 -0.1834 -0.2725 -0.3433
   14CHTO  H167 5607   4.197   5.604   3.596 -1.1146 -0.3148  0.0458
   14CHTO  C102 5608   4.431   5.798   3.624  0.7400 -0.1917 -0.3167
   14CHTO  H189 5609   4.373   5.890   3.610  0.7013 -0.2969 -0.8314
   14CHTO   N18 5610   4.454   5.743   3.491 -0.9385  0.2090 -0.4067
   14CHTO  H176 5611   4.535   5.792   3.440 -0.5192 -1.3209 -1.2382
   14CHTO  H177 5612   4.493   5.644   3.512  0.1866  0.6159 -0.5293
   14CHTO  C105 5613   4.555   5.831   3.707 -0.0506  0.4649 -0.0099
   14CHTO  H192 5614   4.627   5.750   3.694  0.5838  1.1259 -0.6425
   14CHTO   O65 5615   4.537   5.855   3.852  0.4949  0.5946  0.1761
   14CHTO  C100 5616   4.449   5.773   3.933  0.5613  0.4567  0.5197
   14CHTO  H187 5617   4.491   5.674   3.953 -2.3231 -0.6053  1.6360
   14CHTO  C107 5618   4.434   5.850   4.063  0.2404  0.1576 -0.2864
   14CHTO   O70 5619   4.337   5.788   4.149 -0.1160 -0.2362  0.4856
   14CHTO  H170 5620   4.374   5.759   4.230  2.2170 -1.3072 -0.9364
   14CHTO   O57 5621   4.637   5.974   3.637 -0.4574 -0.1266 -0.2662
   14CHTO   C85 5622   4.786   5.962   3.628  0.2601  0.3251 -0.0608
   14CHTO  H157 5623   4.793   5.853   3.643 -0.4383  0.6293  2.8354
   14CHTO   C83 5624   4.857   6.032   3.744 -0.3596 -0.0736 -0.4793
   14CHTO  H155 5625   4.813   5.991   3.835 -1.0538  0.4711 -0.5580
   14CHTO   O56 5626   4.834   6.177   3.750 -0.9054 -0.0360  0.1723
   14CHTO  H135 5627   4.877   6.214   3.676  0.4436  0.1520  1.0363
   14CHTO   C81 5628   5.011   6.007   3.746 -0.8207 -0.1748 -0.1228
   14CHTO  H153 5629   5.022   5.898   3.740 -2.7799 -0.2990 -2.7347
   14CHTO   N14 5630   5.085   6.044   3.868 -0.0429 -0.4235  0.2972
   14CHTO  H141 5631   5.063   5.968   3.940 -0.0849 -1.4640 -0.8033
   14CHTO  H142 5632   5.066   6.144   3.901  0.8373  0.0054 -0.4616
   14CHTO   C79 5633   5.078   6.060   3.614  0.5436  0.7707 -0.8667
   14CHTO  H151 5634   5.181   6.027   3.611  0.4413  0.3715 -0.1644
   14CHTO   O52 5635   5.000   6.011   3.499 -0.1889 -0.3166 -0.4303
   14CHTO   C86 5636   4.854   6.007   3.493 -0.8027 -0.2563 -0.0808
   14CHTO  H158 5637   4.814   6.108   3.469 -2.4978 -0.7193  0.7157
   14CHTO   C90 5638   4.816   5.926   3.366  0.0426  0.2761 -0.4228
   14CHTO   O60 5639   4.835   5.999   3.245 -0.2293 -0.4447 -0.1040
   14CHTO  H138 5640   4.808   6.088   3.255 -1.4804 -0.8466  0.1168
   14CHTO   O50 5641   5.075   6.201   3.593 -0.2741  0.5060 -0.0660
   14CHTO   C73 5642   5.089   6.342   3.554  0.1650  0.2820 -0.7745
   14CHTO  H145 5643   5.077   6.406   3.643 -0.3108  1.6753 -1.8283
   14CHTO   C74 5644   4.992   6.366   3.434 -0.6980  0.0414  0.1013
   14CHTO  H146 5645   4.894   6.340   3.475 -1.4062 -1.4234 -2.4112
   14CHTO   O54 5646   4.994   6.506   3.404  0.0221 -0.2037  0.0470
   14CHTO  H133 5647   4.940   6.562   3.457  0.1413 -0.0389 -0.0033
   14CHTO   C75 5648   5.025   6.285   3.298 -0.1558 -0.0038  0.4507
   14CHTO  H147 5649   5.019   6.177   3.319  0.6279 -0.5356 -1.9703
   14CHTO   N13 5650   4.931   6.318   3.184 -0.3157 -0.1297 -0.0644
   14CHTO  H139 5651   4.989   6.372   3.111  1.9155 -1.3782  0.7504
   14CHTO  H140 5652   4.838   6.367   3.207 -1.0941 -0.9566 -1.3246
   14CHTO   C76 5653   5.169   6.305   3.267 -0.1828  0.4207  0.0761
   14CHTO  H148 5654   5.192   6.411   3.252  1.4483  0.0780  0.1003
   14CHTO   O49 5655   5.251   6.280   3.387  1.3506  0.0595 -0.2149
   14CHTO   C77 5656   5.237   6.353   3.513  0.6232  1.2650  0.0425
   14CHTO  H149 5657   5.262   6.457   3.493  0.5539  1.1590 -0.6072
   14CHTO   C88 5658   5.348   6.302   3.611  0.1849 -0.7909 -0.0345
   14CHTO   O58 5659   5.490   6.344   3.546 -0.6788 -0.2725 -0.2549
   14CHTO  H136 5660   5.480   6.423   3.497  2.2698  1.2198  1.3485
   14CHTO   O51 5661   5.230   6.218   3.163 -0.0798 -0.5566  0.2491
   14CHTO   C78 5662   5.354   6.273   3.081 -0.0148  0.5431 -0.1238
   14CHTO  H150 5663   5.400   6.356   3.140  2.0420  0.0243 -0.9645
   14CHTO   C80 5664   5.310   6.335   2.945  0.2319  0.6223 -0.8373
   14CHTO  H152 5665   5.257   6.257   2.886  1.1435 -1.9689  1.6585
   14CHTO   O55 5666   5.214   6.441   2.987  0.2750 -0.0827  0.3929
   14CHTO  H134 5667   5.189   6.487   2.909  2.4065  1.0947  0.3807
   14CHTO   C84 5668   5.437   6.393   2.873  0.0323 -0.2426 -0.6415
   14CHTO  H156 5669   5.484   6.470   2.933  1.4060  1.3374 -3.6235
   14CHTO   N15 5670   5.407   6.463   2.744 -0.1631 -0.0191  0.3575
   14CHTO  H143 5671   5.334   6.540   2.756 -0.0775  0.4015 -1.6499
   14CHTO  H144 5672   5.372   6.398   2.667  2.0336 -1.4206  0.4817
   14CHTO   C87 5673   5.539   6.276   2.843  0.3432  0.3232 -0.7798
   14CHTO  H159 5674   5.484   6.200   2.787  0.4989 -0.7514  0.5113
   14CHTO   O53 5675   5.576   6.215   2.997 -0.2413  0.2080  0.1161
   14CHTO   C82 5676   5.462   6.164   3.064  0.7993 -0.1988  0.5813
   14CHTO  H154 5677   5.421   6.087   3.000  0.9380  1.8592 -2.0629
   14CHTO   C89 5678   5.518   6.099   3.193  0.2983  0.2600 -0.0511
   14CHTO   O59 5679   5.581   6.199   3.279  0.3038  0.3762  0.5033
   14CHTO  H137 5680   5.565   6.171   3.367 -0.2193  2.3136  1.0404
   14CHTO   O45 5681   5.681   6.323   2.774 -0.2034  0.3556  0.0595
   14CHTO   C67 5682   5.776   6.220   2.756  0.1690 -0.5168  0.2419
   14CHTO  H124 5683   5.776   6.150   2.841  0.7824 -0.9347 -0.0973
   14CHTO   C65 5684   5.732   6.140   2.625  0.4154 -0.0357  0.3366
   14CHTO  H122 5685   5.623   6.132   2.632  0.2144  2.1802  0.2308
   14CHTO   O44 5686   5.794   6.014   2.633  0.1758 -0.2316  0.8408
   14CHTO  H102 5687   5.781   5.977   2.719  1.0726  0.4685  1.2883
   14CHTO   C63 5688   5.773   6.234   2.502 -0.0003  0.5588  0.0608
   14CHTO  H120 5689   5.728   6.333   2.516 -0.1302  0.2280  2.0536
   14CHTO   N11 5690   5.710   6.184   2.377 -0.5300 -0.4322  0.3963
   14CHTO  H108 5691   5.604   6.200   2.371 -0.8020 -2.6737 -1.4660
   14CHTO  H109 5692   5.729   6.080   2.361  2.1171  0.1724 -0.6895
   14CHTO   C61 5693   5.934   6.251   2.500  0.3665 -0.1117  0.6539
   14CHTO  H118 5694   5.957   6.324   2.421 -0.6763 -1.4756 -0.9465
   14CHTO   O40 5695   5.980   6.311   2.629 -0.3607 -0.2483 -0.1742
   14CHTO   C68 5696   5.922   6.268   2.758 -0.1694 -0.2380  0.2485
   14CHTO  H125 5697   5.927   6.361   2.818 -0.1327  0.4869 -0.8488
   14CHTO   C72 5698   6.012   6.168   2.833  0.3774 -0.7305  0.4778
   14CHTO   O48 5699   6.116   6.250   2.877 -1.2785 -0.0252 -0.4823
   14CHTO  H105 5700   6.078   6.307   2.942  1.9011  1.1761  0.4097
   14CHTO   O38 5701   6.011   6.129   2.475  0.8577  0.1195  0.7248
   14CHTO   C55 5702   6.124   6.142   2.381 -0.8130  0.0804 -0.2582
   14CHTO  H112 5703   6.121   6.240   2.330  1.8809  0.2486 -0.1274
   14CHTO   C56 5704   6.115   6.020   2.279  0.8128  0.4980  0.1230
   14CHTO  H113 5705   6.099   5.935   2.347  0.4405  0.3994 -0.0879
   14CHTO   O42 5706   5.994   6.036   2.199  0.5340 -0.3338  0.1594
   14CHTO  H100 5707   5.959   5.952   2.177  1.7970 -1.4813  2.3912
   14CHTO   C57 5708   6.238   5.990   2.192  0.1480 -0.1323 -0.6014
   14CHTO  H114 5709   6.234   6.063   2.111  0.3822 -1.7970 -2.1249
   14CHTO   N10 5710   6.239   5.852   2.133  0.2666  0.4791 -0.5343
   14CHTO  H106 5711   6.185   5.789   2.201 -0.4568  3.0346  1.3583
   14CHTO  H107 5712   6.339   5.814   2.114  1.0814  2.4123 -0.2656
   14CHTO   C58 5713   6.371   6.012   2.277 -0.0340 -0.0358  0.2334
   14CHTO  H115 5714   6.383   5.934   2.355  2.2931  0.8234  0.7767
   14CHTO   O37 5715   6.358   6.139   2.337 -0.5273 -0.0548 -0.2506
   14CHTO   C59 5716   6.268   6.130   2.445 -0.2338  0.1144  0.3846
   14CHTO  H116 5717   6.294   6.039   2.499 -0.1895  0.0874  0.3182
   14CHTO   C70 5718   6.306   6.251   2.536  0.1124  0.5224 -0.3917
   14CHTO   O46 5719   6.268   6.374   2.474  0.8794 -0.0004  0.1475
   14CHTO  H103 5720   6.344   6.409   2.431  1.2256 -0.0075  0.7515
   14CHTO   O39 5721   6.497   6.016   2.184  0.1035 -0.1651 -1.0731
   14CHTO   C60 5722   6.628   5.981   2.232 -0.4596  0.3206 -0.2582
   14CHTO  H117 5723   6.699   5.992   2.151 -0.7814 -0.0909 -0.5968
   14CHTO   C62 5724   6.688   6.078   2.343  0.4799 -0.3476 -0.2020
   14CHTO  H119 5725   6.689   6.177   2.294 -1.8952 -0.8356 -1.2798
   14CHTO   O43 5726   6.607   6.077   2.467 -0.3450 -0.3141  0.5318
   14CHTO  H101 5727   6.517   6.082   2.440 -0.4944  0.5909  1.1659
   14CHTO   C66 5728   6.842   6.031   2.354 -0.7368  0.4880  0.8934
   14CHTO  H123 5729   6.881   6.031   2.252  2.3659  1.2366  2.0150
   14CHTO   N12 5730   6.927   6.122   2.435  0.5584 -0.3608 -0.4303
   14CHTO  H110 5731   7.023   6.148   2.393 -0.1774  0.2413 -1.7880
   14CHTO  H111 5732   6.940   6.082   2.535  1.6952  1.1230  0.0375
   14CHTO   C69 5733   6.858   5.885   2.403 -0.7930 -0.0116  0.2636
   14CHTO  H126 5734   6.844   5.883   2.513  1.7059  1.9950  0.6525
   14CHTO   O41 5735   6.760   5.785   2.322 -0.2503  0.5990 -0.2883
   14CHTO   C64 5736   6.634   5.832   2.286  0.0332  0.1191  0.4559
   14CHTO  H121 5737   6.564   5.819   2.372  0.2212 -0.1099  0.5727
   14CHTO   C71 5738   6.602   5.744   2.168  0.4318  0.5464 -0.5181
   14CHTO   O47 5739   6.539   5.624   2.208  0.4782 -0.6970  0.9271
   14CHTO  H104 5740   6.606   5.564   2.236 -0.0567 -1.0759  1.4162
   14CHTO   O34 5741   7.004   5.843   2.394 -0.3316  0.9862 -0.8463
   14CHTO   C49 5742   7.092   5.701   2.312  0.5665  0.0645  0.1926
   14CHTO   H91 5743   7.108   5.628   2.392 -1.2565 -1.0744 -0.4504
   14CHTO   C47 5744   7.229   5.747   2.257  0.0363  0.7844 -0.5280
   14CHTO   H89 5745   7.281   5.655   2.223  1.2859  0.9336  0.9383
   14CHTO   O33 5746   7.297   5.800   2.371 -0.0992 -0.2405 -0.0317
   14CHTO   H70 5747   7.298   5.735   2.439 -2.1301 -0.7274 -0.4378
   14CHTO   C45 5748   7.214   5.853   2.134 -0.3095 -0.4137 -0.2963
   14CHTO   H87 5749   7.231   5.952   2.178 -1.0923  0.2229 -1.3891
   14CHTO    N8 5750   7.317   5.830   2.028 -0.1695  0.5866  0.3666
   14CHTO   H75 5751   7.308   5.904   1.950  3.1057  1.2236  0.5113
   14CHTO   H76 5752   7.306   5.731   1.985  0.1529  0.7326 -0.0449
   14CHTO   C43 5753   7.062   5.841   2.064 -0.3060 -0.1811  0.4795
   14CHTO   H85 5754   6.999   5.910   2.120  2.8370  4.2678 -1.1682
   14CHTO   O29 5755   7.012   5.704   2.070  0.2196  0.4714  0.0300
   14CHTO   C50 5756   7.013   5.634   2.194  0.4232 -0.0234 -0.1415
   14CHTO   H92 5757   6.912   5.619   2.233  1.8189 -4.9567  1.9487
   14CHTO   C54 5758   7.063   5.492   2.172  0.2438 -0.0378  0.5303
   14CHTO   O36 5759   6.964   5.415   2.094  0.1203  0.1491 -0.2037
   14CHTO   H72 5760   6.926   5.469   2.027  0.3005 -0.0866 -0.4954
   14CHTO   O27 5761   7.055   5.895   1.936 -0.1831  0.0770 -0.3371
   14CHTO   C37 5762   6.955   5.961   1.860 -0.8959 -0.2493  0.1769
   14CHTO   H79 5763   6.999   5.963   1.760 -0.0900  0.7686  0.5528
   14CHTO   C38 5764   6.813   5.885   1.848  0.2834 -0.0046 -0.6848
   14CHTO   H80 5765   6.769   5.867   1.947 -0.7946  1.0767 -0.9587
   14CHTO   O31 5766   6.846   5.761   1.777 -0.1910  0.0875 -0.0591
   14CHTO   H68 5767   6.892   5.702   1.833 -2.8086 -1.2826  0.7114
   14CHTO   C39 5768   6.707   5.963   1.767 -0.6354  0.8447 -0.4089
   14CHTO   H81 5769   6.737   5.953   1.662  1.0384  0.4639  0.1013
   14CHTO    N7 5770   6.574   5.900   1.773 -0.3254  0.6451  0.0258
   14CHTO   H73 5771   6.508   5.950   1.705  0.9935  0.1646 -1.6495
   14CHTO   H74 5772   6.525   5.901   1.869 -2.0302  1.9946 -0.8403
   14CHTO   C40 5773   6.701   6.107   1.827 -0.0740 -0.5692 -0.6738
   14CHTO   H82 5774   6.666   6.110   1.931 -0.5545 -0.9733 -0.8250
   14CHTO   O26 5775   6.833   6.168   1.809  0.0296 -0.4242  0.0684
   14CHTO   C41 5776   6.929   6.115   1.901  0.0598 -0.2072 -0.4109
   14CHTO   H83 5777   6.889   6.117   2.004  0.4284  2.2199 -0.2989
   14CHTO   C52 5778   7.061   6.200   1.898 -0.7565  0.4453 -0.0043
   14CHTO   O35 5779   7.152   6.179   2.002  0.5128  0.1392  0.0948
   14CHTO   H71 5780   7.169   6.087   2.000  2.8730  0.4856  1.6701
   14CHTO   O28 5781   6.606   6.188   1.750  0.8863 -0.6307 -0.1649
   14CHTO   C42 5782   6.530   6.295   1.815  0.8134 -0.1544 -0.2053
   14CHTO   H84 5783   6.497   6.352   1.729  2.1158  0.8116 -0.0787
   14CHTO   C44 5784   6.600   6.396   1.906 -0.7312  0.1046  0.1035
   14CHTO   H86 5785   6.619   6.345   2.001 -0.2417 -2.3115 -1.2432
   14CHTO   O32 5786   6.723   6.428   1.837  0.2445 -0.2055 -0.4929
   14CHTO   H69 5787   6.784   6.457   1.903  2.5789  0.7799 -3.0048
   14CHTO   C48 5788   6.513   6.521   1.939 -0.0429  0.2138  0.0654
   14CHTO   H90 5789   6.473   6.555   1.844 -0.9254 -2.3042 -0.5076
   14CHTO    N9 5790   6.582   6.633   2.008  0.4479 -0.5574  0.1093
   14CHTO   H77 5791   6.658   6.665   1.939 -1.0105  2.0268 -0.3631
   14CHTO   H78 5792   6.516   6.717   2.023  1.9423  0.8319 -0.9571
   14CHTO   C51 5793   6.391   6.468   2.026  0.3475 -0.2545 -0.3484
   14CHTO   H93 5794   6.435   6.426   2.116  1.1161 -0.6738 -0.9170
   14CHTO   O30 5795   6.325   6.366   1.947  0.8447 -0.0311  0.5182
   14CHTO   C46 5796   6.406   6.240   1.885 -0.0943 -0.6812 -0.0588
   14CHTO   H88 5797   6.424   6.174   1.969 -1.2620  0.6039  1.2270
   14CHTO   C53 5798   6.320   6.173   1.779 -0.1970 -0.1915  0.0753
   14CHTO   O72 5799   6.203   6.132   1.854  0.0388  0.3151 -0.2408
   14CHTO  H199 5800   6.221   6.054   1.903  0.7671  0.5165 -0.1916
   14CHTO   O22 5801   6.287   6.571   2.053 -0.4401 -0.4311 -0.1491
   14CHTO   C31 5802   6.244   6.588   2.186 -0.2388  0.2912  0.4012
   14CHTO   H59 5803   6.263   6.493   2.239 -2.3623 -0.2349  0.2673
   14CHTO   C29 5804   6.311   6.701   2.269 -0.0300 -1.5300  0.2026
   14CHTO   H57 5805   6.311   6.791   2.205  2.5887 -1.4990  0.1853
   14CHTO   O21 5806   6.444   6.661   2.298 -0.6572  0.1001 -0.0840
   14CHTO   H37 5807   6.498   6.737   2.296  1.4459 -1.3204  0.9078
   14CHTO   C27 5808   6.248   6.741   2.411  0.1606 -0.2817  0.1049
   14CHTO   H55 5809   6.278   6.667   2.488 -1.4232  0.1086  1.1345
   14CHTO    N5 5810   6.289   6.873   2.461  0.0161  0.0159 -0.2733
   14CHTO   H43 5811   6.214   6.936   2.507  0.4632 -0.2313  0.8168
   14CHTO   H44 5812   6.368   6.925   2.409  0.6668  1.6793  2.2243
   14CHTO   C25 5813   6.088   6.738   2.403 -0.3008  0.1768 -0.4471
   14CHTO   H53 5814   6.055   6.828   2.349 -2.0203  0.1636  0.5299
   14CHTO   O17 5815   6.035   6.624   2.318 -0.2455 -0.0272  0.2533
   14CHTO   C32 5816   6.090   6.605   2.189 -0.7300 -0.2161 -0.6577
   14CHTO   H60 5817   6.062   6.696   2.136  1.4767  0.6190 -0.4397
   14CHTO   C36 5818   6.019   6.473   2.134 -0.0199  0.3975 -0.0600
   14CHTO   O25 5819   5.874   6.480   2.124 -0.1899  0.0717 -0.6920
   14CHTO   H40 5820   5.856   6.405   2.071 -0.0776  0.2848 -1.0384
   14CHTO   O15 5821   6.023   6.731   2.555 -0.3256 -0.1633  0.6390
   14CHTO   C19 5822   6.008   6.670   2.685  0.9990 -0.3589 -0.1538
   14CHTO   H47 5823   5.991   6.563   2.669 -0.2270 -0.3727  1.1002
   14CHTO   C20 5824   6.132   6.661   2.782  0.2425 -0.0059 -0.2580
   14CHTO   H48 5825   6.175   6.761   2.798  0.6867 -0.2079 -0.1745
   14CHTO   O19 5826   6.234   6.598   2.704 -0.0551 -0.4005 -0.1532
   14CHTO   H35 5827   6.200   6.516   2.673 -0.5857  0.3052 -1.4574
   14CHTO   C21 5828   6.108   6.591   2.920  0.2966  0.0169  0.1467
   14CHTO   H49 5829   6.089   6.485   2.904  1.4802 -0.0027 -1.3218
   14CHTO    N4 5830   6.220   6.588   3.014  0.7774  0.6449 -0.2011
   14CHTO   H41 5831   6.309   6.552   2.964  0.2679  0.4643 -0.9955
   14CHTO   H42 5832   6.244   6.687   3.050 -2.2512  2.0225 -1.8259
   14CHTO   C22 5833   5.978   6.652   2.986 -0.4246  0.0767 -0.3932
   14CHTO   H50 5834   5.994   6.759   2.995 -1.1748  0.2405 -1.0258
   14CHTO   O14 5835   5.870   6.650   2.898  0.0133 -0.2517 -0.3772
   14CHTO   C23 5836   5.881   6.712   2.767  0.0319 -0.3319  0.3139
   14CHTO   H51 5837   5.878   6.819   2.793 -0.0654 -0.3455  0.3566
   14CHTO   C34 5838   5.753   6.685   2.691  0.4217  0.1909 -0.2676
   14CHTO   O23 5839   5.639   6.759   2.744  0.6479 -0.3205 -0.0951
   14CHTO   H38 5840   5.612   6.718   2.824 -0.3858  0.9769  0.2362
   14CHTO   O16 5841   5.937   6.596   3.107 -0.3553  0.7197  0.2957
   14CHTO   C24 5842   5.828   6.692   3.190 -0.1632  0.1528  0.0993
   14CHTO   H52 5843   5.763   6.750   3.125 -0.7847  0.6231  1.1188
   14CHTO   C26 5844   5.902   6.792   3.278  0.0004 -0.0048 -0.8815
   14CHTO   H54 5845   5.987   6.746   3.332  0.1422  1.8632  0.5177
   14CHTO   O20 5846   5.970   6.881   3.193  0.1512  0.4844 -0.3866
   14CHTO   H36 5847   6.060   6.893   3.217 -0.2692 -0.3450  1.7085
   14CHTO   C30 5848   5.798   6.864   3.372 -0.3651  0.8410  0.2270
   14CHTO   H58 5849   5.743   6.936   3.310  0.1410 -1.5724 -3.1656
   14CHTO    N6 5850   5.869   6.947   3.474  0.2563 -0.1346 -0.2460
   14CHTO   H45 5851   5.937   7.010   3.418  0.5735 -0.4950 -0.2665
   14CHTO   H46 5852   5.810   7.010   3.539  1.4042  1.5592 -0.8249
   14CHTO   C33 5853   5.700   6.760   3.438 -0.1020 -0.5815 -0.1905
   14CHTO   H61 5854   5.770   6.700   3.498  0.6547  0.2505 -0.2143
   14CHTO   O18 5855   5.633   6.680   3.347  0.3048  0.3348 -0.0331
   14CHTO   C28 5856   5.731   6.605   3.272  0.7906  0.4858 -1.0581
   14CHTO   H56 5857   5.787   6.537   3.337  1.3856  0.9276 -1.0988
   14CHTO   C35 5858   5.650   6.521   3.170 -0.3727 -0.1012 -0.2192
   14CHTO   O24 5859   5.731   6.422   3.110  0.0272 -0.7707 -0.6328
   14CHTO   H39 5860   5.730   6.416   3.016 -1.7024  1.1250 -0.7679
   14CHTO    O9 5861   5.606   6.819   3.535 -0.4170  0.0469  0.4437
   14CHTO   C13 5862   5.514   6.729   3.615 -0.4374 -0.1460 -0.0464
   14CHTO   H26 5863   5.513   6.637   3.553  1.5686  0.2614 -0.7283
   14CHTO   C11 5864   5.374   6.777   3.646 -0.0359 -0.0984 -0.3182
   14CHTO   H24 5865   5.325   6.794   3.548  2.2614  1.6892 -1.1943
   14CHTO    O8 5866   5.382   6.901   3.716 -0.3878 -0.1194 -0.0685
   14CHTO    H3 5867   5.421   6.884   3.800  0.8583 -1.2753 -0.8632
   14CHTO    C9 5868   5.307   6.658   3.727  0.0056  0.1325  0.1765
   14CHTO   H22 5869   5.315   6.571   3.660 -1.1153  0.3539 -0.2571
   14CHTO    N2 5870   5.159   6.675   3.738  0.2390  0.5993 -0.0246
   14CHTO   H10 5871   5.121   6.681   3.637  1.8903  0.8434 -0.6461
   14CHTO   H11 5872   5.143   6.755   3.808 -1.4031 -0.2278  0.5697
   14CHTO    C7 5873   5.387   6.639   3.862 -0.5692 -0.5842 -0.7917
   14CHTO   H20 5874   5.334   6.556   3.914  0.2419 -0.3081  0.5027
   14CHTO    O4 5875   5.529   6.612   3.837  0.4425  0.2957 -0.3812
   14CHTO   C14 5876   5.598   6.690   3.743  0.0396  0.3864 -0.0974
   14CHTO   H27 5877   5.689   6.631   3.718  0.1761  0.2014  0.8176
   14CHTO   C18 5878   5.648   6.815   3.813  0.2715 -0.1651  0.1416
   14CHTO   O13 5879   5.745   6.785   3.915  0.2595 -0.2990 -0.7867
   14CHTO    H7 5880   5.702   6.777   3.998  1.1321 -0.8828 -0.3777
   14CHTO    O2 5881   5.378   6.764   3.965  0.1597 -0.2380  0.6685
   14CHTO    C1 5882   5.332   6.738   4.102  0.2435 -0.4645  0.2024
   14CHTO   H14 5883   5.295   6.635   4.119  3.0721 -1.3477  1.1640
   14CHTO    C2 5884   5.216   6.831   4.146 -0.3727 -0.7719 -0.0798
   14CHTO   H15 5885   5.256   6.933   4.145 -0.4326 -0.6988  2.4817
   14CHTO    O6 5886   5.107   6.810   4.058  0.1904 -0.4407 -0.5816
   14CHTO    H1 5887   5.118   6.767   3.975  1.4489 -1.2492 -0.0137
   14CHTO    C3 5888   5.167   6.800   4.299 -0.7688 -0.1407 -0.2361
   14CHTO   H16 5889   5.132   6.696   4.309  0.8856 -0.5763  1.3067
   14CHTO    N1 5890   5.062   6.900   4.341 -0.4228 -0.1558  1.0403
   14CHTO    H8 5891   4.974   6.841   4.364 -2.8206  3.0356  0.3552
   14CHTO    H9 5892   5.087   6.939   4.438 -1.9414 -2.2527  2.3224
   14CHTO    C4 5893   5.296   6.805   4.394 -0.2949  0.3310 -0.1031
   14CHTO   H17 5894   5.329   6.908   4.407  0.5349 -0.1286  1.5825
   14CHTO    O1 5895   5.400   6.724   4.334  0.2965 -0.0650 -0.5445
   14CHTO    C5 5896   5.447   6.753   4.206  0.6368  0.4120 -0.2049
   14CHTO   H18 5897   5.480   6.857   4.207 -0.7852  0.8736  2.0803
   14CHTO   C16 5898   5.562   6.653   4.183  0.1966  0.0060 -0.1221
   14CHTO   O11 5899   5.674   6.683   4.262 -0.0384  0.0620  0.6199
   14CHTO    H5 5900   5.747   6.650   4.213 -1.5490 -1.8333 -0.3955
   14CHTO    O3 5901   5.287   6.736   4.518  0.2715 -0.5221  0.0309
   14CHTO    C6 5902   5.315   6.822   4.641 -0.2073  1.0944 -0.1346
   14CHTO   H19 5903   5.312   6.931   4.628  1.0988  0.9597 -1.7340
   14CHTO    C8 5904   5.203   6.803   4.750  1.0921  0.1795 -0.7167
   14CHTO   H21 5905   5.190   6.697   4.771 -1.9717  0.9120  1.4087
   14CHTO    O7 5906   5.077   6.846   4.692 -0.0814  0.9491  0.5700
   14CHTO    H2 5907   5.003   6.807   4.733  1.3497 -1.2976  1.0658
   14CHTO   C12 5908   5.248   6.879   4.882  0.2911  0.1353 -0.1818
   14CHTO   H25 5909   5.241   6.990   4.870 -0.3856 -0.0797 -2.0590
   14CHTO    N3 5910   5.146   6.860   4.991  0.1431 -0.3944  0.0144
   14CHTO   H12 5911   5.043   6.890   4.975 -0.2048 -0.5248  1.9470
   14CHTO   H13 5912   5.132   6.764   5.038 -4.7731  0.6607  1.0489
   14CHTO   C15 5913   5.393   6.845   4.920 -0.3373  0.2769 -0.6114
   14CHTO   H28 5914   5.400   6.749   4.972 -3.1482 -0.4211 -1.4283
   14CHTO   O10 5915   5.438   6.937   5.030 -0.7313  0.2210 -0.0088
   14CHTO    H4 5916   5.407   6.906   5.113 -0.6855  1.7064  0.5850
   14CHTO    O5 5917   5.489   6.869   4.815  0.1808  0.7346  0.0308
   14CHTO   C10 5918   5.461   6.793   4.694 -0.1552 -0.1249 -0.2778
   14CHTO   H23 5919   5.471   6.688   4.718  0.2381 -0.2565 -1.0025
   14CHTO   C17 5920   5.570   6.817   4.594 -0.2968 -0.4813 -0.1741
   14CHTO   O12 5921   5.585   6.956   4.565  0.6379  0.1389 -0.0569
   14CHTO    H6 5922   5.668   6.981   4.528  0.8319 -0.7092 -0.2158
   15CHTO  H203 5923   5.920   5.552   3.288  0.8209  1.0928 -0.6447
   15CHTO   O82 5924   5.890   5.528   3.203 -0.2314  0.1516 -0.0304
   15CHTO  C123 5925   5.899   5.381   3.175  0.0428 -0.7508  0.3254
   15CHTO  H227 5926   5.943   5.338   3.266 -0.0983  2.2315  1.8916
   15CHTO   O77 5927   5.756   5.363   3.154  0.3700 -0.6073 -0.2551
   15CHTO  C118 5928   5.718   5.230   3.115 -1.1334  0.3871 -0.8905
   15CHTO  H222 5929   5.751   5.169   3.200  0.5278  0.1030 -1.7197
   15CHTO  C125 5930   5.557   5.217   3.108  0.2580 -0.1591 -0.0788
   15CHTO   O84 5931   5.493   5.290   2.999  0.0874  0.1476 -0.4950
   15CHTO  H205 5932   5.539   5.371   2.987  2.2751 -0.9837  0.0556
   15CHTO  C114 5933   5.780   5.181   2.991 -1.0859 -0.3733  0.0092
   15CHTO  H218 5934   5.754   5.251   2.912 -1.9311 -1.4488 -0.6919
   15CHTO  C116 5935   5.935   5.201   2.993  0.7365 -0.7023  0.1784
   15CHTO  H220 5936   5.975   5.121   3.058 -0.1490 -1.5840 -0.3629
   15CHTO   O79 5937   5.981   5.186   2.857  0.2729 -0.1047 -0.3096
   15CHTO  H201 5938   6.073   5.170   2.862  0.0978 -1.1646 -0.3213
   15CHTO  C120 5939   5.971   5.344   3.037  0.2924 -1.0893 -0.3588
   15CHTO  H224 5940   5.933   5.408   2.954  0.4556 -0.6812 -0.1210
   15CHTO   N21 5941   6.121   5.363   3.041  0.1265  0.7823 -0.1209
   15CHTO  H211 5942   6.176   5.277   3.075  1.2448  1.4675 -0.1816
   15CHTO  H212 5943   6.161   5.452   3.088 -1.2661  0.9953  0.6953
   15CHTO   O75 5944   5.740   5.047   2.968 -0.3961  0.2672  0.3490
   15CHTO  C112 5945   5.845   4.910   3.011  0.4758 -0.4527 -0.3596
   15CHTO  H216 5946   5.882   4.921   3.114  0.2725 -0.6352 -0.2657
   15CHTO   O73 5947   5.953   4.904   2.917 -0.1174 -0.0113  0.0951
   15CHTO  C113 5948   6.056   4.805   2.937 -0.7553 -0.4455 -0.1696
   15CHTO  H217 5949   6.113   4.815   3.031  1.6063  2.0213 -1.8037
   15CHTO  C124 5950   6.170   4.820   2.830  0.1071  0.7309 -0.1666
   15CHTO   O83 5951   6.131   4.799   2.695  0.1084  0.1333 -0.0806
   15CHTO  H204 5952   6.203   4.807   2.635  1.6314 -0.4825  1.6154
   15CHTO  C109 5953   5.992   4.666   2.933  0.3994  0.4676 -0.0455
   15CHTO  H213 5954   5.962   4.650   2.828  2.0715 -0.3125 -0.4236
   15CHTO  C110 5955   5.875   4.660   3.029 -0.5289 -0.1012  0.2383
   15CHTO  H214 5956   5.910   4.680   3.130  0.2813  0.9482 -0.2389
   15CHTO   O78 5957   5.815   4.536   3.016  0.0516  0.1241  0.2412
   15CHTO  H200 5958   5.877   4.468   3.032 -1.0334 -0.6827  1.0645
   15CHTO  C111 5959   5.769   4.768   2.993 -0.0919 -0.4163  0.6998
   15CHTO  H215 5960   5.738   4.755   2.888 -1.7972  1.9432  0.8909
   15CHTO   N19 5961   5.644   4.769   3.079 -0.2166  0.2604  0.4860
   15CHTO  H207 5962   5.660   4.719   3.173  1.6394  0.5969  0.3706
   15CHTO  H208 5963   5.559   4.718   3.037  0.8640 -1.3279  0.1708
   15CHTO   O74 5964   6.091   4.570   2.963 -0.4283  0.0509 -0.4325
   15CHTO  C115 5965   6.075   4.431   2.868 -0.1576 -0.3972 -1.0494
   15CHTO  H219 5966   5.969   4.414   2.848 -0.6401  0.2507  0.8278
   15CHTO   O76 5967   6.131   4.462   2.711 -1.0327 -0.4498  0.5135
   15CHTO  C122 5968   6.262   4.410   2.695  0.6924  0.4549  1.2130
   15CHTO  H226 5969   6.318   4.461   2.773 -0.8139  3.0037  0.6639
   15CHTO  C126 5970   6.328   4.462   2.558  0.6089  0.7381  0.1313
   15CHTO   O85 5971   6.323   4.602   2.542 -0.7788 -0.2705 -0.6121
   15CHTO  H206 5972   6.306   4.625   2.453 -1.6788  0.0540 -0.3592
   15CHTO  C121 5973   6.285   4.257   2.732 -0.0199  0.9957 -0.7409
   15CHTO  H225 5974   6.262   4.204   2.637 -0.3746 -1.5808  0.7390
   15CHTO   O81 5975   6.421   4.234   2.759  0.5242  0.2439 -0.2516
   15CHTO  H202 5976   6.443   4.146   2.781  1.0696  0.6591  0.9381
   15CHTO  C119 5977   6.195   4.205   2.838  0.0647  0.0488 -0.1403
   15CHTO  H223 5978   6.097   4.185   2.794 -1.6698  3.2005  2.1100
   15CHTO  C117 5979   6.151   4.312   2.943  0.7467  0.1127 -0.2849
   15CHTO  H221 5980   6.222   4.365   3.006  1.3689  0.0986 -0.9666
   15CHTO   N20 5981   6.066   4.251   3.042 -0.4352  0.0874  0.0397
   15CHTO  H209 5982   6.021   4.322   3.109  2.0376  1.7993 -0.0529
   15CHTO  H210 5983   6.118   4.169   3.089  0.0195  0.8034  0.7938
   15CHTO   O80 5984   6.234   4.052   2.901  0.0143  0.8535  0.3303
   15CHTO  C103 5985   6.147   3.924   2.866 -0.0181  0.5629 -0.1923
   15CHTO  H190 5986   6.175   3.844   2.934 -1.8571  2.1332  2.5128
   15CHTO  C101 5987   5.997   3.927   2.869  1.0400 -0.6533 -0.1177
   15CHTO  H188 5988   5.958   4.015   2.818 -0.9381 -0.9621  0.8165
   15CHTO   O68 5989   5.948   3.926   3.009  0.2563 -0.5882 -0.1621
   15CHTO  H168 5990   5.874   3.870   3.012  1.2256 -1.8587  0.6708
   15CHTO   C99 5991   5.933   3.798   2.792 -0.2342  1.0226  0.4554
   15CHTO  H186 5992   5.970   3.708   2.845 -2.6619  0.8141  1.8669
   15CHTO   N17 5993   5.784   3.791   2.788 -0.3997  0.0881  0.0345
   15CHTO  H174 5994   5.756   3.687   2.780 -0.6093  0.0092  1.5807
   15CHTO  H175 5995   5.743   3.839   2.875 -0.8848 -0.6373  0.2150
   15CHTO   C97 5996   5.997   3.789   2.647 -0.4733 -0.2663  0.5225
   15CHTO  H184 5997   5.979   3.883   2.591  1.1352 -0.4023 -0.2646
   15CHTO   O64 5998   6.140   3.769   2.667  0.5049  0.2235  0.0083
   15CHTO  C104 5999   6.209   3.886   2.717 -0.5839  0.2217 -0.1629
   15CHTO  H191 6000   6.200   3.972   2.651 -0.1303  1.6288  1.5537
   15CHTO  C108 6001   6.361   3.847   2.714 -0.4922  0.2829 -0.6726
   15CHTO   O71 6002   6.395   3.736   2.794  0.6854 -0.7853 -0.3579
   15CHTO  H171 6003   6.382   3.766   2.882  2.3521 -1.6314  0.2123
   15CHTO   O62 6004   5.961   3.676   2.565 -0.0595  0.7062 -0.1706
   15CHTO   C91 6005   5.888   3.699   2.443 -0.4557  0.5343  0.0927
   15CHTO  H178 6006   5.849   3.801   2.442  0.7818  1.0173  0.6687
   15CHTO   C92 6007   5.762   3.607   2.435 -0.1485  0.9033 -0.1914
   15CHTO  H179 6008   5.714   3.593   2.533  0.3620  0.7611  0.0427
   15CHTO   O66 6009   5.653   3.652   2.365 -0.1449  0.5249  0.5591
   15CHTO  H166 6010   5.618   3.735   2.393 -0.7169  0.8841 -1.1777
   15CHTO   C93 6011   5.791   3.456   2.378 -0.1618  0.2054 -0.8652
   15CHTO  H180 6012   5.694   3.404   2.379 -1.3070  2.2616 -1.2043
   15CHTO   N16 6013   5.881   3.363   2.458  0.0166  0.5126  0.6767
   15CHTO  H172 6014   5.845   3.325   2.553  0.8087  1.3323  1.3092
   15CHTO  H173 6015   5.929   3.289   2.395 -2.6591 -1.1452  0.5424
   15CHTO   C94 6016   5.836   3.477   2.233  0.5128  0.3158  0.4742
   15CHTO  H181 6017   5.914   3.405   2.207  0.1677 -1.0531  3.0249
   15CHTO   O61 6018   5.881   3.610   2.201 -0.0609 -0.2309  0.7544
   15CHTO   C95 6019   5.963   3.679   2.301  0.4606 -0.4008 -0.4341
   15CHTO  H182 6020   6.050   3.616   2.321  0.5875  0.5371  2.1419
   15CHTO  C106 6021   6.020   3.817   2.243 -0.6181 -0.1589 -0.4403
   15CHTO   O69 6022   6.100   3.889   2.342  0.1646 -0.0104  0.5803
   15CHTO  H169 6023   6.092   3.981   2.326 -0.0698 -0.5256 -2.7837
   15CHTO   O63 6024   5.693   3.456   2.152 -0.1341  0.2712 -0.3596
   15CHTO   C96 6025   5.702   3.424   2.004 -0.1357 -0.0633  0.7915
   15CHTO  H183 6026   5.807   3.407   1.982  1.0296  0.1286  5.5087
   15CHTO   C98 6027   5.642   3.543   1.918  0.1492 -0.5420 -0.1176
   15CHTO  H185 6028   5.537   3.565   1.942 -0.3860 -0.9249 -2.0095
   15CHTO   O67 6029   5.715   3.666   1.949 -0.3899 -0.3436  0.0750
   15CHTO  H167 6030   5.690   3.739   1.896 -0.6229 -0.4685  0.0142
   15CHTO  C102 6031   5.649   3.506   1.764 -0.1396 -0.4055  0.3066
   15CHTO  H189 6032   5.757   3.498   1.743  0.1640  0.2607  1.5877
   15CHTO   N18 6033   5.586   3.601   1.671  0.4205  0.1409 -0.1388
   15CHTO  H176 6034   5.607   3.589   1.566 -1.7267 -0.6261 -0.4993
   15CHTO  H177 6035   5.608   3.705   1.692 -1.8743  0.7844 -0.8414
   15CHTO  C105 6036   5.604   3.363   1.745 -0.3561  0.1699 -0.6576
   15CHTO  H192 6037   5.495   3.362   1.745 -0.4266 -1.8168  3.0411
   15CHTO   O65 6038   5.653   3.266   1.832  0.1956  0.5719  0.0172
   15CHTO  C100 6039   5.627   3.294   1.971 -0.4518 -1.1479 -0.5128
   15CHTO  H187 6040   5.519   3.311   1.987 -0.3236 -1.4475  0.7887
   15CHTO  C107 6041   5.666   3.166   2.053 -0.3878  0.6143 -0.2691
   15CHTO   O70 6042   5.659   3.174   2.194  0.4619  0.6912  0.3122
   15CHTO  H170 6043   5.568   3.173   2.220  0.4700  0.2517  0.3295
   15CHTO   O57 6044   5.661   3.319   1.600  0.0778 -0.5652  0.4964
   15CHTO   C85 6045   5.613   3.205   1.524 -0.1917 -0.1157 -0.1291
   15CHTO  H157 6046   5.524   3.170   1.580 -0.3362  2.0151  1.0493
   15CHTO   C83 6047   5.718   3.087   1.522 -0.5278  0.6604  0.2494
   15CHTO  H155 6048   5.723   3.046   1.623 -0.0429 -0.3963 -0.1985
   15CHTO   O56 6049   5.851   3.137   1.490 -0.0263  0.2491  0.3647
   15CHTO  H135 6050   5.918   3.078   1.518  0.4891  0.7720  0.2546
   15CHTO   C81 6051   5.666   2.973   1.430 -0.2139  0.1397  0.4642
   15CHTO  H153 6052   5.569   2.942   1.468  0.4618  1.0478  3.0874
   15CHTO   N14 6053   5.752   2.856   1.434 -0.1969  0.3471 -0.3596
   15CHTO  H141 6054   5.854   2.876   1.459 -0.2625 -0.3777  0.5023
   15CHTO  H142 6055   5.714   2.782   1.501  0.7471 -1.2976 -1.5850
   15CHTO   C79 6056   5.646   3.025   1.290 -0.3698  0.5437  0.5462
   15CHTO  H151 6057   5.599   2.941   1.238 -1.1793  0.3628  1.5629
   15CHTO   O52 6058   5.549   3.131   1.279  0.0156  0.1433  0.5770
   15CHTO   C86 6059   5.577   3.241   1.372 -0.1334 -1.0268  0.0055
   15CHTO  H158 6060   5.661   3.298   1.326 -1.3615  0.0370 -0.9662
   15CHTO   C90 6061   5.451   3.333   1.363  0.0392  0.6596 -0.7333
   15CHTO   O60 6062   5.471   3.402   1.240  0.0678 -0.2070 -0.3009
   15CHTO  H138 6063   5.477   3.349   1.163 -0.8938 -1.8087  0.7001
   15CHTO   O50 6064   5.767   3.064   1.219  0.0632  0.0868  0.4010
   15CHTO   C73 6065   5.771   3.091   1.076  0.0660  0.3476 -0.2505
   15CHTO  H145 6066   5.687   3.156   1.046 -0.9600 -0.8256  0.0463
   15CHTO   C74 6067   5.762   2.958   1.003  1.2431  0.0293  0.1675
   15CHTO  H146 6068   5.661   2.917   1.022  1.6234 -1.3608 -0.7542
   15CHTO   O54 6069   5.767   2.991   0.864 -0.3806  0.3077 -0.4225
   15CHTO  H133 6070   5.705   3.050   0.826 -0.3105 -0.0458 -1.0900
   15CHTO   C75 6071   5.871   2.866   1.056 -0.3766 -1.0466 -0.2724
   15CHTO  H147 6072   5.856   2.853   1.164  0.2143 -1.3216 -0.2193
   15CHTO   N13 6073   5.854   2.726   1.002  0.5611 -0.0667 -0.8196
   15CHTO  H139 6074   5.916   2.712   0.915 -0.8393 -2.4554 -1.4725
   15CHTO  H140 6075   5.883   2.650   1.073 -1.7114 -0.7737 -0.5990
   15CHTO   C76 6076   6.015   2.929   1.032 -0.6622  1.0780  0.3896
   15CHTO  H148 6077   6.028   2.938   0.924  3.5551  0.4688  0.7841
   15CHTO   O49 6078   6.017   3.069   1.076  0.3532 -0.0030  1.3489
   15CHTO   C77 6079   5.908   3.162   1.046 -0.2371 -1.0172 -0.1650
   15CHTO  H149 6080   5.920   3.198   0.944  1.8854  1.0624  0.7871
   15CHTO   C88 6081   5.930   3.280   1.143 -0.0008 -0.1149 -0.1352
   15CHTO   O58 6082   6.051   3.343   1.110 -0.2720 -0.6585 -0.9748
   15CHTO  H136 6083   6.075   3.335   1.019 -0.9778 -0.0778 -1.2197
   15CHTO   O51 6084   6.110   2.858   1.107 -0.0739 -0.1007  0.4472
   15CHTO   C78 6085   6.281   2.888   1.061 -0.1594  0.2055 -0.0387
   15CHTO  H150 6086   6.294   2.992   1.025 -3.3797  0.2468 -1.2613
   15CHTO   C80 6087   6.342   2.791   0.962  0.6698 -0.0817 -0.0957
   15CHTO  H152 6088   6.344   2.693   1.016  1.2370  2.1606  4.1947
   15CHTO   O55 6089   6.254   2.799   0.848 -0.0330 -0.4794  0.1233
   15CHTO  H134 6090   6.219   2.715   0.827 -0.3506 -0.1368 -0.7558
   15CHTO   C84 6091   6.492   2.840   0.929 -0.4355 -0.1128  0.5335
   15CHTO  H156 6092   6.473   2.939   0.887  1.9245 -0.1099 -0.5529
   15CHTO   N15 6093   6.552   2.756   0.825  0.3125 -0.2164 -0.5963
   15CHTO  H143 6094   6.656   2.778   0.819  0.4118 -0.3037  0.8211
   15CHTO  H144 6095   6.498   2.771   0.733 -0.7067 -1.9288 -0.2908
   15CHTO   C87 6096   6.572   2.840   1.058  0.1392  0.3188 -0.1673
   15CHTO  H159 6097   6.575   2.738   1.094 -1.8904  0.5247  0.6356
   15CHTO   O53 6098   6.501   2.920   1.168  0.0132 -0.9703  0.8924
   15CHTO   C82 6099   6.370   2.876   1.189 -0.5439 -0.2407  0.3985
   15CHTO  H154 6100   6.372   2.774   1.227  0.6259 -0.1338  0.6509
   15CHTO   C89 6101   6.317   2.958   1.309 -0.3026  1.2349 -0.1379
   15CHTO   O59 6102   6.389   2.943   1.433  0.7923 -0.1150  0.2926
   15CHTO  H137 6103   6.467   2.990   1.412  1.4740 -0.9962  0.8158
   15CHTO   O45 6104   6.720   2.920   1.025  0.5706 -0.1612  0.1701
   15CHTO   C67 6105   6.807   2.965   1.128  0.8231 -0.1203 -0.0929
   15CHTO  H124 6106   6.748   3.011   1.208  0.1799 -3.1634  1.2281
   15CHTO   C65 6107   6.868   2.835   1.177 -0.2576 -0.1419  0.2500
   15CHTO  H122 6108   6.863   2.767   1.092  0.9337 -1.1411  0.9569
   15CHTO   O44 6109   6.784   2.775   1.275 -0.5495 -0.0719 -0.0176
   15CHTO  H102 6110   6.696   2.806   1.282 -0.8420 -1.0413  0.7763
   15CHTO   C63 6111   7.025   2.849   1.210 -0.4762 -0.9951  0.2459
   15CHTO  H120 6112   7.078   2.857   1.115 -1.7793  0.6870 -0.3503
   15CHTO   N11 6113   7.095   2.738   1.281 -0.1451  0.1310  0.4602
   15CHTO  H108 6114   7.031   2.672   1.335  1.9742 -0.7024  2.0380
   15CHTO  H109 6115   7.182   2.698   1.232 -0.9122 -1.3477  0.2795
   15CHTO   C61 6116   7.051   2.992   1.276  0.0912  0.1096  0.8546
   15CHTO  H118 6117   7.159   3.008   1.292  0.5528 -2.7138  0.8091
   15CHTO   O40 6118   6.997   3.104   1.198  0.2475  0.1300 -0.5063
   15CHTO   C68 6119   6.903   3.070   1.083 -0.0774  0.1742 -0.0433
   15CHTO  H125 6120   6.959   3.033   0.994 -2.0188 -2.2690 -0.3201
   15CHTO   C72 6121   6.824   3.195   1.041 -0.8223 -0.1225  0.4913
   15CHTO   O48 6122   6.758   3.170   0.914 -0.1752  0.5611 -0.0628
   15CHTO  H105 6123   6.820   3.134   0.853  0.1787 -2.8313  2.1645
   15CHTO   O38 6124   6.998   2.995   1.406  1.0426 -0.2342  0.4117
   15CHTO   C55 6125   7.002   3.124   1.475 -0.5360  0.5563 -0.0069
   15CHTO  H112 6126   6.999   3.207   1.403  2.1602  0.1797 -0.5720
   15CHTO   C56 6127   7.128   3.136   1.573 -1.0674  0.6299 -0.3196
   15CHTO  H113 6128   7.135   3.053   1.645 -3.1929  0.1206 -0.6616
   15CHTO   O42 6129   7.250   3.117   1.493  0.2478  1.0472  0.1828
   15CHTO  H100 6130   7.313   3.054   1.521 -2.5875 -1.0755  2.0258
   15CHTO   C57 6131   7.123   3.273   1.648 -0.2711  0.1712  0.1316
   15CHTO  H114 6132   7.142   3.351   1.574  1.4350 -0.4506 -0.1213
   15CHTO   N10 6133   7.229   3.298   1.749  0.1193 -0.2771 -0.2492
   15CHTO  H106 6134   7.193   3.269   1.847 -1.4985 -1.5597 -1.1932
   15CHTO  H107 6135   7.322   3.248   1.725  0.4441  1.6935 -3.2859
   15CHTO   C58 6136   6.980   3.292   1.711  0.5146 -0.2178 -0.0131
   15CHTO  H115 6137   6.958   3.210   1.783 -0.6185 -0.7299 -0.9115
   15CHTO   O37 6138   6.881   3.279   1.613  0.3130 -0.4490 -0.7189
   15CHTO   C59 6139   6.873   3.146   1.562 -0.4802 -0.3722 -0.1688
   15CHTO  H116 6140   6.860   3.064   1.633 -2.0203 -0.1414 -0.1553
   15CHTO   C70 6141   6.750   3.141   1.466  0.1653 -0.3318 -0.3210
   15CHTO   O46 6142   6.626   3.147   1.544  0.3967  0.3056 -0.7254
   15CHTO  H103 6143   6.559   3.165   1.482  0.3596  0.8192 -0.5361
   15CHTO   O39 6144   6.951   3.447   1.774 -0.5897 -0.0041  0.1229
   15CHTO   C60 6145   6.856   3.458   1.885 -0.7482  0.5668  0.0730
   15CHTO  H117 6146   6.779   3.381   1.872  0.6057 -0.5354 -1.6154
   15CHTO   C62 6147   6.930   3.443   2.019 -0.6007  0.3789 -0.1740
   15CHTO  H119 6148   6.950   3.334   2.013  1.3782  0.7644 -1.0909
   15CHTO   O43 6149   7.056   3.519   2.011  0.2979 -0.2746  0.4547
   15CHTO  H101 6150   7.102   3.522   2.093  1.3154 -1.1215 -0.0681
   15CHTO   C66 6151   6.839   3.462   2.149  0.0628  0.3000 -0.2839
   15CHTO  H123 6152   6.755   3.393   2.138 -0.5735  0.9912  0.2158
   15CHTO   N12 6153   6.908   3.424   2.278 -0.7219 -0.7800 -0.2263
   15CHTO  H110 6154   6.997   3.485   2.276 -0.4757 -1.1735 -1.4975
   15CHTO  H111 6155   6.932   3.319   2.282 -0.8209 -0.8291 -0.9084
   15CHTO   C69 6156   6.776   3.601   2.138  0.3203 -0.2250  0.0882
   15CHTO  H126 6157   6.853   3.681   2.136 -0.2186  0.2617 -1.4687
   15CHTO   O41 6158   6.686   3.614   2.006 -0.3095  0.1409 -0.3114
   15CHTO   C64 6159   6.778   3.596   1.876 -0.2800 -0.0371  0.5957
   15CHTO  H121 6160   6.851   3.679   1.862 -0.3252 -0.2353 -0.8692
   15CHTO   C71 6161   6.686   3.598   1.751 -0.1538 -0.0242 -0.6686
   15CHTO   O47 6162   6.588   3.498   1.761 -0.0854  0.0910 -0.4937
   15CHTO  H104 6163   6.526   3.502   1.691  0.6104 -0.1998 -1.1302
   15CHTO   O34 6164   6.688   3.629   2.246 -0.2002  0.0118  0.0442
   15CHTO   C49 6165   6.588   3.686   2.347 -0.3613  0.3004  0.0530
   15CHTO   H91 6166   6.648   3.748   2.414  0.9707  0.6350 -1.4136
   15CHTO   C47 6167   6.519   3.567   2.420 -0.3046 -0.0812  0.7332
   15CHTO   H89 6168   6.472   3.612   2.510 -2.4238 -1.8202  0.5337
   15CHTO   O33 6169   6.616   3.480   2.474 -0.3857  0.1653 -0.4040
   15CHTO   H70 6170   6.696   3.514   2.439  0.3544 -3.1763 -2.1346
   15CHTO   C45 6171   6.418   3.501   2.312  0.7898  0.2897  0.2986
   15CHTO   H87 6172   6.476   3.422   2.263  0.1545  0.8379 -1.3394
   15CHTO    N8 6173   6.310   3.446   2.392  0.1062  0.3017  0.6167
   15CHTO   H75 6174   6.300   3.339   2.394 -2.4868  0.4717 -0.8134
   15CHTO   H76 6175   6.212   3.490   2.382  0.4398  1.0038  0.3237
   15CHTO   C43 6176   6.378   3.601   2.191  0.0857  0.4170  0.0415
   15CHTO   H85 6177   6.458   3.597   2.117 -2.8525 -0.9552 -3.2379
   15CHTO   O29 6178   6.363   3.729   2.246 -0.0350  0.1138 -0.8790
   15CHTO   C50 6179   6.493   3.789   2.281 -0.4420 -0.0613  0.1153
   15CHTO   H92 6180   6.542   3.838   2.196  3.0031 -0.1631  1.9564
   15CHTO   C54 6181   6.482   3.911   2.377 -0.1996 -0.2224  0.4238
   15CHTO   O36 6182   6.441   4.036   2.316 -0.4884 -0.2299 -0.4217
   15CHTO   H72 6183   6.505   4.060   2.252  0.5712 -1.4209  0.1689
   15CHTO   O27 6184   6.267   3.566   2.116  0.7206  0.5788  0.1436
   15CHTO   C37 6185   6.225   3.511   1.987 -0.0192 -0.4645  0.1740
   15CHTO   H79 6186   6.309   3.472   1.928 -0.2277 -0.1874 -0.3134
   15CHTO   C38 6187   6.139   3.387   2.004 -0.3371 -0.0296  0.4945
   15CHTO   H80 6188   6.052   3.416   2.065 -1.8607 -1.2888 -1.0458
   15CHTO   O31 6189   6.214   3.291   2.077  0.2695  0.5087  0.3058
   15CHTO   H68 6190   6.165   3.234   2.133 -0.8921  1.3676  0.1937
   15CHTO   C39 6191   6.098   3.322   1.868 -0.2095 -0.6236  0.4937
   15CHTO   H81 6192   6.182   3.276   1.815 -1.0387 -1.3754 -0.1673
   15CHTO    N7 6193   6.001   3.208   1.893  0.2737 -0.5667 -0.2834
   15CHTO   H73 6194   6.018   3.164   1.991  0.4100  0.4964  0.1755
   15CHTO   H74 6195   5.901   3.250   1.886  0.0830 -1.2638 -1.8252
   15CHTO   C40 6196   6.032   3.433   1.776  0.0691  0.0422 -0.2637
   15CHTO   H82 6197   5.938   3.455   1.826  0.7429 -0.4543  1.2557
   15CHTO   O26 6198   6.120   3.552   1.770  0.2741  1.0191 -0.5529
   15CHTO   C41 6199   6.149   3.608   1.901  0.1204  1.0600 -0.7629
   15CHTO   H83 6200   6.051   3.627   1.947 -0.2785 -0.9750 -0.6898
   15CHTO   C52 6201   6.222   3.740   1.890 -0.0242  0.0281  0.3802
   15CHTO   O35 6202   6.337   3.741   1.812 -0.5387  0.6110  0.5906
   15CHTO   H71 6203   6.353   3.826   1.776 -0.2519 -0.3247 -1.5807
   15CHTO   O28 6204   5.999   3.381   1.650 -0.0943  0.4644 -0.0357
   15CHTO   C42 6205   6.056   3.410   1.524  0.0509 -0.1619  0.0446
   15CHTO   H84 6206   6.003   3.338   1.462 -2.3746  0.6506  1.0989
   15CHTO   C44 6207   6.209   3.376   1.516 -0.0518  0.6068 -0.3678
   15CHTO   H86 6208   6.257   3.431   1.597 -0.9768  0.0659  0.5664
   15CHTO   O32 6209   6.213   3.231   1.533 -0.1592 -0.0637 -0.0315
   15CHTO   H69 6210   6.302   3.204   1.534  0.2419  0.9459 -2.8270
   15CHTO   C48 6211   6.287   3.416   1.377 -0.7153 -0.2986  0.0159
   15CHTO   H90 6212   6.258   3.346   1.299 -2.2714  0.0997  0.2108
   15CHTO    N9 6213   6.435   3.402   1.409 -0.5753 -0.0769 -0.1374
   15CHTO   H77 6214   6.458   3.426   1.512 -0.3715  0.9326 -0.4178
   15CHTO   H78 6215   6.464   3.298   1.396  1.6265  0.6106 -0.9941
   15CHTO   C51 6216   6.238   3.558   1.345  0.4689  0.2916 -0.3199
   15CHTO   H93 6217   6.265   3.624   1.428  1.7507 -0.1733 -0.3460
   15CHTO   O30 6218   6.094   3.557   1.324  0.0799  0.0846 -0.3009
   15CHTO   C46 6219   6.023   3.548   1.465 -0.1771  0.1328 -0.1722
   15CHTO   H88 6220   6.062   3.629   1.526 -2.7266  0.6657  0.8250
   15CHTO   C53 6221   5.876   3.570   1.440 -0.2838  0.3159  1.2996
   15CHTO   O72 6222   5.855   3.694   1.383  0.0525  0.3812 -0.5025
   15CHTO  H199 6223   5.847   3.684   1.290  0.1566  2.5491 -0.7744
   15CHTO   O22 6224   6.294   3.610   1.226  0.0303 -0.4442  0.1794
   15CHTO   C31 6225   6.280   3.748   1.175 -1.2052 -0.9015 -0.1232
   15CHTO   H59 6226   6.345   3.756   1.086 -0.4067  0.0566  0.5330
   15CHTO   C29 6227   6.143   3.788   1.128 -0.5231  0.8745  0.2559
   15CHTO   H57 6228   6.089   3.787   1.224  2.8344  1.7372  2.2374
   15CHTO   O21 6229   6.088   3.691   1.042 -0.2122  0.2659  0.4893
   15CHTO   H37 6230   6.146   3.689   0.968  0.0372 -0.3555  0.7052
   15CHTO   C27 6231   6.144   3.936   1.065 -0.1898 -0.6223  0.0356
   15CHTO   H55 6232   6.199   3.936   0.970 -1.7419 -2.0604 -0.8718
   15CHTO    N5 6233   6.007   3.981   1.032  0.0068  0.7064  0.4293
   15CHTO   H43 6234   6.003   4.065   0.964 -0.3893  0.8034  0.5714
   15CHTO   H44 6235   5.959   3.898   0.982 -0.8093 -0.2813  2.8040
   15CHTO   C25 6236   6.205   4.035   1.171 -0.8829  0.4195  0.2082
   15CHTO   H53 6237   6.132   4.038   1.252 -1.0523  0.9570  0.0386
   15CHTO   O17 6238   6.327   3.990   1.223 -0.2112  0.0679  0.2528
   15CHTO   C32 6239   6.334   3.859   1.277  0.3997 -0.0234  0.1573
   15CHTO   H60 6240   6.277   3.858   1.369  1.3134 -2.8505  0.7373
   15CHTO   C36 6241   6.471   3.841   1.317  0.0609  0.0452 -0.2462
   15CHTO   O25 6242   6.511   3.713   1.359  0.0964 -0.7854 -0.0021
   15CHTO   H40 6243   6.463   3.689   1.436 -1.5891 -0.9319 -1.0702
   15CHTO   O15 6244   6.245   4.188   1.102  0.4414  0.1309  0.1498
   15CHTO   C19 6245   6.262   4.318   1.171 -0.4078 -0.5463 -0.7805
   15CHTO   H47 6246   6.294   4.397   1.101  0.7303  0.1802  0.5401
   15CHTO   C20 6247   6.135   4.360   1.248 -0.3074 -0.2585 -0.8583
   15CHTO   H48 6248   6.106   4.281   1.319  0.3028 -0.3891 -0.7560
   15CHTO   O19 6249   6.029   4.364   1.154 -0.0525 -0.6797 -0.1753
   15CHTO   H35 6250   5.954   4.416   1.177 -0.6140  0.1739 -3.7330
   15CHTO   C21 6251   6.146   4.488   1.338  0.4463  0.8167 -0.6152
   15CHTO   H49 6252   6.161   4.577   1.277  0.6635  1.9154  1.0040
   15CHTO    N4 6253   6.017   4.513   1.411  0.0146  0.0404 -0.1289
   15CHTO   H41 6254   6.014   4.609   1.460 -0.9191  0.5839 -1.2391
   15CHTO   H42 6255   6.016   4.436   1.488  2.7662  0.7566  0.6667
   15CHTO   C22 6256   6.273   4.476   1.421  0.4137  0.9334  1.3839
   15CHTO   H50 6257   6.255   4.402   1.500  3.2953 -1.8826 -0.4886
   15CHTO   O14 6258   6.387   4.440   1.336 -0.1106  0.5994 -0.7266
   15CHTO   C23 6259   6.382   4.312   1.267 -0.4658 -0.5703 -0.0777
   15CHTO   H51 6260   6.375   4.230   1.340  1.5614  0.4737  1.3218
   15CHTO   C34 6261   6.507   4.298   1.184 -0.3277 -0.1297 -0.1512
   15CHTO   O23 6262   6.610   4.243   1.271 -0.1504  0.6236 -0.4071
   15CHTO   H38 6263   6.693   4.248   1.228 -0.7387 -0.0702 -1.6448
   15CHTO   O16 6264   6.302   4.597   1.486  0.3632 -0.0531  0.0388
   15CHTO   C24 6265   6.373   4.581   1.627 -0.1011  0.1035 -0.1609
   15CHTO   H52 6266   6.390   4.477   1.655  0.1386  0.9733  3.1815
   15CHTO   C26 6267   6.275   4.633   1.733 -0.1748 -0.3095  0.2909
   15CHTO   H54 6268   6.246   4.734   1.697 -0.7796 -0.2062  1.0546
   15CHTO   O20 6269   6.153   4.555   1.729 -0.1223 -0.2664 -1.0373
   15CHTO   H36 6270   6.079   4.609   1.750  0.0317  0.0148 -1.1988
   15CHTO   C30 6271   6.336   4.641   1.872  0.2509 -0.1965 -0.2133
   15CHTO   H58 6272   6.339   4.540   1.917 -1.4358 -0.2094 -0.1223
   15CHTO    N6 6273   6.247   4.714   1.964  0.0580  0.1019  0.0953
   15CHTO   H45 6274   6.292   4.718   2.062  0.9757 -2.6452 -0.1795
   15CHTO   H46 6275   6.161   4.649   1.968  0.0323 -0.0837 -2.5336
   15CHTO   C33 6276   6.484   4.687   1.886 -0.5180 -0.1349 -0.6952
   15CHTO   H61 6277   6.501   4.796   1.888  0.4084 -0.2861  0.7136
   15CHTO   O18 6278   6.550   4.632   1.771  0.0428  0.4849 -0.7372
   15CHTO   C28 6279   6.507   4.655   1.640 -0.5089  0.0048  0.1229
   15CHTO   H56 6280   6.487   4.761   1.626 -2.7017 -0.1241  2.0466
   15CHTO   C35 6281   6.613   4.594   1.548  0.2421 -0.6254 -0.3306
   15CHTO   O24 6282   6.579   4.629   1.414  0.8549 -0.1132  0.4376
   15CHTO   H39 6283   6.554   4.547   1.375  1.1738  1.2311 -2.7693
   15CHTO    O9 6284   6.541   4.643   2.011 -0.1032 -0.5745  0.0309
   15CHTO   C13 6285   6.684   4.703   2.054 -0.4944 -0.2059  0.1152
   15CHTO   H26 6286   6.685   4.813   2.039  0.5193  0.4850  4.5056
   15CHTO   C11 6287   6.796   4.626   1.971 -0.2510 -0.2497 -0.2559
   15CHTO   H24 6288   6.785   4.653   1.865 -1.5841  0.6028  0.0815
   15CHTO    O8 6289   6.755   4.487   1.980  0.1199 -0.3030 -0.4439
   15CHTO    H3 6290   6.822   4.422   1.983 -1.2256 -1.6465  2.6332
   15CHTO    C9 6291   6.939   4.665   2.031  0.7318 -0.6936 -0.5114
   15CHTO   H22 6292   6.954   4.773   2.017  0.4097 -0.5654  0.1505
   15CHTO    N2 6293   7.049   4.612   1.941  0.1407 -0.3617 -0.5123
   15CHTO   H10 6294   7.103   4.694   1.896 -0.2758  1.1437  1.6522
   15CHTO   H11 6295   7.119   4.535   1.971  0.6286 -0.4398 -1.8187
   15CHTO    C7 6296   6.941   4.640   2.179 -0.8894 -0.0768  0.5709
   15CHTO   H20 6297   7.038   4.679   2.217 -0.2239 -2.2622  1.2068
   15CHTO    O4 6298   6.838   4.704   2.256 -0.3098 -0.6204  0.0165
   15CHTO   C14 6299   6.707   4.693   2.212  0.3263 -0.0991 -0.7588
   15CHTO   H27 6300   6.656   4.779   2.259  1.6904 -1.3807  3.2685
   15CHTO   C18 6301   6.649   4.572   2.284  0.2268  0.1716 -0.6305
   15CHTO   O13 6302   6.602   4.585   2.420 -0.3246  0.1172 -0.3922
   15CHTO    H7 6303   6.600   4.502   2.464  1.6130  0.5969  0.6713
   15CHTO    O2 6304   6.941   4.468   2.224 -0.4662 -0.4462 -0.4104
   15CHTO    C1 6305   7.067   4.427   2.281 -0.0885 -0.6034  0.2783
   15CHTO   H14 6306   7.137   4.513   2.280 -1.6561  0.6934 -0.6093
   15CHTO    C2 6307   7.142   4.307   2.210  0.2109  0.1326  0.6990
   15CHTO   H15 6308   7.071   4.223   2.220  0.5094 -0.1161  0.7219
   15CHTO    O6 6309   7.164   4.330   2.067 -0.4599  0.4395 -0.1145
   15CHTO    H1 6310   7.213   4.259   2.032 -1.3939 -0.4907  0.4380
   15CHTO    C3 6311   7.285   4.277   2.286 -0.4931  0.5736 -0.2939
   15CHTO   H16 6312   7.352   4.362   2.267  1.6457 -1.0411 -0.2484
   15CHTO    N1 6313   7.348   4.152   2.233  0.0385 -0.4687 -0.0344
   15CHTO    H8 6314   7.444   4.126   2.277 -0.9795 -2.2589  1.1926
   15CHTO    H9 6315   7.352   4.157   2.125 -0.0375 -0.2055 -0.0241
   15CHTO    C4 6316   7.261   4.272   2.442 -0.3117  0.1055 -0.2746
   15CHTO   H17 6317   7.206   4.182   2.469 -0.3412  0.5825  1.2918
   15CHTO    O1 6318   7.188   4.379   2.491  0.0764 -0.1941 -0.1094
   15CHTO    C5 6319   7.054   4.392   2.427  1.1132  0.1812 -0.3671
   15CHTO   H18 6320   6.989   4.305   2.432 -1.4139  1.9928 -0.5726
   15CHTO   C16 6321   6.986   4.499   2.518 -0.1178 -0.4426 -0.0796
   15CHTO   O11 6322   7.049   4.623   2.507  0.4188  0.9095  0.4267
   15CHTO    H5 6323   7.073   4.664   2.588  0.8008  0.8284  0.3571
   15CHTO    O3 6324   7.395   4.278   2.504 -0.3097  1.0746 -0.1223
   15CHTO    C6 6325   7.399   4.227   2.640 -0.8655  0.3589  0.6089
   15CHTO   H19 6326   7.302   4.205   2.686 -0.9099  0.3370  0.5047
   15CHTO    C8 6327   7.489   4.098   2.647  0.2668 -0.3770  0.3407
   15CHTO   H21 6328   7.579   4.120   2.589 -0.6869  0.4515 -0.8576
   15CHTO    O7 6329   7.414   3.986   2.592  0.2638 -0.0139  0.1831
   15CHTO    H2 6330   7.436   3.984   2.501  1.9186  0.9176  0.5425
   15CHTO   C12 6331   7.544   4.061   2.793  0.4564  0.0454  0.0924
   15CHTO   H25 6332   7.462   4.008   2.846  0.0097 -0.8550 -1.4403
   15CHTO    N3 6333   7.652   3.954   2.796  0.0012 -1.0037  0.2697
   15CHTO   H12 6334   7.616   3.869   2.739 -2.3117  0.1708 -0.0821
   15CHTO   H13 6335   7.666   3.935   2.902 -0.3158  0.3456  0.5673
   15CHTO   C15 6336   7.588   4.191   2.871  0.0166  0.8359 -0.0271
   15CHTO   H28 6337   7.680   4.230   2.827  0.6509 -0.2333  0.3462
   15CHTO   O10 6338   7.589   4.150   3.018  0.4471 -0.2896 -0.8085
   15CHTO    H4 6339   7.664   4.096   3.035  0.2581 -0.2116  0.3539
   15CHTO    O5 6340   7.487   4.293   2.859 -0.1687 -0.3296 -0.7979
   15CHTO   C10 6341   7.457   4.339   2.728  0.3435  0.0415  0.3635
   15CHTO   H23 6342   7.543   4.389   2.684 -0.6622  1.3587 -0.1501
   15CHTO   C17 6343   7.364   4.458   2.754  0.8624 -0.4614  0.2134
   15CHTO   O12 6344   7.241   4.419   2.811 -0.5666 -0.4990 -0.4230
   15CHTO    H6 6345   7.186   4.494   2.801 -1.1258 -0.7859  0.4156
   16CHTO  H203 6346   5.763   4.389   1.415  0.1105  0.1693  1.0285
   16CHTO   O82 6347   5.724   4.310   1.447  0.1886 -0.2697  0.0739
   16CHTO  C123 6348   5.784   4.260   1.562 -0.3201 -0.3578 -0.4119
   16CHTO  H227 6349   5.719   4.179   1.601  0.3469 -1.7551 -2.1219
   16CHTO   O77 6350   5.913   4.214   1.520  0.1473  0.4119 -0.1024
   16CHTO  C118 6351   5.986   4.141   1.611  0.4520 -0.1169  0.2293
   16CHTO  H222 6352   5.921   4.059   1.646 -0.7888  2.3346  3.9058
   16CHTO  C125 6353   6.107   4.079   1.539 -0.3964  0.2644  0.0447
   16CHTO   O84 6354   6.174   3.979   1.610  0.0185 -0.6217  0.1146
   16CHTO  H205 6355   6.228   4.020   1.674  0.0734 -3.4408  1.9129
   16CHTO  C114 6356   6.026   4.236   1.726  0.2163  0.1794  0.1918
   16CHTO  H218 6357   6.079   4.321   1.683  0.2792  0.1195  0.1519
   16CHTO  C116 6358   5.896   4.306   1.783 -0.0769  0.5916  0.0831
   16CHTO  H220 6359   5.847   4.229   1.846  1.3419  0.1411  0.6518
   16CHTO   O79 6360   5.939   4.408   1.881 -0.1053 -0.0136  0.0906
   16CHTO  H201 6361   5.862   4.445   1.920 -0.6650  1.2338 -2.1048
   16CHTO  C120 6362   5.803   4.360   1.673  0.1659 -0.8318 -0.4631
   16CHTO  H224 6363   5.856   4.443   1.623  2.5809 -1.6854  0.5993
   16CHTO   N21 6364   5.675   4.411   1.732  0.5169 -0.7374  0.6544
   16CHTO  H211 6365   5.605   4.328   1.729  0.3734 -0.6322  1.1494
   16CHTO  H212 6366   5.633   4.490   1.672 -0.3914 -1.9616 -0.3559
   16CHTO   O75 6367   6.107   4.165   1.824 -0.0069  0.0906 -0.0112
   16CHTO  C112 6368   6.272   4.219   1.837  0.0934 -0.0747 -0.5123
   16CHTO  H216 6369   6.276   4.325   1.808  0.8543 -0.6327 -2.5607
   16CHTO   O73 6370   6.353   4.137   1.746  0.4623 -0.0231 -0.1890
   16CHTO  C113 6371   6.491   4.175   1.746  0.5237  0.4995 -0.1624
   16CHTO  H217 6372   6.501   4.282   1.718  2.2175 -0.0139 -1.6278
   16CHTO  C124 6373   6.576   4.099   1.629 -0.2323 -0.6924 -0.0688
   16CHTO   O83 6374   6.523   4.096   1.499  0.0275  0.3218 -0.0647
   16CHTO  H204 6375   6.588   4.049   1.450 -0.8397  0.5169 -1.4444
   16CHTO  C109 6376   6.556   4.149   1.885  0.5735 -0.4753  0.0882
   16CHTO  H213 6377   6.535   4.043   1.905  0.4865 -0.6197 -0.7662
   16CHTO  C110 6378   6.483   4.252   1.977  0.4198  0.5062 -0.1107
   16CHTO  H214 6379   6.497   4.354   1.940 -0.4172  0.3452 -0.8841
   16CHTO   O78 6380   6.533   4.253   2.113 -0.2773 -0.6166 -0.0214
   16CHTO  H200 6381   6.625   4.270   2.103  0.1139 -3.6583 -2.1915
   16CHTO  C111 6382   6.328   4.210   1.982  0.4183 -0.0920  0.5387
   16CHTO  H215 6383   6.319   4.105   2.014  0.3570 -0.0546  0.6475
   16CHTO   N19 6384   6.237   4.291   2.079  0.0465  0.5556  0.3454
   16CHTO  H207 6385   6.133   4.262   2.073 -0.6388  2.4350  2.6244
   16CHTO  H208 6386   6.257   4.397   2.083  0.0074  0.5109  1.8560
   16CHTO   O74 6387   6.699   4.166   1.887  0.5394  0.2557  0.4682
   16CHTO  C115 6388   6.783   4.026   1.942 -0.1801 -0.9865 -0.2594
   16CHTO  H219 6389   6.717   3.954   1.991  0.0620  0.5798  2.4859
   16CHTO   O76 6390   6.853   3.943   1.816  0.9206  0.7554  0.2971
   16CHTO  C122 6391   6.992   3.963   1.807  0.1079 -0.5114 -0.0560
   16CHTO  H226 6392   7.010   4.063   1.767 -2.5157 -0.2219 -0.5891
   16CHTO  C126 6393   7.037   3.869   1.702  0.0877 -0.3588 -0.3361
   16CHTO   O85 6394   6.983   3.906   1.574 -0.1720 -0.0763 -0.0784
   16CHTO  H206 6395   6.890   3.916   1.572 -0.4361 -2.2790 -0.4520
   16CHTO  C121 6396   7.083   3.949   1.938 -0.5123  0.3916 -0.7065
   16CHTO  H225 6397   7.138   3.852   1.942  0.3273  0.9151  1.4425
   16CHTO   O81 6398   7.181   4.052   1.950  0.3124 -0.6052  0.0097
   16CHTO  H202 6399   7.242   4.030   2.018  1.2417 -0.3897 -0.7454
   16CHTO  C119 6400   6.992   3.954   2.065  0.5791 -0.4129  0.1674
   16CHTO  H223 6401   6.936   3.861   2.062  0.3633 -0.2996  0.6123
   16CHTO  C117 6402   6.894   4.076   2.057  0.0372  0.0623  0.2058
   16CHTO  H221 6403   6.931   4.174   2.026  0.0138  0.3333  1.0131
   16CHTO   N20 6404   6.824   4.099   2.185 -0.5518 -0.1986  0.1037
   16CHTO  H209 6405   6.762   4.185   2.165 -1.0318 -0.6465 -0.3573
   16CHTO  H210 6406   6.769   4.009   2.207 -0.1960 -0.0267  1.7518
   16CHTO   O80 6407   7.082   3.932   2.212  0.4757 -0.2906  0.4596
   16CHTO  C103 6408   7.106   3.806   2.256 -0.7042 -0.1927  0.1442
   16CHTO  H190 6409   7.044   3.733   2.205 -0.2134 -2.0417  2.1102
   16CHTO  C101 6410   7.257   3.752   2.244 -0.4252 -1.0348 -0.7037
   16CHTO  H188 6411   7.324   3.823   2.292 -0.5098 -1.7518  0.5137
   16CHTO   O68 6412   7.289   3.754   2.088 -0.1944 -0.5514  0.4233
   16CHTO  H168 6413   7.375   3.721   2.072 -0.1856 -1.0756  1.5549
   16CHTO   C99 6414   7.281   3.615   2.317  0.4185 -0.2371  0.2046
   16CHTO  H186 6415   7.213   3.542   2.269  1.5434 -0.6930 -0.7062
   16CHTO   N17 6416   7.422   3.568   2.294 -0.1993 -0.1919 -0.5825
   16CHTO  H174 6417   7.462   3.515   2.379 -0.6163 -1.4581 -1.1618
   16CHTO  H175 6418   7.482   3.655   2.270 -0.4351  0.0711 -0.2217
   16CHTO   C97 6419   7.235   3.624   2.466  0.1287  0.0060 -0.0130
   16CHTO  H184 6420   7.301   3.692   2.522  0.3179  0.1435 -0.4021
   16CHTO   O64 6421   7.095   3.674   2.455  0.3053  0.2560 -0.1599
   16CHTO  C104 6422   7.065   3.809   2.412  0.5744  0.1608  0.7507
   16CHTO  H191 6423   7.123   3.887   2.463  0.7269  0.9755 -0.6411
   16CHTO  C108 6424   6.918   3.833   2.444  0.4959  0.5027  0.1221
   16CHTO   O71 6425   6.878   3.811   2.581 -0.3000 -0.4790 -0.0333
   16CHTO  H171 6426   6.787   3.797   2.595 -0.2620 -0.1824  0.5079
   16CHTO   O62 6427   7.212   3.502   2.542  0.3480  0.6563  0.3351
   16CHTO   C91 6428   7.277   3.488   2.668  0.0012 -0.1662  0.3875
   16CHTO  H178 6429   7.383   3.505   2.650 -0.5848  2.5999 -0.6276
   16CHTO   C92 6430   7.263   3.349   2.729  0.8122 -0.8295 -0.1234
   16CHTO  H179 6431   7.316   3.279   2.663 -1.1580  1.0837 -3.8460
   16CHTO   O66 6432   7.335   3.337   2.852  0.0880  0.5909 -0.3402
   16CHTO  H166 6433   7.426   3.336   2.827 -0.2587 -0.0472 -1.6342
   16CHTO   C93 6434   7.112   3.315   2.769  0.5513 -0.0694 -0.2333
   16CHTO  H180 6435   7.119   3.230   2.838  1.4500 -0.4499 -0.7742
   16CHTO   N16 6436   7.031   3.271   2.660  0.5327 -0.4404  0.0860
   16CHTO  H172 6437   6.961   3.347   2.627  0.3037 -0.5833  0.2392
   16CHTO  H173 6438   6.974   3.185   2.692  2.0562 -1.7565 -0.6921
   16CHTO   C94 6439   7.036   3.442   2.841 -0.4345 -0.1615 -0.1258
   16CHTO  H181 6440   6.976   3.502   2.772 -1.6155  1.9767  2.6941
   16CHTO   O61 6441   7.145   3.534   2.881 -0.3437  0.3993  0.1275
   16CHTO   C95 6442   7.227   3.589   2.779  0.0670 -0.3677 -0.6932
   16CHTO  H182 6443   7.176   3.674   2.733  0.6443 -0.2040 -1.0387
   16CHTO  C106 6444   7.346   3.656   2.849 -0.3312  0.0095 -0.1376
   16CHTO   O69 6445   7.430   3.726   2.755  0.2650 -0.3039  0.0739
   16CHTO  H169 6446   7.386   3.805   2.731 -0.0145 -1.0504 -2.0057
   16CHTO   O63 6447   6.956   3.399   2.967 -0.3925  0.3401 -0.5033
   16CHTO   C96 6448   6.811   3.341   2.951  0.2530  1.1482 -0.4293
   16CHTO  H183 6449   6.824   3.254   2.887  0.7976  1.4246 -0.6975
   16CHTO   C98 6450   6.696   3.429   2.903 -0.1460 -0.9218 -1.0258
   16CHTO  H185 6451   6.727   3.475   2.808 -0.4417  0.7846 -0.3072
   16CHTO   O67 6452   6.587   3.343   2.878  0.0098  0.8309 -0.3571
   16CHTO  H167 6453   6.609   3.287   2.806  3.3660 -1.5342  2.2726
   16CHTO  C102 6454   6.643   3.539   3.009  0.1890  0.1623  0.0130
   16CHTO  H189 6455   6.549   3.576   2.965  1.1015  0.7823 -1.4539
   16CHTO   N18 6456   6.729   3.657   3.024 -0.4944 -0.1961  1.2088
   16CHTO  H176 6457   6.725   3.708   3.120 -1.1366  0.6710  0.7270
   16CHTO  H177 6458   6.826   3.635   2.981 -0.8485  2.1504 -0.8585
   16CHTO  C105 6459   6.607   3.475   3.149 -0.2466 -0.1103  0.4074
   16CHTO  H192 6460   6.657   3.513   3.238 -1.4969 -0.7241  1.3751
   16CHTO   O65 6461   6.653   3.338   3.157  0.3014  0.2115  0.1013
   16CHTO  C100 6462   6.776   3.297   3.100 -0.3332  0.7041 -0.4676
   16CHTO  H187 6463   6.849   3.341   3.169 -1.4167 -0.5744  1.5562
   16CHTO  C107 6464   6.793   3.140   3.111  0.2792 -0.8643  0.4125
   16CHTO   O70 6465   6.699   3.056   3.044  0.3399  0.4338  0.1642
   16CHTO  H170 6466   6.640   3.102   2.987 -0.2513 -1.1583 -0.5450
   16CHTO   O57 6467   6.438   3.494   3.160  0.1810 -0.1015  0.6606
   16CHTO   C85 6468   6.373   3.623   3.160 -0.0508 -0.1618 -0.8676
   16CHTO  H157 6469   6.398   3.668   3.062 -0.8927  0.8608 -0.6325
   16CHTO   C83 6470   6.450   3.721   3.261 -0.6821  0.1322  0.0089
   16CHTO  H155 6471   6.554   3.724   3.228 -0.1873 -2.0288  1.2885
   16CHTO   O56 6472   6.445   3.668   3.397 -0.2813 -0.1711  0.3138
   16CHTO  H135 6473   6.362   3.662   3.441  0.2118 -3.2348  0.9586
   16CHTO   C81 6474   6.386   3.859   3.241  0.3975 -0.2983  0.6367
   16CHTO  H153 6475   6.383   3.883   3.135 -0.1351  1.0064  0.9450
   16CHTO   N14 6476   6.455   3.970   3.310  0.4345 -0.4968 -0.1281
   16CHTO  H141 6477   6.444   3.955   3.416  0.0095  0.5553 -0.0172
   16CHTO  H142 6478   6.409   4.063   3.283  1.4981 -0.2015 -0.9472
   16CHTO   C79 6479   6.237   3.855   3.277  0.6899  0.0198  0.0387
   16CHTO  H151 6480   6.199   3.956   3.262 -0.6193 -0.5025 -0.2449
   16CHTO   O52 6481   6.171   3.771   3.183 -0.7003 -0.0667 -0.0078
   16CHTO   C86 6482   6.222   3.631   3.194 -0.6249 -0.3270  0.3167
   16CHTO  H158 6483   6.198   3.602   3.298 -0.9333 -0.4222  0.2198
   16CHTO   C90 6484   6.142   3.535   3.097 -0.3983  0.0539 -0.6086
   16CHTO   O60 6485   6.001   3.552   3.097  0.4039 -0.1483  0.3112
   16CHTO  H138 6486   5.970   3.530   3.182 -0.5746 -1.0670 -0.2560
   16CHTO   O50 6487   6.195   3.811   3.407 -0.2450 -0.4385 -0.0390
   16CHTO   C73 6488   6.093   3.802   3.505  0.1674 -0.1798 -0.1499
   16CHTO  H145 6489   6.133   3.742   3.588  1.2392  3.3418  1.9586
   16CHTO   C74 6490   5.963   3.732   3.439  0.2182  0.1099  0.4095
   16CHTO  H146 6491   5.997   3.645   3.380  2.7918  2.1525 -1.2863
   16CHTO   O54 6492   5.890   3.680   3.551  0.2913 -0.3273 -0.3265
   16CHTO  H133 6493   5.832   3.743   3.589  0.8737  0.3411 -0.5291
   16CHTO   C75 6494   5.878   3.831   3.350 -0.1544  0.8010 -0.8340
   16CHTO  H147 6495   5.939   3.866   3.266 -0.6492  0.3080 -1.4090
   16CHTO   N13 6496   5.761   3.764   3.292 -0.1833  0.1850 -0.3681
   16CHTO  H139 6497   5.702   3.732   3.377  2.4128 -4.5594 -0.1778
   16CHTO  H140 6498   5.799   3.672   3.251 -0.2255  0.7175 -1.6424
   16CHTO   C76 6499   5.847   3.955   3.433 -0.3754 -0.4914  0.0315
   16CHTO  H148 6500   5.780   3.917   3.511 -1.7008  0.0355 -0.8356
   16CHTO   O49 6501   5.964   4.027   3.478  0.3868 -0.0477 -0.3814
   16CHTO   C77 6502   6.047   3.943   3.561 -0.1454 -0.4668 -0.5631
   16CHTO  H149 6503   5.988   3.923   3.651 -0.4157  0.2218 -0.5849
   16CHTO   C88 6504   6.166   4.022   3.618  0.8866  0.0020 -0.2880
   16CHTO   O58 6505   6.111   4.126   3.699  0.0614 -0.2647  0.4171
   16CHTO  H136 6506   6.185   4.160   3.745  3.2207  0.1343 -4.5528
   16CHTO   O51 6507   5.759   4.064   3.373  0.3417  0.6757 -0.2024
   16CHTO   C78 6508   5.689   4.186   3.472  0.3280 -0.1724  0.6054
   16CHTO  H150 6509   5.747   4.281   3.475  0.8917 -0.4971  0.1909
   16CHTO   C80 6510   5.654   4.141   3.620  0.6403 -0.7312 -0.9970
   16CHTO  H152 6511   5.593   4.049   3.617  1.3248 -1.1847 -1.0055
   16CHTO   O55 6512   5.776   4.110   3.691 -0.1156 -0.4127  0.1549
   16CHTO  H134 6513   5.850   4.129   3.637 -0.7424 -0.6955 -0.8032
   16CHTO   C84 6514   5.576   4.256   3.699  0.5519  0.2422  0.5862
   16CHTO  H156 6515   5.648   4.333   3.729 -0.3797  1.0276  0.8470
   16CHTO   N15 6516   5.515   4.211   3.828 -0.6170  0.2924 -0.5239
   16CHTO  H143 6517   5.532   4.106   3.829  2.7190  0.7951 -0.2807
   16CHTO  H144 6518   5.413   4.240   3.844 -1.9925 -3.7538 -1.3892
   16CHTO   C87 6519   5.469   4.336   3.611  0.0692 -0.1601 -0.2121
   16CHTO  H159 6520   5.375   4.281   3.627 -0.6913  1.9703  3.0117
   16CHTO   O53 6521   5.508   4.354   3.456 -0.4858  0.5392  0.3508
   16CHTO   C82 6522   5.564   4.236   3.394 -0.5204  0.0542  0.7000
   16CHTO  H154 6523   5.487   4.160   3.380  0.3181 -0.2450 -2.8460
   16CHTO   C89 6524   5.600   4.283   3.246  0.5248 -0.3187  0.1218
   16CHTO   O59 6525   5.705   4.378   3.231 -0.3404  0.4363 -0.6719
   16CHTO  H137 6526   5.669   4.457   3.268 -1.3324 -0.9424  1.4228
   16CHTO   O45 6527   5.436   4.488   3.685  0.0439  0.0333  0.0769
   16CHTO   C67 6528   5.534   4.590   3.652 -0.7342  0.6849 -0.3245
   16CHTO  H124 6529   5.616   4.537   3.602 -1.8787 -0.2341 -1.2467
   16CHTO   C65 6530   5.480   4.693   3.545  0.3804  0.6186 -0.3139
   16CHTO  H122 6531   5.379   4.715   3.580  0.4845 -0.0388  0.4132
   16CHTO   O44 6532   5.480   4.619   3.419 -0.7489 -0.1582  0.0182
   16CHTO  H102 6533   5.465   4.680   3.348 -1.9386 -0.3111  0.1316
   16CHTO   C63 6534   5.555   4.838   3.547  0.3764 -0.0971 -0.6980
   16CHTO  H120 6535   5.502   4.904   3.616  0.7138  0.1735 -0.6988
   16CHTO   N11 6536   5.558   4.916   3.423  0.1291 -0.3685 -0.3233
   16CHTO  H108 6537   5.523   5.017   3.434  1.0949  0.1146 -1.4598
   16CHTO  H109 6538   5.523   4.862   3.338 -4.3709  0.7219  0.6974
   16CHTO   C61 6539   5.707   4.817   3.603  0.2536 -0.0416 -0.3577
   16CHTO  H118 6540   5.747   4.919   3.614 -1.8483  0.6964  0.6423
   16CHTO   O40 6541   5.698   4.758   3.736  0.4116  0.8200  0.0713
   16CHTO   C68 6542   5.592   4.667   3.770 -0.0891  0.8827  0.4036
   16CHTO  H125 6543   5.497   4.711   3.808  1.1204  1.2803  3.0547
   16CHTO   C72 6544   5.655   4.573   3.878  0.3678  0.1922 -0.0699
   16CHTO   O48 6545   5.687   4.633   4.008  0.7361 -0.0508  0.1320
   16CHTO  H105 6546   5.751   4.579   4.050  1.1968 -0.5282 -1.1310
   16CHTO   O38 6547   5.785   4.732   3.515  0.2341  0.9829 -0.5917
   16CHTO   C55 6548   5.928   4.749   3.501  1.0240 -0.6444  0.1889
   16CHTO  H112 6549   5.965   4.777   3.600  2.4621 -0.8477 -0.2752
   16CHTO   C56 6550   5.969   4.855   3.391  0.2832  0.2321  0.5413
   16CHTO  H113 6551   5.923   4.825   3.296 -0.1664  2.1976  0.1195
   16CHTO   O42 6552   5.917   4.986   3.417  0.0448  0.1319  0.1822
   16CHTO  H100 6553   5.828   4.991   3.386 -0.2723  0.7006  1.1307
   16CHTO   C57 6554   6.126   4.860   3.383 -0.2272  0.3893 -0.3981
   16CHTO  H114 6555   6.163   4.880   3.483  1.5547 -2.3088 -0.4685
   16CHTO   N10 6556   6.173   4.964   3.284  0.3207 -0.3321 -0.0214
   16CHTO  H106 6557   6.161   5.062   3.328  1.1313 -0.6980  1.0109
   16CHTO  H107 6558   6.118   4.961   3.190  2.9682 -0.9197 -1.5906
   16CHTO   C58 6559   6.168   4.719   3.341  0.5150  0.6803 -0.8659
   16CHTO  H115 6560   6.120   4.693   3.244 -0.8295  2.0913 -0.5901
   16CHTO   O37 6561   6.135   4.622   3.444  0.5083  0.3452  0.2008
   16CHTO   C59 6562   5.995   4.606   3.466  0.4105 -0.0114 -0.0255
   16CHTO  H116 6563   5.947   4.555   3.382  1.3060 -1.0529  0.0762
   16CHTO   C70 6564   5.965   4.508   3.585 -1.3246 -0.2569 -0.6455
   16CHTO   O46 6565   6.035   4.550   3.698  0.2235  0.4772  0.3029
   16CHTO  H103 6566   5.979   4.614   3.737  1.3923  0.5865  1.8756
   16CHTO   O39 6567   6.325   4.711   3.337  0.1860 -0.0687  0.8082
   16CHTO   C60 6568   6.379   4.637   3.220  0.3527 -0.4544 -0.0522
   16CHTO  H117 6569   6.296   4.590   3.168 -1.2592  0.6039  1.4824
   16CHTO   C62 6570   6.442   4.735   3.121 -0.1817 -0.0162 -0.4170
   16CHTO  H119 6571   6.351   4.794   3.096  0.3889 -0.1963 -3.0076
   16CHTO   O43 6572   6.556   4.796   3.193 -0.1970 -0.0772  0.1872
   16CHTO  H101 6573   6.606   4.860   3.145 -1.0025 -0.7682 -1.6274
   16CHTO   C66 6574   6.492   4.658   2.988  0.3823 -0.3240  0.3793
   16CHTO  H123 6575   6.411   4.598   2.947  1.8344 -1.4582 -0.8967
   16CHTO   N12 6576   6.538   4.758   2.886  0.4845  0.4846  0.2118
   16CHTO  H110 6577   6.582   4.707   2.801  2.0852 -3.7424  3.4027
   16CHTO  H111 6578   6.455   4.818   2.850 -0.9954 -2.0775 -0.7387
   16CHTO   C69 6579   6.602   4.552   3.024  0.0906  0.0492  0.0217
   16CHTO  H126 6580   6.688   4.607   3.067  1.3021 -1.4335 -0.4693
   16CHTO   O41 6581   6.544   4.461   3.130  0.3329  0.1471  0.2500
   16CHTO   C64 6582   6.476   4.523   3.265 -0.1253 -1.0825  0.1499
   16CHTO  H121 6583   6.551   4.573   3.330 -0.2494  0.9424 -1.2234
   16CHTO   C71 6584   6.401   4.407   3.333 -0.4846  0.0971  0.4445
   16CHTO   O47 6585   6.312   4.338   3.241 -0.1708  0.9875  0.4934
   16CHTO  H104 6586   6.269   4.399   3.183 -0.1734  0.2346 -0.2993
   16CHTO   O34 6587   6.642   4.477   2.924  0.3235  0.6604 -0.1293
   16CHTO   C49 6588   6.789   4.404   2.904 -0.1134  0.1410  0.9804
   16CHTO   H91 6589   6.845   4.480   2.851 -0.0184  0.3442  1.3732
   16CHTO   C47 6590   6.760   4.271   2.826  0.2132  0.2235 -0.4740
   16CHTO   H89 6591   6.858   4.228   2.796 -0.4177 -2.6153  1.3618
   16CHTO   O33 6592   6.680   4.289   2.709  0.3609 -0.0631  0.5283
   16CHTO   H70 6593   6.732   4.317   2.636  0.5552 -1.0660  0.2756
   16CHTO   C45 6594   6.685   4.160   2.918  0.1944 -0.2268  0.5616
   16CHTO   H87 6595   6.586   4.203   2.935 -0.6451 -1.2143 -1.5918
   16CHTO    N8 6596   6.670   4.029   2.851 -0.3677  0.1741 -0.1819
   16CHTO   H75 6597   6.599   4.033   2.770 -0.5409  0.2245 -0.0274
   16CHTO   H76 6598   6.766   3.989   2.824  0.7179  0.4276  3.0256
   16CHTO   C43 6599   6.757   4.137   3.062 -0.0151 -0.4960 -0.8147
   16CHTO   H85 6600   6.685   4.081   3.123 -1.3143  4.2419  2.2568
   16CHTO   O29 6601   6.785   4.273   3.113 -0.1742  0.2540  0.0999
   16CHTO   C50 6602   6.857   4.362   3.032  0.5463  0.3348 -0.5000
   16CHTO   H92 6603   6.861   4.460   3.082  0.0107 -0.2970  0.7781
   16CHTO   C54 6604   7.012   4.337   3.006  0.5324  0.5521  0.0291
   16CHTO   O36 6605   7.091   4.353   3.122  0.0463 -0.8859 -0.1736
   16CHTO   H72 6606   7.112   4.443   3.136 -1.2663 -0.1729 -2.6179
   16CHTO   O27 6607   6.874   4.052   3.067 -0.3047 -0.3112 -0.5918
   16CHTO   C37 6608   6.963   3.984   3.153 -0.4233  0.3707  0.3240
   16CHTO   H79 6609   7.031   4.057   3.200  0.4858 -1.1462  1.4146
   16CHTO   C38 6610   6.885   3.922   3.273 -0.9117 -0.3508  0.3401
   16CHTO   H80 6611   6.791   3.880   3.234  0.3237  1.5818 -5.1338
   16CHTO   O31 6612   6.845   4.035   3.358 -0.2159 -0.4980  0.4118
   16CHTO   H68 6613   6.891   4.033   3.439  2.1562 -0.4063 -0.9035
   16CHTO   C39 6614   6.971   3.808   3.354 -0.0571 -0.1053 -0.2124
   16CHTO   H81 6615   7.039   3.862   3.420  1.3056 -1.5984 -0.3593
   16CHTO    N7 6616   6.885   3.729   3.455  0.1342  0.0372  0.2552
   16CHTO   H73 6617   6.803   3.679   3.404  0.8734  0.3265 -1.2212
   16CHTO   H74 6618   6.951   3.664   3.510  0.3402  1.2665  1.4732
   16CHTO   C40 6619   7.057   3.717   3.264 -0.1135  0.9712 -0.2185
   16CHTO   H82 6620   6.989   3.649   3.214  1.1049 -0.0141 -0.5845
   16CHTO   O26 6621   7.132   3.796   3.168 -0.0838 -0.4424  0.0418
   16CHTO   C41 6622   7.053   3.888   3.080 -0.3972  0.7898 -0.0173
   16CHTO   H83 6623   6.992   3.823   3.015 -0.6490 -1.9819  2.8824
   16CHTO   C52 6624   7.159   3.958   2.983 -0.0032 -0.1264 -0.5718
   16CHTO   O35 6625   7.265   4.016   3.037 -0.4778  0.5820 -0.3236
   16CHTO   H71 6626   7.248   4.107   3.055  0.5530  0.9676 -1.1916
   16CHTO   O28 6627   7.168   3.660   3.334 -0.9081  0.1320 -0.0843
   16CHTO   C42 6628   7.201   3.520   3.359  0.2482 -0.6974 -0.0363
   16CHTO   H84 6629   7.306   3.531   3.383  0.3081  1.4915 -1.1558
   16CHTO   C44 6630   7.194   3.423   3.235  0.6653 -0.3911  0.0583
   16CHTO   H86 6631   7.091   3.426   3.200 -0.4142 -1.4912  2.9535
   16CHTO   O32 6632   7.278   3.480   3.130  0.2847 -0.6475 -0.1275
   16CHTO   H69 6633   7.229   3.545   3.084 -2.5532 -0.9151  2.4137
   16CHTO   C48 6634   7.229   3.275   3.276 -0.1943  0.5641 -0.3901
   16CHTO   H90 6635   7.334   3.273   3.303 -0.3947  3.0740  0.7501
   16CHTO    N9 6636   7.201   3.179   3.165  0.2317  0.5405  0.2870
   16CHTO   H77 6637   7.202   3.078   3.206 -0.0732  0.3645 -0.1407
   16CHTO   H78 6638   7.268   3.191   3.082  1.0625 -2.9286  0.3441
   16CHTO   C51 6639   7.156   3.229   3.406  0.0080  0.0005  0.3076
   16CHTO   H93 6640   7.051   3.224   3.378  0.4120 -2.8379 -0.8254
   16CHTO   O30 6641   7.178   3.321   3.507 -0.5696 -0.5726 -0.5979
   16CHTO   C46 6642   7.128   3.457   3.488 -0.3200  0.1460  0.1359
   16CHTO   H88 6643   7.021   3.461   3.468 -0.1390  0.4830 -0.7910
   16CHTO   C53 6644   7.161   3.536   3.612  0.5165  0.1646  0.4586
   16CHTO   O72 6645   7.093   3.495   3.735  0.4068  0.8517  0.0050
   16CHTO  H199 6646   7.133   3.413   3.757  2.5056  1.9224  0.2747
   16CHTO   O22 6647   7.199   3.102   3.452  0.5005  0.0914  0.1030
   16CHTO   C31 6648   7.132   3.036   3.569  0.2257  0.2673 -0.6829
   16CHTO   H59 6649   7.187   2.942   3.590  2.6522  1.2568 -2.3916
   16CHTO   C29 6650   7.125   3.111   3.698 -0.6004  0.0340 -0.1189
   16CHTO   H57 6651   7.061   3.199   3.682  0.2974  0.9760  1.3762
   16CHTO   O21 6652   7.260   3.155   3.725 -0.1824  0.3632  0.1314
   16CHTO   H37 6653   7.257   3.217   3.796 -1.4250  2.7485 -1.9589
   16CHTO   C27 6654   7.067   3.031   3.819  0.3129  0.6067  0.1458
   16CHTO   H55 6655   7.131   2.942   3.834 -1.1529 -1.0125 -2.7056
   16CHTO    N5 6656   7.059   3.108   3.945  0.0852 -0.0679  0.5670
   16CHTO   H43 6657   7.158   3.146   3.966 -0.3173 -0.1646  2.8026
   16CHTO   H44 6658   7.041   3.038   4.026  0.3464  0.4547  1.0759
   16CHTO   C25 6659   6.926   2.968   3.774 -0.3275  0.9844 -0.5445
   16CHTO   H53 6660   6.860   3.055   3.764 -1.8928 -0.1557 -0.2025
   16CHTO   O17 6661   6.935   2.908   3.642 -0.3568 -0.2344 -0.2298
   16CHTO   C32 6662   6.985   2.988   3.534  0.4002 -0.0641 -0.4131
   16CHTO   H60 6663   6.926   3.080   3.533  0.6124  0.0559 -1.7497
   16CHTO   C36 6664   6.998   2.901   3.413  0.1817  0.4892 -0.2188
   16CHTO   O25 6665   6.872   2.848   3.369  0.2804 -0.0863  0.1764
   16CHTO   H40 6666   6.810   2.918   3.376  0.0554 -0.2513 -0.1353
   16CHTO   O15 6667   6.877   2.860   3.882  0.2080  0.5287 -0.1941
   16CHTO   C19 6668   6.750   2.882   3.949 -0.7813  0.4023  0.7965
   16CHTO   H47 6669   6.745   2.991   3.959  1.4292  0.8233 -2.1038
   16CHTO   C20 6670   6.628   2.824   3.873  0.3422 -0.2656 -0.1880
   16CHTO   H48 6671   6.644   2.721   3.836  0.4638  0.3897 -2.0068
   16CHTO   O19 6672   6.614   2.909   3.756 -0.2272  0.8207 -0.5588
   16CHTO   H35 6673   6.659   2.991   3.762 -1.0189  1.3244 -1.3633
   16CHTO   C21 6674   6.492   2.822   3.954  0.6874 -0.5593 -0.2769
   16CHTO   H49 6675   6.450   2.922   3.955 -0.7484 -1.1403 -0.7363
   16CHTO    N4 6676   6.380   2.743   3.883 -0.7148  0.6094 -0.2010
   16CHTO   H41 6677   6.308   2.711   3.957  0.5673 -1.5025  0.1797
   16CHTO   H42 6678   6.422   2.654   3.838  0.1804  2.3660 -2.9555
   16CHTO   C22 6679   6.522   2.770   4.096  0.3908  0.3467 -0.5788
   16CHTO   H50 6680   6.555   2.667   4.082 -4.0668 -1.1403 -0.7076
   16CHTO   O14 6681   6.625   2.845   4.158  0.0944 -0.8950 -1.2607
   16CHTO   C23 6682   6.751   2.822   4.095 -0.4168 -0.1891  0.9654
   16CHTO   H51 6683   6.760   2.713   4.089 -0.4014 -0.0914 -1.8245
   16CHTO   C34 6684   6.864   2.884   4.176 -0.1611 -0.1615  0.3013
   16CHTO   O23 6685   6.892   2.792   4.282  0.4459 -0.2343 -0.0929
   16CHTO   H38 6686   6.931   2.713   4.251  0.0717 -0.2747 -0.4582
   16CHTO   O16 6687   6.419   2.771   4.196  0.4804 -0.4560  0.3171
   16CHTO   C24 6688   6.398   2.645   4.295  0.4181 -0.2162  0.1425
   16CHTO   H52 6689   6.486   2.582   4.300 -0.0606 -0.7764  1.6727
   16CHTO   C26 6690   6.279   2.561   4.243 -0.4084 -0.0651  0.3386
   16CHTO   H54 6691   6.200   2.636   4.222  1.5630  2.0138  0.0811
   16CHTO   O20 6692   6.326   2.519   4.110  0.3419 -0.1006 -0.6382
   16CHTO   H36 6693   6.274   2.451   4.074 -0.4807 -1.1471  2.4190
   16CHTO   C30 6694   6.243   2.452   4.344 -0.0390 -0.1591 -0.6747
   16CHTO   H58 6695   6.313   2.368   4.325  1.3443  0.5375  1.2168
   16CHTO    N6 6696   6.125   2.389   4.292 -0.1941  0.2878  0.1226
   16CHTO   H45 6697   6.143   2.341   4.197 -0.2783 -1.0481  0.7646
   16CHTO   H46 6698   6.088   2.311   4.357  1.3985 -0.9987 -0.4707
   16CHTO   C33 6699   6.230   2.498   4.490  0.2215  0.0897 -0.2271
   16CHTO   H61 6700   6.154   2.576   4.504  1.4005  1.3183 -0.5514
   16CHTO   O18 6701   6.355   2.558   4.517  0.5600 -0.4624 -0.4547
   16CHTO   C28 6702   6.374   2.685   4.440  0.0494 -0.7793 -0.4737
   16CHTO   H56 6703   6.287   2.749   4.446 -0.5413 -1.6079 -0.0918
   16CHTO   C35 6704   6.503   2.752   4.509 -0.0844 -0.1273 -0.8120
   16CHTO   O24 6705   6.555   2.867   4.451 -0.2546  0.2046 -0.4279
   16CHTO   H39 6706   6.490   2.921   4.409  0.1301  0.9976 -0.0137
   16CHTO    O9 6707   6.197   2.390   4.583  0.3826 -0.1778  0.3643
   16CHTO   C13 6708   6.229   2.415   4.743  0.7294  0.4219 -0.7130
   16CHTO   H26 6709   6.218   2.525   4.744 -0.0554  0.3617  2.0766
   16CHTO   C11 6710   6.375   2.370   4.777  0.1491 -0.8005 -0.5340
   16CHTO   H24 6711   6.447   2.431   4.719  2.0052 -0.8310  1.6647
   16CHTO    O8 6712   6.391   2.230   4.745  0.3168  0.3010  0.3145
   16CHTO    H3 6713   6.377   2.206   4.656 -0.1038 -1.1809  0.7613
   16CHTO    C9 6714   6.402   2.399   4.927  0.3751 -0.0161 -0.4677
   16CHTO   H22 6715   6.401   2.508   4.941  0.0877 -0.0463 -0.2552
   16CHTO    N2 6716   6.541   2.354   4.969  0.3385 -0.1431  0.5455
   16CHTO   H10 6717   6.613   2.435   4.969  1.6640 -1.3076  0.9940
   16CHTO   H11 6718   6.581   2.280   4.902 -0.8682 -0.9526  0.6985
   16CHTO    C7 6719   6.287   2.348   5.025  0.0291  0.4125  0.3967
   16CHTO   H20 6720   6.301   2.407   5.118 -0.2287 -0.2037  0.8360
   16CHTO    O4 6721   6.157   2.361   4.970 -0.3690 -0.3009  0.1242
   16CHTO   C14 6722   6.120   2.358   4.834 -0.4130  0.3232 -0.4828
   16CHTO   H27 6723   6.025   2.415   4.817 -0.2680  0.2085 -1.7527
   16CHTO   C18 6724   6.094   2.205   4.794  0.0501  0.6549 -0.0627
   16CHTO   O13 6725   5.966   2.171   4.849  0.6070 -0.3873  0.2386
   16CHTO    H7 6726   5.902   2.186   4.783  0.3545  2.0377  0.9806
   16CHTO    O2 6727   6.316   2.172   5.055  0.5020 -0.0915 -0.1841
   16CHTO    C1 6728   6.233   2.106   5.156 -0.1433  0.3915  0.1657
   16CHTO   H14 6729   6.127   2.101   5.125 -0.0391  0.5135 -0.2123
   16CHTO    C2 6730   6.240   2.177   5.302 -0.2062 -0.0068 -0.8522
   16CHTO   H15 6731   6.348   2.181   5.325 -0.1384  0.0393 -1.1867
   16CHTO    O6 6732   6.176   2.301   5.292 -0.0321 -0.1789  0.0780
   16CHTO    H1 6733   6.098   2.303   5.344  0.6540  2.4331  1.0685
   16CHTO    C3 6734   6.168   2.086   5.412 -0.1303 -0.3596 -0.1295
   16CHTO   H16 6735   6.061   2.078   5.388  0.2864 -2.8783 -1.3614
   16CHTO    N1 6736   6.189   2.140   5.555  0.7587  0.0375  0.3673
   16CHTO    H8 6737   6.118   2.215   5.586 -0.2994 -0.5041 -0.6846
   16CHTO    H9 6738   6.207   2.058   5.622 -1.8208 -1.3517 -0.5593
   16CHTO    C4 6739   6.218   1.935   5.399  0.2231 -0.5842 -0.2836
   16CHTO   H17 6740   6.324   1.925   5.425 -0.5682 -2.0714  2.5574
   16CHTO    O1 6741   6.201   1.882   5.266 -0.2472 -0.0623 -0.1867
   16CHTO    C5 6742   6.274   1.957   5.163 -0.1652 -0.3290  1.1436
   16CHTO   H18 6743   6.382   1.953   5.179  0.2179  0.2086 -1.1361
   16CHTO   C16 6744   6.237   1.886   5.030 -0.1775  0.2581 -0.2373
   16CHTO   O11 6745   6.303   1.763   5.022 -0.7106  0.0028  0.3243
   16CHTO    H5 6746   6.267   1.713   5.092  0.0743 -0.4888  0.3871
   16CHTO    O3 6747   6.143   1.845   5.482 -0.7251  0.2147  0.0627
   16CHTO    C6 6748   6.217   1.727   5.546 -0.6167  0.6003  0.1768
   16CHTO   H19 6749   6.319   1.713   5.509 -0.9016 -0.8548 -0.0834
   16CHTO    C8 6750   6.235   1.759   5.697  0.0387 -0.9960  0.1495
   16CHTO   H21 6751   6.139   1.797   5.732  0.6328 -0.5488  1.3214
   16CHTO    O7 6752   6.340   1.855   5.705 -0.0123 -0.5909  0.0347
   16CHTO    H2 6753   6.331   1.913   5.778  2.0035  0.7886 -0.7704
   16CHTO   C12 6754   6.284   1.628   5.778  0.3547  1.3187 -0.5434
   16CHTO   H25 6755   6.393   1.614   5.761 -0.1142 -2.7140 -0.7962
   16CHTO    N3 6756   6.278   1.639   5.925 -0.1020 -0.6176 -0.2591
   16CHTO   H12 6757   6.176   1.660   5.956  0.0786  1.6125 -1.0939
   16CHTO   H13 6758   6.346   1.721   5.945  0.1975 -1.2988  1.6227
   16CHTO   C15 6759   6.204   1.500   5.730 -0.4156 -0.2938  0.2105
   16CHTO   H28 6760   6.099   1.506   5.760 -0.9226  0.3667 -1.6132
   16CHTO   O10 6761   6.270   1.381   5.768  0.3256  0.5397 -0.5194
   16CHTO    H4 6762   6.362   1.377   5.752  0.4294  0.3728  0.1062
   16CHTO    O5 6763   6.205   1.488   5.583 -0.5274 -0.5996  0.2831
   16CHTO   C10 6764   6.141   1.600   5.515 -0.3036  0.0911  0.0131
   16CHTO   H23 6765   6.036   1.609   5.544 -0.5321  1.0656 -1.0604
   16CHTO   C17 6766   6.147   1.568   5.365  0.5525  0.2117  0.0136
   16CHTO   O12 6767   6.076   1.447   5.324  0.0569  0.0560  0.1359
   16CHTO    H6 6768   5.996   1.483   5.289  1.3513  1.6099 -1.3798
   17CHTO  H203 6769   6.488   4.494   5.899  0.4514  2.7652 -0.6575
   17CHTO   O82 6770   6.466   4.526   5.984 -0.4223  0.0614  0.1904
   17CHTO  C123 6771   6.407   4.659   5.966 -0.6686 -0.4503 -0.8358
   17CHTO  H227 6772   6.298   4.649   5.978 -0.7294 -0.2658 -1.2445
   17CHTO   O77 6773   6.454   4.733   6.081 -0.0911  0.1054 -0.5005
   17CHTO  C118 6774   6.401   4.867   6.105  0.5747 -0.6514  0.2809
   17CHTO  H222 6775   6.296   4.878   6.136  0.4511 -2.3794  0.5225
   17CHTO  C125 6776   6.491   4.918   6.222 -0.1902 -0.3239 -0.5808
   17CHTO   O84 6777   6.486   4.845   6.339 -0.5326  0.2705  0.0750
   17CHTO  H205 6778   6.563   4.791   6.344 -1.6819 -1.6748 -2.2400
   17CHTO  C114 6779   6.421   4.951   5.978 -0.2121  0.7700  0.3448
   17CHTO  H218 6780   6.528   4.965   5.965 -0.1100  1.3267  1.7556
   17CHTO  C116 6781   6.365   4.882   5.849 -0.0365  0.0729  0.2388
   17CHTO  H220 6782   6.256   4.866   5.863  0.1926 -0.5120  1.4723
   17CHTO   O79 6783   6.377   4.978   5.747  0.3270  0.3461 -0.3158
   17CHTO  H201 6784   6.328   4.946   5.673 -0.8745 -0.2019  0.6898
   17CHTO  C120 6785   6.435   4.744   5.832  0.1709  0.0131  0.0729
   17CHTO  H224 6786   6.545   4.763   5.823 -0.0709  1.3227 -0.3217
   17CHTO   N21 6787   6.392   4.674   5.703 -0.2277 -0.1278  0.2029
   17CHTO  H211 6788   6.370   4.740   5.620 -2.1965 -1.0894 -0.0733
   17CHTO  H212 6789   6.316   4.599   5.717 -2.1102  2.0354  2.2021
   17CHTO   O75 6790   6.355   5.072   6.008  0.0217 -0.1358 -0.1488
   17CHTO  C112 6791   6.412   5.216   5.962  0.2222  0.0123  0.1714
   17CHTO  H216 6792   6.361   5.251   5.871 -3.9550 -1.1281  1.9555
   17CHTO   O73 6793   6.551   5.209   5.943  0.1354 -0.0465 -0.1549
   17CHTO  C113 6794   6.609   5.328   5.893 -0.0559 -0.4054 -0.6283
   17CHTO  H217 6795   6.553   5.359   5.802  0.9570 -0.0805 -1.1574
   17CHTO  C124 6796   6.754   5.300   5.853  0.8355 -0.3109  0.1778
   17CHTO   O83 6797   6.815   5.406   5.780 -0.3356  0.1130  0.3023
   17CHTO  H204 6798   6.835   5.466   5.849  1.6226 -1.6342  1.3052
   17CHTO  C109 6799   6.594   5.441   5.999 -0.3049 -0.4685  0.1555
   17CHTO  H213 6800   6.655   5.411   6.085 -0.2874  0.9466  0.6481
   17CHTO  C110 6801   6.443   5.461   6.031 -0.7077  0.9780  0.6081
   17CHTO  H214 6802   6.390   5.499   5.944 -1.6028 -1.5181  0.0281
   17CHTO   O78 6803   6.433   5.561   6.130 -0.7070 -0.1809  0.0810
   17CHTO  H200 6804   6.464   5.535   6.215 -0.8243  0.9009  0.4622
   17CHTO  C111 6805   6.375   5.327   6.071 -0.2663  0.2617  0.2523
   17CHTO  H215 6806   6.417   5.290   6.166 -0.6268 -0.4213  0.1438
   17CHTO   N19 6807   6.230   5.326   6.087  0.0554  0.0075 -0.6508
   17CHTO  H207 6808   6.188   5.384   6.006  0.4556  0.3692 -0.6067
   17CHTO  H208 6809   6.204   5.368   6.183  1.9070 -0.4188  0.0580
   17CHTO   O74 6810   6.649   5.570   5.948  0.4315  0.2945  0.0419
   17CHTO  C115 6811   6.726   5.655   6.069 -0.4853  0.3785 -0.5054
   17CHTO  H219 6812   6.728   5.599   6.162  0.3608  0.0811 -0.6975
   17CHTO   O76 6813   6.896   5.670   6.033  0.2048  0.4638  0.2231
   17CHTO  C122 6814   6.909   5.742   5.905  0.1660  0.0498 -0.1216
   17CHTO  H226 6815   6.885   5.673   5.824  0.4759 -1.0787  0.7347
   17CHTO  C126 6816   7.059   5.779   5.878  0.2221  0.4796  0.2980
   17CHTO   O85 6817   7.135   5.668   5.859 -0.5276  0.5150 -0.2955
   17CHTO  H206 6818   7.214   5.691   5.814 -1.2904  0.2249 -1.8386
   17CHTO  C121 6819   6.819   5.869   5.893  0.1714  0.1190  0.0896
   17CHTO  H225 6820   6.879   5.955   5.858 -0.8805  1.3127  1.1753
   17CHTO   O81 6821   6.714   5.843   5.797  0.1154 -0.2843 -0.2976
   17CHTO  H202 6822   6.655   5.785   5.840 -0.9224  0.5183 -0.6173
   17CHTO  C119 6823   6.763   5.909   6.029  0.3812  0.0980  0.1219
   17CHTO  H223 6824   6.853   5.919   6.090 -0.4227 -2.3174  1.7755
   17CHTO  C117 6825   6.666   5.797   6.091  0.3860 -0.0335 -0.0115
   17CHTO  H221 6826   6.570   5.793   6.040  0.2912 -0.6577  0.2146
   17CHTO   N20 6827   6.633   5.823   6.236  0.1676  0.4285  0.1996
   17CHTO  H209 6828   6.584   5.735   6.275  1.9355 -1.6348 -2.0920
   17CHTO  H210 6829   6.579   5.914   6.260  0.2396  0.6512 -0.4564
   17CHTO   O80 6830   6.700   6.054   6.026  0.4270 -0.2037  0.3257
   17CHTO  C103 6831   6.723   6.157   6.145 -0.4089  0.7887 -0.2063
   17CHTO  H190 6832   6.742   6.110   6.242  2.0851  0.6230 -0.7310
   17CHTO  C101 6833   6.847   6.248   6.130  0.8001  0.4765  0.9250
   17CHTO  H188 6834   6.837   6.297   6.033  0.6452  1.1273  1.2713
   17CHTO   O68 6835   6.978   6.163   6.105  0.2857 -0.1593 -0.3140
   17CHTO  H168 6836   7.031   6.168   6.182  0.4454  0.4159 -0.4617
   17CHTO   C99 6837   6.852   6.358   6.248  0.5749 -0.3634 -0.5247
   17CHTO  H186 6838   6.883   6.315   6.345  2.2393  3.1318  0.5700
   17CHTO   N17 6839   6.956   6.460   6.215 -0.3492 -0.1199  0.3014
   17CHTO  H174 6840   7.044   6.425   6.164  1.0775  1.1827  1.8199
   17CHTO  H175 6841   6.983   6.537   6.286 -0.5459 -0.7702  1.0815
   17CHTO   C97 6842   6.708   6.421   6.272  0.4824  0.7256  0.2234
   17CHTO  H184 6843   6.692   6.493   6.190  0.1030  3.3690  2.5189
   17CHTO   O64 6844   6.600   6.326   6.272 -0.2316 -0.4110 -0.3379
   17CHTO  C104 6845   6.588   6.243   6.156 -0.0654 -0.6880  0.4231
   17CHTO  H191 6846   6.576   6.299   6.063 -0.1139 -0.8132  0.3531
   17CHTO  C108 6847   6.462   6.155   6.175 -0.0934  0.1573 -0.0309
   17CHTO   O71 6848   6.348   6.236   6.222 -0.6542 -0.1248  0.1496
   17CHTO  H171 6849   6.338   6.321   6.185  0.5554 -0.2410 -0.4612
   17CHTO   O62 6850   6.706   6.490   6.398 -0.0085  0.4695 -0.0256
   17CHTO   C91 6851   6.586   6.549   6.443  0.0708 -0.2627 -0.0715
   17CHTO  H178 6852   6.507   6.510   6.379  1.4082 -0.5806 -1.5690
   17CHTO   C92 6853   6.581   6.699   6.403 -0.4275 -0.3674  0.2211
   17CHTO  H179 6854   6.607   6.699   6.296  2.0406 -2.5280  0.7635
   17CHTO   O66 6855   6.449   6.751   6.425 -0.2921 -0.0934 -0.5715
   17CHTO  H166 6856   6.427   6.765   6.516  1.2162 -0.2778 -0.1575
   17CHTO   C93 6857   6.681   6.791   6.479 -0.0750 -0.7809 -0.0442
   17CHTO  H180 6858   6.632   6.889   6.486  2.5446  0.8849 -3.5288
   17CHTO   N16 6859   6.809   6.817   6.412  0.2015 -1.1973  0.1286
   17CHTO  H172 6860   6.879   6.735   6.415  2.0342  0.3786  2.6196
   17CHTO  H173 6861   6.811   6.869   6.317 -1.4771  0.3628  0.9208
   17CHTO   C94 6862   6.703   6.739   6.624 -0.3525 -0.1534  0.8325
   17CHTO  H181 6863   6.790   6.674   6.627  0.4267  0.6299 -2.3250
   17CHTO   O61 6864   6.596   6.653   6.666  0.3904 -0.0563 -0.0603
   17CHTO   C95 6865   6.571   6.529   6.594  0.4544 -0.1143 -0.2333
   17CHTO  H182 6866   6.637   6.449   6.628 -0.9812 -1.4313 -0.4858
   17CHTO  C106 6867   6.422   6.488   6.628  0.2942  0.0615  0.3323
   17CHTO   O69 6868   6.387   6.355   6.582 -0.5460  0.5123 -0.3376
   17CHTO  H169 6869   6.440   6.342   6.506 -2.0652 -2.2064 -0.9790
   17CHTO   O63 6870   6.737   6.865   6.724  0.5144  0.4180  0.9639
   17CHTO   C96 6871   6.610   6.926   6.782  0.6955 -0.6462  0.6974
   17CHTO  H183 6872   6.529   6.866   6.741  1.8031 -1.6647 -0.0425
   17CHTO   C98 6873   6.586   7.077   6.749  0.1758 -0.3500 -0.7690
   17CHTO  H185 6874   6.675   7.135   6.780 -0.8952  1.0539 -0.2914
   17CHTO   O67 6875   6.571   7.099   6.612 -0.5531 -0.3541 -0.2838
   17CHTO  H167 6876   6.589   7.188   6.587  0.5793 -0.4765  0.0483
   17CHTO  C102 6877   6.464   7.143   6.826 -0.4543  1.1901 -0.4655
   17CHTO  H189 6878   6.374   7.116   6.769 -1.3256 -1.2974  1.9944
   17CHTO   N18 6879   6.475   7.292   6.818  0.2215 -0.0998  0.0749
   17CHTO  H176 6880   6.394   7.333   6.876  0.2300  0.2569 -0.1633
   17CHTO  H177 6881   6.573   7.337   6.827  1.0797 -1.6362 -1.2517
   17CHTO  C105 6882   6.453   7.095   6.977 -0.3811 -0.2288 -0.4226
   17CHTO  H192 6883   6.527   7.145   7.039  0.2936 -1.9295  0.1791
   17CHTO   O65 6884   6.491   6.960   7.001  0.0813 -0.0743 -0.0904
   17CHTO  C100 6885   6.609   6.908   6.938 -0.1285  0.1036  0.6508
   17CHTO  H187 6886   6.690   6.972   6.979 -0.3143 -0.2329  1.5524
   17CHTO  C107 6887   6.636   6.768   6.996  0.5212  0.0972  0.1664
   17CHTO   O70 6888   6.531   6.670   6.972  0.4985  0.0360  0.4546
   17CHTO  H170 6889   6.549   6.582   7.000 -0.5317 -0.1635  0.5211
   17CHTO   O57 6890   6.300   7.118   7.016 -0.2246  0.0518  0.2074
   17CHTO   C85 6891   6.278   7.199   7.132  0.0811  0.5148 -0.0934
   17CHTO  H157 6892   6.365   7.269   7.133  0.9672 -0.5290 -1.7581
   17CHTO   C83 6893   6.295   7.124   7.265 -0.2347  0.3470 -0.4276
   17CHTO  H155 6894   6.400   7.095   7.270 -0.4618 -0.4467 -0.2128
   17CHTO   O56 6895   6.213   7.008   7.256  0.2732  0.0765  0.0972
   17CHTO  H135 6896   6.265   6.932   7.275 -0.1382 -0.0565  0.7058
   17CHTO   C81 6897   6.273   7.225   7.381  0.7541 -0.5666 -0.1195
   17CHTO  H153 6898   6.353   7.300   7.376  1.1132 -0.9842 -0.8295
   17CHTO   N14 6899   6.290   7.166   7.514  0.4847  0.2387 -0.1314
   17CHTO  H141 6900   6.236   7.073   7.513  1.4197 -0.3117 -0.5103
   17CHTO  H142 6901   6.390   7.155   7.551  0.4719  0.9821  0.1183
   17CHTO   C79 6902   6.131   7.298   7.364  1.0878 -0.1741 -0.1316
   17CHTO  H151 6903   6.122   7.380   7.435 -3.0067 -1.2697  0.7005
   17CHTO   O52 6904   6.118   7.363   7.229  0.4596 -0.4939  0.4043
   17CHTO   C86 6905   6.144   7.275   7.119 -0.7157  0.3219  0.4587
   17CHTO  H158 6906   6.064   7.200   7.132  0.9117 -1.6856 -0.7434
   17CHTO   C90 6907   6.120   7.345   6.982  0.2345  0.4498  0.3107
   17CHTO   O60 6908   5.982   7.375   6.971 -0.3457  0.6309 -0.0979
   17CHTO  H138 6909   5.959   7.361   6.881 -0.3750  1.5919 -0.2454
   17CHTO   O50 6910   6.015   7.218   7.376 -0.0985  0.3066  0.2400
   17CHTO   C73 6911   5.889   7.262   7.425  0.5701  0.0477  0.1451
   17CHTO  H145 6912   5.859   7.360   7.385 -0.8204  0.1730  1.4786
   17CHTO   C74 6913   5.891   7.255   7.576  0.0942 -0.6710 -0.2024
   17CHTO  H146 6914   5.970   7.321   7.614  0.4814 -0.5564 -1.1708
   17CHTO   O54 6915   5.775   7.314   7.619 -0.1529 -0.1079 -0.3752
   17CHTO  H133 6916   5.757   7.316   7.711 -0.4691 -0.6857 -0.4235
   17CHTO   C75 6917   5.905   7.112   7.630 -0.9313 -0.7991 -0.5846
   17CHTO  H147 6918   6.003   7.072   7.601 -1.0352 -1.6966  0.2930
   17CHTO   N13 6919   5.913   7.103   7.777 -0.6229 -0.2717 -0.6073
   17CHTO  H139 6920   6.010   7.144   7.803 -0.1807 -1.5030 -0.2740
   17CHTO  H140 6921   5.836   7.164   7.822  0.3577  0.6391 -0.1379
   17CHTO   C76 6922   5.804   7.019   7.570 -0.7511 -0.4799  0.4247
   17CHTO  H148 6923   5.703   7.046   7.601 -1.2522  1.0693 -2.3973
   17CHTO   O49 6924   5.816   7.031   7.426  0.8745 -0.2908 -0.1969
   17CHTO   C77 6925   5.784   7.161   7.376  0.5623 -0.3488  0.6144
   17CHTO  H149 6926   5.686   7.198   7.406 -0.2854 -0.8047 -1.5621
   17CHTO   C88 6927   5.784   7.160   7.214 -0.5671 -0.3497  0.6606
   17CHTO   O58 6928   5.744   7.301   7.171 -0.2771 -0.0768  0.4193
   17CHTO  H136 6929   5.695   7.293   7.091 -0.6210 -0.1837  0.6441
   17CHTO   O51 6930   5.847   6.865   7.599  0.3277 -0.3053  0.0321
   17CHTO   C78 6931   5.762   6.738   7.533  0.7278 -0.4583  0.4195
   17CHTO  H150 6932   5.679   6.769   7.467  0.7905 -2.7600 -0.7804
   17CHTO   C80 6933   5.714   6.646   7.645 -0.2578  0.3632  0.3981
   17CHTO  H152 6934   5.803   6.611   7.701  0.2972  0.7198 -0.2685
   17CHTO   O55 6935   5.619   6.719   7.725  0.7603 -0.4446  0.0153
   17CHTO  H134 6936   5.534   6.731   7.687  0.9872  0.6949 -0.1511
   17CHTO   C84 6937   5.650   6.513   7.585 -0.2594 -0.3725  0.3477
   17CHTO  H156 6938   5.555   6.546   7.543 -0.2126 -1.3727 -0.5364
   17CHTO   N15 6939   5.618   6.412   7.693 -0.0865 -0.6244 -0.1729
   17CHTO  H143 6940   5.534   6.454   7.744 -0.8657 -0.6089 -1.4530
   17CHTO  H144 6941   5.703   6.413   7.757 -1.5315  0.1039  1.7833
   17CHTO   C87 6942   5.733   6.446   7.474 -0.9036 -0.4080 -0.4354
   17CHTO  H159 6943   5.822   6.395   7.512 -0.4868 -0.9237 -2.0656
   17CHTO   O53 6944   5.783   6.548   7.384 -0.4578 -0.5134 -0.5133
   17CHTO   C82 6945   5.855   6.657   7.440 -0.2794  0.9679  0.0289
   17CHTO  H154 6946   5.944   6.622   7.493 -1.2305 -0.8453  0.4799
   17CHTO   C89 6947   5.911   6.750   7.325 -0.3073  0.0914  0.2919
   17CHTO   O59 6948   5.814   6.804   7.228 -0.2187 -0.6252  0.2157
   17CHTO  H137 6949   5.747   6.844   7.280  0.1810 -1.7287  1.5917
   17CHTO   O45 6950   5.650   6.357   7.394 -0.2151  0.2830  0.7155
   17CHTO   C67 6951   5.716   6.250   7.322 -0.0502  0.0334  0.2545
   17CHTO  H124 6952   5.812   6.217   7.360  0.0312  1.4641  1.3313
   17CHTO   C65 6953   5.618   6.126   7.323 -0.2586 -0.0448  0.3105
   17CHTO  H122 6954   5.571   6.121   7.422 -0.7494  1.4296  0.1741
   17CHTO   O44 6955   5.693   6.008   7.281 -0.2039 -0.2678  0.7385
   17CHTO  H102 6956   5.721   5.960   7.356 -0.4018  0.2065  1.1121
   17CHTO   C63 6957   5.487   6.158   7.230 -0.4260 -0.0833 -0.6944
   17CHTO  H120 6958   5.437   6.248   7.264 -0.9516 -0.3508 -0.7424
   17CHTO   N11 6959   5.374   6.059   7.248 -0.3054 -0.2468  0.3656
   17CHTO  H108 6960   5.354   6.032   7.350  2.3767  1.3719  1.3787
   17CHTO  H109 6961   5.387   5.977   7.181  1.4594  0.4661 -0.1841
   17CHTO   C61 6962   5.531   6.177   7.078 -0.0464  0.3480  0.0997
   17CHTO  H118 6963   5.447   6.211   7.016 -0.6913 -0.4116  0.5447
   17CHTO   O40 6964   5.631   6.284   7.076  0.2363  0.2542  0.4657
   17CHTO   C68 6965   5.742   6.295   7.168 -0.5175  0.7046 -0.5910
   17CHTO  H125 6966   5.769   6.403   7.169  1.3059  0.2640 -0.4997
   17CHTO   C72 6967   5.861   6.218   7.109  0.0299  0.6369  0.2056
   17CHTO   O48 6968   5.928   6.273   6.997  0.9520 -0.3918 -0.6390
   17CHTO  H105 6969   5.989   6.211   6.961  0.8209 -1.5289  1.0396
   17CHTO   O38 6970   5.585   6.057   7.019 -0.2567 -0.4014  0.1863
   17CHTO   C55 6971   5.559   6.016   6.888 -0.3326 -0.2723  0.5299
   17CHTO  H112 6972   5.625   5.929   6.873 -0.4970 -0.2747 -0.2140
   17CHTO   C56 6973   5.588   6.130   6.776  0.0676 -0.2550  0.2733
   17CHTO  H113 6974   5.542   6.224   6.809 -1.3846 -0.6375 -0.6326
   17CHTO   O42 6975   5.731   6.154   6.777  0.0009  0.3374 -0.0688
   17CHTO  H100 6976   5.751   6.199   6.856  1.2350  0.4964 -0.4574
   17CHTO   C57 6977   5.545   6.085   6.636  0.0729 -0.2202 -0.2225
   17CHTO  H114 6978   5.614   6.005   6.611  2.5441  1.5197  0.8749
   17CHTO   N10 6979   5.547   6.191   6.533  0.8914 -0.5282 -0.0514
   17CHTO  H106 6980   5.543   6.288   6.581 -0.3625 -0.1095 -0.9754
   17CHTO  H107 6981   5.468   6.184   6.460  1.9715  0.1455 -1.3137
   17CHTO   C58 6982   5.400   6.029   6.647 -0.0095 -1.0432  0.1933
   17CHTO  H115 6983   5.327   6.106   6.680  0.5132  0.0162 -1.1051
   17CHTO   O37 6984   5.387   5.923   6.737 -0.1623 -0.1473  0.7328
   17CHTO   C59 6985   5.420   5.946   6.875 -0.1080 -0.6335 -0.3585
   17CHTO  H116 6986   5.348   6.012   6.924 -0.9871 -0.3340 -2.0282
   17CHTO   C70 6987   5.413   5.810   6.947  0.3521  0.4124 -0.3563
   17CHTO   O46 6988   5.274   5.769   6.958  0.3256 -0.1283 -0.0471
   17CHTO  H103 6989   5.243   5.768   6.870  0.7651 -0.0219 -0.2045
   17CHTO   O39 6990   5.358   5.952   6.513  0.2257 -0.2452 -0.6383
   17CHTO   C60 6991   5.236   5.999   6.466  0.0065  0.5725  0.1557
   17CHTO  H117 6992   5.194   6.070   6.538  0.5925 -0.7058  1.7850
   17CHTO   C62 6993   5.243   6.071   6.332  0.2995 -0.4396  0.8595
   17CHTO  H119 6994   5.320   6.150   6.342  0.2558 -0.0146 -1.8414
   17CHTO   O43 6995   5.288   5.981   6.222 -0.7704 -0.1624  0.5286
   17CHTO  H101 6996   5.260   5.892   6.220 -0.8426 -0.1151 -0.6685
   17CHTO   C66 6997   5.105   6.128   6.279 -0.4957 -0.2504  0.0122
   17CHTO  H123 6998   5.074   6.198   6.356  2.9853  0.1668  1.1085
   17CHTO   N12 6999   5.108   6.223   6.164  0.0385  0.1237 -0.0718
   17CHTO  H110 7000   5.018   6.226   6.105 -1.4197 -0.7075  2.0656
   17CHTO  H111 7001   5.194   6.194   6.105  0.6986  0.6937  0.5973
   17CHTO   C69 7002   5.002   6.015   6.270  0.2619  0.4328 -0.7654
   17CHTO  H126 7003   5.010   5.950   6.180  0.2312  1.5638 -1.6005
   17CHTO   O41 7004   5.002   5.939   6.405  0.1602 -0.6710 -0.0150
   17CHTO   C64 7005   5.133   5.881   6.460  0.0024  0.1135  0.3454
   17CHTO  H121 7006   5.163   5.803   6.387 -0.7528  0.5108 -0.4019
   17CHTO   C71 7007   5.104   5.820   6.599  0.2326  0.3214  0.1120
   17CHTO   O47 7008   5.029   5.699   6.572  0.3904 -1.1772  0.2199
   17CHTO  H104 7009   5.026   5.638   6.644  0.2683  0.9367  2.0857
   17CHTO   O34 7010   4.874   6.070   6.258 -0.2798 -0.1325  0.6481
   17CHTO   C49 7011   4.732   6.148   6.301  0.0793 -0.0460  0.1647
   17CHTO   H91 7012   4.724   6.241   6.244  1.3784 -0.1864 -0.2671
   17CHTO   C47 7013   4.721   6.166   6.455 -0.2438  0.4192 -0.0232
   17CHTO   H89 7014   4.630   6.230   6.463  0.2755  0.9699  1.6251
   17CHTO   O33 7015   4.830   6.237   6.505 -0.0466  0.0855  0.0059
   17CHTO   H70 7016   4.862   6.303   6.447 -1.2545  1.0196  0.3832
   17CHTO   C45 7017   4.702   6.024   6.529  0.6912  0.4629  0.0733
   17CHTO   H87 7018   4.796   5.975   6.558 -0.5409 -2.5843 -0.7867
   17CHTO    N8 7019   4.623   6.057   6.648 -0.0053 -0.4502 -0.0792
   17CHTO   H75 7020   4.613   5.975   6.717  0.3148 -0.6208 -0.2364
   17CHTO   H76 7021   4.663   6.149   6.687  0.5174 -0.5128 -0.4752
   17CHTO   C43 7022   4.647   5.911   6.425  0.6358  0.9185 -0.7491
   17CHTO   H85 7023   4.739   5.881   6.375 -1.0311 -2.2861 -2.0691
   17CHTO   O29 7024   4.554   5.965   6.336 -0.0724  0.2022 -0.0901
   17CHTO   C50 7025   4.609   6.061   6.250 -1.1568 -0.2181 -0.0399
   17CHTO   H92 7026   4.637   5.994   6.168 -0.8763 -1.0358  0.7202
   17CHTO   C54 7027   4.484   6.146   6.200 -0.3982  1.1106 -0.0058
   17CHTO   O36 7028   4.512   6.215   6.083  0.1134 -0.3056  0.3816
   17CHTO   H72 7029   4.428   6.248   6.057 -0.3704 -0.1245  2.1493
   17CHTO   O27 7030   4.580   5.793   6.476  0.4540  0.5486  0.6128
   17CHTO   C37 7031   4.655   5.689   6.543  0.1031  0.1936 -0.1849
   17CHTO   H79 7032   4.749   5.723   6.589  0.0945 -0.1467  0.0849
   17CHTO   C38 7033   4.577   5.629   6.666  0.2199 -0.6513 -0.1675
   17CHTO   H80 7034   4.481   5.583   6.639  0.2517 -0.5631 -0.4309
   17CHTO   O31 7035   4.560   5.746   6.748 -0.4374  0.2096 -0.3237
   17CHTO   H68 7036   4.510   5.730   6.826 -0.3472  0.6072 -0.1823
   17CHTO   C39 7037   4.663   5.509   6.738 -0.1308 -0.4774  0.0778
   17CHTO   H81 7038   4.763   5.543   6.761  0.0145 -0.6890 -0.2349
   17CHTO    N7 7039   4.618   5.450   6.868 -0.2050 -0.2655 -0.2736
   17CHTO   H73 7040   4.665   5.356   6.890  2.6122  1.0539 -0.5121
   17CHTO   H74 7041   4.511   5.438   6.859  0.0118 -1.9842 -0.7503
   17CHTO   C40 7042   4.674   5.396   6.627 -0.0710 -0.3622 -0.2372
   17CHTO   H82 7043   4.573   5.363   6.602 -0.2772 -0.4632  0.6935
   17CHTO   O26 7044   4.740   5.462   6.513  0.0653 -0.3834 -0.3902
   17CHTO   C41 7045   4.682   5.578   6.443 -0.0377  0.2254  0.3210
   17CHTO   H83 7046   4.588   5.552   6.391  0.8826 -1.4324 -0.5329
   17CHTO   C52 7047   4.777   5.621   6.327  0.1849 -0.3421  0.0678
   17CHTO   O35 7048   4.785   5.511   6.220 -0.0258 -0.2580 -0.4041
   17CHTO   H71 7049   4.853   5.534   6.159 -0.8187  0.9594 -0.8382
   17CHTO   O28 7050   4.749   5.277   6.663 -0.5578  0.0306 -0.0378
   17CHTO   C42 7051   4.895   5.265   6.663  0.1738 -0.2411  0.1686
   17CHTO   H84 7052   4.898   5.167   6.710  1.9999  0.6202  1.9149
   17CHTO   C44 7053   4.983   5.365   6.752  0.0304 -0.0953 -0.6099
   17CHTO   H86 7054   4.961   5.469   6.725 -1.6675 -0.2820 -0.0462
   17CHTO   O32 7055   4.938   5.351   6.891  0.4187 -0.4296 -0.4734
   17CHTO   H69 7056   4.991   5.403   6.947 -0.7626 -1.5058  1.7188
   17CHTO   C48 7057   5.133   5.321   6.736 -0.3535  0.5217  0.3465
   17CHTO   H90 7058   5.143   5.221   6.776 -0.4783  0.4149  0.1133
   17CHTO    N9 7059   5.235   5.398   6.816  0.3165  0.0141  0.0489
   17CHTO   H77 7060   5.190   5.426   6.910  0.5193 -0.1198  0.1872
   17CHTO   H78 7061   5.323   5.339   6.837  1.1362  0.7628 -1.2502
   17CHTO   C51 7062   5.167   5.332   6.585 -0.5627  0.6471 -0.3369
   17CHTO   H93 7063   5.136   5.428   6.545  0.4402  0.4514 -1.6161
   17CHTO   O30 7064   5.102   5.217   6.523  0.1646 -0.1822 -0.6745
   17CHTO   C46 7065   4.947   5.250   6.517  0.2326 -0.7344 -0.3428
   17CHTO   H88 7066   4.948   5.349   6.470 -3.6497 -0.5675 -0.2560
   17CHTO   C53 7067   4.878   5.147   6.429  0.8075 -0.2345 -0.1085
   17CHTO   O72 7068   4.740   5.183   6.401  0.1206 -0.2946  0.0417
   17CHTO  H199 7069   4.695   5.141   6.472  1.6817  0.4366  1.4965
   17CHTO   O22 7070   5.305   5.332   6.553  0.4058  0.0100 -0.6394
   17CHTO   C31 7071   5.382   5.419   6.461 -0.6018  0.2029 -0.1142
   17CHTO   H59 7072   5.466   5.352   6.433 -0.2954  0.4488  0.2112
   17CHTO   C29 7073   5.312   5.463   6.331  0.2197  0.1546 -0.3692
   17CHTO   H57 7074   5.223   5.522   6.357  1.0131  1.3892 -0.3763
   17CHTO   O21 7075   5.264   5.348   6.254  0.0494 -0.3313 -0.4104
   17CHTO   H37 7076   5.183   5.318   6.290 -2.8544  3.1237 -3.5870
   17CHTO   C27 7077   5.405   5.561   6.238  0.6236  0.3220 -0.2190
   17CHTO   H55 7078   5.483   5.499   6.192  0.8853 -0.3672  1.1621
   17CHTO    N5 7079   5.335   5.625   6.127  0.2094 -0.4841 -0.7286
   17CHTO   H43 7080   5.286   5.545   6.073 -2.1888  0.5532 -0.1789
   17CHTO   H44 7081   5.259   5.688   6.172 -2.0839 -2.8733 -1.1836
   17CHTO   C25 7082   5.461   5.679   6.325  0.2458  0.1496 -0.3681
   17CHTO   H53 7083   5.378   5.736   6.369  1.4835  4.1832 -3.0050
   17CHTO   O17 7084   5.528   5.614   6.427 -0.3117  0.3332  0.3526
   17CHTO   C32 7085   5.439   5.548   6.528  0.3015  0.2338  0.6378
   17CHTO   H60 7086   5.357   5.616   6.554  0.0402  0.6845 -1.2930
   17CHTO   C36 7087   5.533   5.517   6.647  0.0782 -0.4262 -0.0348
   17CHTO   O25 7088   5.593   5.632   6.704  0.2753 -0.3242  0.2165
   17CHTO   H40 7089   5.643   5.604   6.778  0.8468  0.9470  0.3382
   17CHTO   O15 7090   5.575   5.763   6.260 -0.0108 -0.1474  0.1786
   17CHTO   C19 7091   5.671   5.861   6.209  0.6777 -0.2062  0.0145
   17CHTO   H47 7092   5.752   5.805   6.161  0.8773  2.2996 -2.7064
   17CHTO   C20 7093   5.616   5.961   6.100 -0.1796  0.2518  0.2807
   17CHTO   H48 7094   5.517   6.000   6.128 -0.0700  0.0429  0.9466
   17CHTO   O19 7095   5.592   5.892   5.979  0.1956  0.0436 -0.1429
   17CHTO   H35 7096   5.650   5.819   5.966 -0.9089 -1.5023  3.1673
   17CHTO   C21 7097   5.714   6.084   6.065  0.0866  0.3922  0.1181
   17CHTO   H49 7098   5.802   6.045   6.015 -0.0373 -0.8018  0.8250
   17CHTO    N4 7099   5.647   6.193   5.982 -0.2794 -0.0604 -0.0667
   17CHTO   H41 7100   5.720   6.263   5.944 -0.0056 -1.0326 -1.3426
   17CHTO   H42 7101   5.576   6.251   6.039 -0.6216  0.3170 -0.8833
   17CHTO   C22 7102   5.764   6.145   6.203  0.0589 -0.0588  0.2038
   17CHTO   H50 7103   5.676   6.178   6.257  0.8581 -1.7668  2.6127
   17CHTO   O14 7104   5.829   6.041   6.278  0.0426 -0.1674 -0.1900
   17CHTO   C23 7105   5.736   5.941   6.322 -0.1847 -0.0472 -0.6246
   17CHTO   H51 7106   5.660   5.986   6.388 -0.8744  1.1117 -2.1910
   17CHTO   C34 7107   5.802   5.836   6.405 -0.4927  0.5265  0.4254
   17CHTO   O23 7108   5.822   5.884   6.538  0.1039  0.1159 -0.0779
   17CHTO   H38 7109   5.765   5.840   6.598 -0.6358 -0.7151 -1.3715
   17CHTO   O16 7110   5.859   6.251   6.185 -0.6119  0.1424 -0.4826
   17CHTO   C24 7111   5.841   6.354   6.303  1.0759  0.0890 -0.1296
   17CHTO   H52 7112   5.773   6.318   6.381  0.8521  1.2769  0.2250
   17CHTO   C26 7113   5.778   6.484   6.260 -0.6626  0.6007  0.5382
   17CHTO   H54 7114   5.825   6.517   6.164  2.7373  0.6004  2.1121
   17CHTO   O20 7115   5.643   6.455   6.228  0.0078  0.1263  0.2771
   17CHTO   H36 7116   5.605   6.540   6.216 -1.4906 -0.5429  0.2450
   17CHTO   C30 7117   5.801   6.602   6.360  0.2756  0.3342 -0.6125
   17CHTO   H58 7118   5.743   6.584   6.451  1.4279  0.7162  0.2144
   17CHTO    N6 7119   5.761   6.735   6.300 -0.8523 -0.3867 -0.0054
   17CHTO   H45 7120   5.799   6.750   6.201  0.1213 -0.8333  0.3009
   17CHTO   H46 7121   5.653   6.741   6.299 -0.7466  1.6895 -0.4795
   17CHTO   C33 7122   5.948   6.600   6.412 -0.0204  0.2239  0.0562
   17CHTO   H61 7123   6.021   6.618   6.332 -0.5460 -0.5028 -0.5975
   17CHTO   O18 7124   5.980   6.475   6.466 -0.5069 -0.1047  0.0248
   17CHTO   C28 7125   5.978   6.372   6.372  0.7561  0.1224  0.4060
   17CHTO   H56 7126   6.057   6.376   6.296 -0.8125  1.6717 -1.1755
   17CHTO   C35 7127   6.024   6.258   6.468  0.0300 -0.2039  0.3073
   17CHTO   O24 7128   5.929   6.222   6.569 -0.4678 -0.5347 -0.2035
   17CHTO   H39 7129   5.852   6.179   6.539 -1.3708  0.3539  0.7872
   17CHTO    O9 7130   5.974   6.702   6.511 -0.1681 -0.0041  0.5083
   17CHTO   C13 7131   6.109   6.683   6.602 -0.2166  0.3715  0.2118
   17CHTO   H26 7132   6.182   6.631   6.537 -0.9049 -2.3997  1.5278
   17CHTO   C11 7133   6.077   6.600   6.735  0.4357 -0.7332  0.9393
   17CHTO   H24 7134   6.142   6.511   6.735  1.0238 -0.3279 -0.4020
   17CHTO    O8 7135   5.943   6.540   6.733  0.0192 -0.4361  0.2079
   17CHTO    H3 7136   5.944   6.469   6.672 -0.4728 -1.7120  1.6393
   17CHTO    C9 7137   6.094   6.691   6.860  0.5799  0.5115  0.1374
   17CHTO   H22 7138   6.199   6.722   6.852  2.1090 -4.0570  1.1625
   17CHTO    N2 7139   6.071   6.630   6.991 -0.3059  0.0657  0.8511
   17CHTO   H10 7140   6.103   6.698   7.069 -1.0454  0.6366  0.6645
   17CHTO   H11 7141   5.968   6.605   7.013 -0.1164 -1.0921  0.4373
   17CHTO    C7 7142   6.010   6.819   6.841 -0.2279  0.1492  0.4184
   17CHTO   H20 7143   6.012   6.871   6.939  1.4107 -1.1955  1.1139
   17CHTO    O4 7144   6.076   6.895   6.740  0.5882  0.1060  0.2970
   17CHTO   C14 7145   6.162   6.830   6.638 -0.0215  0.0845 -1.0240
   17CHTO   H27 7146   6.256   6.825   6.697 -0.4118  1.8122 -0.2523
   17CHTO   C18 7147   6.173   6.944   6.529 -0.5912  0.0392 -0.7305
   17CHTO   O13 7148   6.231   7.074   6.563  0.1750  0.1614 -0.0349
   17CHTO    H7 7149   6.325   7.070   6.563  0.1810  0.1755 -0.9765
   17CHTO    O2 7150   5.859   6.800   6.800 -0.3801 -0.1084 -0.4092
   17CHTO    C1 7151   5.758   6.814   6.897  0.2326  0.0252  0.1802
   17CHTO   H14 7152   5.808   6.850   6.988  0.7596 -0.8538  0.2479
   17CHTO    C2 7153   5.671   6.678   6.926  0.2544  0.8272  0.2651
   17CHTO   H15 7154   5.638   6.654   6.824  0.3491  1.0471  0.1839
   17CHTO    O6 7155   5.763   6.573   6.981 -0.1896  0.1113  0.0521
   17CHTO    H1 7156   5.840   6.567   6.928 -0.5822 -2.8817 -0.2220
   17CHTO    C3 7157   5.547   6.703   7.015  0.1241  0.3556 -0.3753
   17CHTO   H16 7158   5.579   6.720   7.119  0.8194  0.2025 -0.5602
   17CHTO    N1 7159   5.458   6.583   7.024  0.1254  0.2929 -0.9437
   17CHTO    H8 7160   5.464   6.543   7.124 -1.0731 -1.6253 -1.6019
   17CHTO    H9 7161   5.353   6.600   7.005  0.1710  0.8838 -0.6846
   17CHTO    C4 7162   5.470   6.837   6.974  0.1725  0.4017 -0.5260
   17CHTO   H17 7163   5.423   6.828   6.876  0.1537 -1.3862 -0.3587
   17CHTO    O1 7164   5.563   6.948   6.959 -0.0110 -0.0572 -0.1484
   17CHTO    C5 7165   5.660   6.928   6.851 -0.3339  0.0753  0.1001
   17CHTO   H18 7166   5.612   6.885   6.763  0.8419 -0.4939 -0.2738
   17CHTO   C16 7167   5.711   7.074   6.828  0.0801 -0.0411 -0.1272
   17CHTO   O11 7168   5.815   7.092   6.726 -0.0074  0.3436  0.3104
   17CHTO    H5 7169   5.784   7.090   6.637  0.7080 -1.1701  0.0873
   17CHTO    O3 7170   5.367   6.872   7.068  0.0698 -0.1491 -0.4233
   17CHTO    C6 7171   5.374   7.012   7.132  0.0948  0.4909 -0.0631
   17CHTO   H19 7172   5.470   7.062   7.123  0.6940 -0.6712 -0.2055
   17CHTO    C8 7173   5.258   7.104   7.077  0.6744 -0.0502  0.1852
   17CHTO   H21 7174   5.160   7.058   7.088  1.5285 -1.4824  2.0527
   17CHTO    O7 7175   5.294   7.132   6.944 -0.0701  0.5037 -0.0161
   17CHTO    H2 7176   5.302   7.059   6.885 -1.6618  1.7737 -1.8890
   17CHTO   C12 7177   5.262   7.244   7.151 -0.0316  0.6947  0.5321
   17CHTO   H25 7178   5.351   7.298   7.111 -0.9607  0.7319 -1.5672
   17CHTO    N3 7179   5.148   7.322   7.111 -0.1201 -0.2558  0.0253
   17CHTO   H12 7180   5.107   7.283   7.019 -2.8564 -0.7535  1.3899
   17CHTO   H13 7181   5.058   7.308   7.169 -1.7470  0.8426 -2.1568
   17CHTO   C15 7182   5.264   7.220   7.309 -0.6144  0.5400  0.3617
   17CHTO   H28 7183   5.171   7.181   7.350 -0.1100 -1.4054 -0.2781
   17CHTO   O10 7184   5.307   7.337   7.383  0.4356  0.4104 -0.0627
   17CHTO    H4 7185   5.248   7.409   7.378 -0.8718 -0.5456  0.9457
   17CHTO    O5 7186   5.361   7.125   7.354 -0.6551  0.3755 -0.0351
   17CHTO   C10 7187   5.351   6.999   7.285 -0.2435 -0.2702  1.0859
   17CHTO   H23 7188   5.253   6.955   7.306 -1.2070 -0.2170 -2.9719
   17CHTO   C17 7189   5.457   6.903   7.340 -0.3874  0.4491 -0.2297
   17CHTO   O12 7190   5.466   6.903   7.482  0.1374  0.3317 -0.1550
   17CHTO    H6 7191   5.546   6.943   7.511  0.2652 -0.9078  1.2584
   18CHTO  H203 7192   6.414   7.770   1.506  1.0336  2.1104  0.6488
   18CHTO   O82 7193   6.498   7.729   1.497 -0.0311 -0.1413  0.6621
   18CHTO  C123 7194   6.494   7.648   1.376 -0.1477  0.3581 -1.4139
   18CHTO  H227 7195   6.387   7.631   1.358 -0.7745  1.1462  1.3159
   18CHTO   O77 7196   6.553   7.724   1.269 -0.9472  1.1015 -0.3615
   18CHTO  C118 7197   6.571   7.654   1.147  0.4445  0.0697  0.3577
   18CHTO  H222 7198   6.478   7.613   1.105  0.1356  0.4693  0.6548
   18CHTO  C125 7199   6.625   7.766   1.045 -0.3146  0.0600  0.2407
   18CHTO   O84 7200   6.769   7.780   1.061  0.1456  1.1360 -0.0400
   18CHTO  H205 7201   6.792   7.834   0.988  2.3914  0.2025 -0.0694
   18CHTO  C114 7202   6.659   7.526   1.154 -0.2159  0.1523 -0.0562
   18CHTO  H218 7203   6.759   7.555   1.188  0.2573  0.1844 -1.4272
   18CHTO  C116 7204   6.597   7.432   1.264 -0.0019  0.4429  0.1503
   18CHTO  H220 7205   6.508   7.381   1.222  0.7854 -1.9900  1.3689
   18CHTO   O79 7206   6.697   7.328   1.290  0.2250 -0.2111 -0.1639
   18CHTO  H201 7207   6.663   7.278   1.363 -0.5297 -1.5007 -1.3785
   18CHTO  C120 7208   6.575   7.509   1.397  0.1138 -0.2805 -0.0597
   18CHTO  H224 7209   6.676   7.537   1.434 -0.4170 -0.6093  1.6844
   18CHTO   N21 7210   6.501   7.421   1.494 -0.1566 -0.0147  0.3630
   18CHTO  H211 7211   6.397   7.447   1.491 -0.1023  0.0950 -0.9046
   18CHTO  H212 7212   6.543   7.437   1.592 -0.0125 -1.0445  0.4751
   18CHTO   O75 7213   6.677   7.468   1.023 -0.2411  0.8730 -0.0737
   18CHTO  C112 7214   6.820   7.412   0.972 -0.5130 -0.4630  0.3266
   18CHTO  H216 7215   6.887   7.390   1.056 -1.4728  2.7675  2.0048
   18CHTO   O73 7216   6.879   7.513   0.884 -0.0175 -0.6278 -0.0782
   18CHTO  C113 7217   7.009   7.488   0.842 -0.6265  0.0054  0.3615
   18CHTO  H217 7218   7.067   7.472   0.936  0.4806  1.2079 -0.0920
   18CHTO  C124 7219   7.071   7.613   0.773 -0.4568  0.3155  0.1055
   18CHTO   O83 7220   7.212   7.585   0.751  0.0465  0.8009 -0.3318
   18CHTO  H204 7221   7.264   7.615   0.823 -1.3509  1.5133  0.4034
   18CHTO  C109 7222   7.011   7.360   0.751 -0.1998  0.9297 -0.1499
   18CHTO  H213 7223   6.949   7.382   0.663 -1.4094 -1.3540  0.0815
   18CHTO  C110 7224   6.954   7.242   0.833 -0.4650  0.1185  0.8225
   18CHTO  H214 7225   7.030   7.224   0.908  0.6184  0.1306 -0.2511
   18CHTO   O78 7226   6.947   7.131   0.739 -0.0171 -0.5097  0.6443
   18CHTO  H200 7227   6.913   7.152   0.655  0.7268  0.0642  0.4769
   18CHTO  C111 7228   6.810   7.279   0.887  0.1151 -0.2214 -1.1337
   18CHTO  H215 7229   6.743   7.291   0.801 -0.6937  0.6319 -0.3959
   18CHTO   N19 7230   6.751   7.171   0.967 -0.1055  0.0648  0.2614
   18CHTO  H207 7231   6.671   7.120   0.914  0.9132 -0.8063 -0.4498
   18CHTO  H208 7232   6.826   7.110   1.014 -0.5294 -0.9372 -0.3352
   18CHTO   O74 7233   7.148   7.313   0.711  0.5838  0.1296 -0.1873
   18CHTO  C115 7234   7.164   7.249   0.563 -0.2064 -1.1621 -0.7228
   18CHTO  H219 7235   7.093   7.167   0.552 -1.5938  0.1838 -1.9584
   18CHTO   O76 7236   7.122   7.358   0.451 -0.1381 -0.3283 -0.0894
   18CHTO  C122 7237   7.222   7.463   0.429  0.0747 -0.0255 -0.1571
   18CHTO  H226 7238   7.210   7.543   0.503 -1.3673  0.4977 -0.9413
   18CHTO  C126 7239   7.187   7.533   0.299 -0.8219  0.4208  0.3043
   18CHTO   O85 7240   7.271   7.642   0.263 -0.2548 -0.7414  0.0962
   18CHTO  H206 7241   7.248   7.687   0.184  3.2873  0.9128 -0.0794
   18CHTO  C121 7242   7.374   7.415   0.429  0.9127 -0.2844 -0.7919
   18CHTO  H225 7243   7.429   7.447   0.339 -1.0213  0.2426 -1.8182
   18CHTO   O81 7244   7.441   7.461   0.549  0.3726  0.1601 -0.4309
   18CHTO  H202 7245   7.463   7.552   0.547 -1.9040  0.7260 -1.0868
   18CHTO  C119 7246   7.381   7.257   0.430  0.2952  0.2464 -0.2246
   18CHTO  H223 7247   7.341   7.227   0.333 -0.7571  0.8891  0.0042
   18CHTO  C117 7248   7.310   7.187   0.553  0.2606  0.4286 -0.0566
   18CHTO  H221 7249   7.361   7.203   0.648 -2.0016 -4.2058  2.1029
   18CHTO   N20 7250   7.300   7.036   0.541 -0.1049 -0.4453 -0.1018
   18CHTO  H209 7251   7.359   7.014   0.453  0.5667  0.4136  0.1310
   18CHTO  H210 7252   7.349   6.989   0.625  1.5717  0.7065 -0.4157
   18CHTO   O80 7253   7.545   7.208   0.415 -0.1961  0.1096 -0.2745
   18CHTO  C103 7254   7.593   7.154   0.270  0.3223 -0.1044  0.1877
   18CHTO  H190 7255   7.696   7.117   0.275  0.6596  0.5949 -1.1699
   18CHTO  C101 7256   7.507   7.038   0.205  0.1799 -0.1243  0.0833
   18CHTO  H188 7257   7.402   7.058   0.226 -0.2166 -1.9656 -0.0752
   18CHTO   O68 7258   7.533   6.892   0.279  0.1752 -0.0567  0.1585
   18CHTO  H168 7259   7.461   6.837   0.255  0.7315 -0.2954 -0.9762
   18CHTO   C99 7260   7.525   7.019   0.043  1.1450  0.1724  0.5789
   18CHTO  H186 7261   7.630   6.990   0.021  1.8145  2.4007  0.6978
   18CHTO   N17 7262   7.431   6.918  -0.033  0.1591  0.2081 -0.8042
   18CHTO  H174 7263   7.326   6.944  -0.033  0.3034  0.8638  0.8141
   18CHTO  H175 7264   7.456   6.815  -0.013 -2.5337 -0.8681 -2.6341
   18CHTO   C97 7265   7.516   7.165  -0.015 -0.1305  0.1395  0.1026
   18CHTO  H184 7266   7.416   7.209  -0.001  0.0547  0.6907 -0.2712
   18CHTO   O64 7267   7.618   7.252   0.044 -0.5692 -0.0178  0.2988
   18CHTO  C104 7268   7.592   7.283   0.184  0.1640 -0.2653 -0.0671
   18CHTO  H191 7269   7.494   7.331   0.188 -0.4647 -1.6165  1.7915
   18CHTO  C108 7270   7.686   7.398   0.227  0.0048  0.0289 -0.6388
   18CHTO   O71 7271   7.822   7.353   0.198  0.0951  0.1034 -0.5102
   18CHTO  H171 7272   7.852   7.288   0.259 -2.4315  0.1601  0.8856
   18CHTO   O62 7273   7.556   7.170  -0.160  0.0335  0.0696 -0.2998
   18CHTO   C91 7274   7.487   7.256  -0.251 -0.0789  0.5071  0.1102
   18CHTO  H178 7275   7.391   7.208  -0.271  0.8024 -1.7634  1.0708
   18CHTO   C92 7276   7.568   7.245  -0.377 -0.4692 -0.6753  0.3796
   18CHTO  H179 7277   7.670   7.280  -0.360 -0.6706 -0.1905  0.6118
   18CHTO   O66 7278   7.576   7.114  -0.433 -0.0390  0.4343 -0.0219
   18CHTO  H166 7279   7.490   7.078  -0.432  0.1619 -0.0355  1.5682
   18CHTO   C93 7280   7.519   7.336  -0.494  0.2317 -1.1107  0.4079
   18CHTO  H180 7281   7.443   7.279  -0.550  0.4190 -0.7824 -0.1926
   18CHTO   N16 7282   7.619   7.364  -0.603 -1.0212  0.6040  0.2277
   18CHTO  H172 7283   7.565   7.410  -0.685  0.0402  1.1209 -0.1917
   18CHTO  H173 7284   7.690   7.438  -0.569  0.1237  0.3149 -1.4570
   18CHTO   C94 7285   7.456   7.477  -0.448  0.0492 -0.0893  0.4135
   18CHTO  H181 7286   7.501   7.562  -0.499 -1.0868 -0.5459 -1.4185
   18CHTO   O61 7287   7.491   7.505  -0.311 -0.1735 -0.7135  0.3572
   18CHTO   C95 7288   7.472   7.406  -0.208 -0.3259 -0.4037 -0.4913
   18CHTO  H182 7289   7.550   7.423  -0.134  1.3541 -0.1173 -2.2573
   18CHTO  C106 7290   7.331   7.443  -0.151  0.8207  0.3803 -0.5748
   18CHTO   O69 7291   7.322   7.560  -0.065 -0.1271  0.4011  0.0386
   18CHTO  H169 7292   7.332   7.631  -0.127 -2.9366  0.4328 -0.4494
   18CHTO   O63 7293   7.294   7.470  -0.464  0.1281  0.2943 -0.2015
   18CHTO   C96 7294   7.238   7.579  -0.566  0.3748 -0.8559  0.0918
   18CHTO  H183 7295   7.143   7.540  -0.603  1.3631 -0.8490 -2.5744
   18CHTO   C98 7296   7.314   7.578  -0.703 -0.2821 -0.5404 -0.7304
   18CHTO  H185 7297   7.422   7.587  -0.684 -0.1986  0.9712 -1.7929
   18CHTO   O67 7298   7.297   7.458  -0.778  0.2247  0.2955  0.0657
   18CHTO  H167 7299   7.315   7.376  -0.736 -1.6655 -0.5674 -0.7006
   18CHTO  C102 7300   7.271   7.705  -0.794 -0.0647 -0.5258  0.3209
   18CHTO  H189 7301   7.190   7.665  -0.856  0.7562 -1.5405 -0.1139
   18CHTO   N18 7302   7.380   7.736  -0.896  0.5900 -0.1100 -0.4864
   18CHTO  H176 7303   7.458   7.662  -0.882  0.4751 -0.3424 -1.0753
   18CHTO  H177 7304   7.421   7.836  -0.895  1.2182 -0.3444 -1.8272
   18CHTO  C105 7305   7.223   7.834  -0.717  0.3439  0.4146 -1.0262
   18CHTO  H192 7306   7.310   7.896  -0.695  1.9855 -1.7120 -1.2951
   18CHTO   O65 7307   7.152   7.809  -0.598 -0.3423 -0.0451  0.3305
   18CHTO  C100 7308   7.223   7.723  -0.511 -0.1913 -0.0239  0.3549
   18CHTO  H187 7309   7.321   7.768  -0.493  0.9968 -1.2784 -2.5618
   18CHTO  C107 7310   7.156   7.730  -0.372 -0.1657 -0.1846  0.2368
   18CHTO   O70 7311   7.051   7.634  -0.368 -0.1393 -0.0870  0.1023
   18CHTO  H170 7312   7.095   7.552  -0.380 -0.4501 -0.2092 -0.1882
   18CHTO   O57 7313   7.119   7.901  -0.822  0.2132  0.2774  0.1527
   18CHTO   C85 7314   7.136   8.046  -0.844 -0.1589  0.0276 -0.7388
   18CHTO  H157 7315   7.245   8.052  -0.860 -0.0729  0.9971  0.1882
   18CHTO   C83 7316   7.094   8.131  -0.717  0.5072  0.1208 -0.2223
   18CHTO  H155 7317   7.164   8.105  -0.637  0.1145 -1.4741 -0.3777
   18CHTO   O56 7318   6.958   8.091  -0.674 -0.0924 -0.6231  0.2707
   18CHTO  H135 7319   6.949   8.120  -0.585  1.2805 -0.1350  0.2582
   18CHTO   C81 7320   7.111   8.278  -0.752 -0.4988  0.3833 -0.1380
   18CHTO  H153 7321   7.214   8.301  -0.777 -0.6016  3.9941  2.2980
   18CHTO   N14 7322   7.094   8.366  -0.631  0.5650  0.0098  0.8712
   18CHTO  H141 7323   6.991   8.374  -0.602  0.7312 -0.8528  1.7441
   18CHTO  H142 7324   7.130   8.463  -0.658 -1.6028  0.6910  0.3205
   18CHTO   C79 7325   7.021   8.309  -0.875  0.3018  0.2186 -0.1703
   18CHTO  H151 7326   7.038   8.415  -0.896 -2.0624  0.7938  0.6619
   18CHTO   O52 7327   7.043   8.237  -0.994  0.3050  0.2386 -0.3134
   18CHTO   C86 7328   7.056   8.093  -0.969 -0.2512  0.6592  0.1618
   18CHTO  H158 7329   6.950   8.061  -0.965 -0.2116  0.5710  0.5810
   18CHTO   C90 7330   7.122   8.031  -1.096  0.5145 -0.4239  0.7827
   18CHTO   O60 7331   7.035   8.038  -1.208 -0.0318  0.0638 -0.1348
   18CHTO  H138 7332   6.974   7.967  -1.215  0.4707 -0.8325  3.5438
   18CHTO   O50 7333   6.879   8.300  -0.837 -0.5017 -0.2812 -0.3707
   18CHTO   C73 7334   6.762   8.360  -0.881  0.6198 -0.1151  0.2122
   18CHTO  H145 7335   6.759   8.358  -0.991 -0.3297 -3.8724  0.2394
   18CHTO   C74 7336   6.751   8.511  -0.839 -0.1240 -0.5883  1.2878
   18CHTO  H146 7337   6.834   8.573  -0.876 -1.3108 -1.2921 -2.9046
   18CHTO   O54 7338   6.637   8.568  -0.914 -0.2878 -0.1864  0.3718
   18CHTO  H133 7339   6.637   8.662  -0.925 -0.3466 -0.2749 -0.3770
   18CHTO   C75 7340   6.735   8.519  -0.689  0.3485 -0.4685 -0.5783
   18CHTO  H147 7341   6.819   8.464  -0.643 -0.5430 -0.8827  0.5761
   18CHTO   N13 7342   6.749   8.659  -0.631 -0.4735 -0.8424  0.4717
   18CHTO  H139 7343   6.827   8.663  -0.556  0.9454 -3.6443 -0.7875
   18CHTO  H140 7344   6.657   8.684  -0.579  0.0630 -0.7626  1.3864
   18CHTO   C76 7345   6.599   8.449  -0.650  0.6691  0.1436  0.0976
   18CHTO  H148 7346   6.522   8.501  -0.707 -0.7832 -1.0197  0.9626
   18CHTO   O49 7347   6.614   8.307  -0.692  0.2253 -0.2192 -0.1743
   18CHTO   C77 7348   6.637   8.285  -0.831 -0.3246 -0.0365  0.2528
   18CHTO  H149 7349   6.549   8.324  -0.883 -0.2305  0.2560  0.3125
   18CHTO   C88 7350   6.654   8.133  -0.848 -0.0280 -0.0946  0.0725
   18CHTO   O58 7351   6.673   8.101  -0.975  0.1874  0.5019 -0.2752
   18CHTO  H136 7352   6.756   8.127  -1.008  0.5098  0.6657  0.6482
   18CHTO   O51 7353   6.568   8.444  -0.500 -0.0129 -0.2403  0.7536
   18CHTO   C78 7354   6.436   8.334  -0.466  0.3435 -0.0758 -0.0585
   18CHTO  H150 7355   6.431   8.242  -0.529  1.5146 -0.0398 -0.2203
   18CHTO   C80 7356   6.294   8.400  -0.468  0.3438 -0.5964 -0.5864
   18CHTO  H152 7357   6.292   8.488  -0.401  0.5280  0.7493 -2.3083
   18CHTO   O55 7358   6.269   8.455  -0.599 -0.3737  0.1672 -0.0755
   18CHTO  H134 7359   6.235   8.388  -0.654  1.9782 -1.9064  0.9059
   18CHTO   C84 7360   6.189   8.289  -0.426  0.1334  0.2150 -0.5843
   18CHTO  H156 7361   6.203   8.203  -0.492 -2.4850 -0.5671 -0.1798
   18CHTO   N15 7362   6.044   8.334  -0.429  0.0353  0.2213 -0.2786
   18CHTO  H143 7363   6.029   8.435  -0.394 -0.0652 -0.3448  1.3781
   18CHTO  H144 7364   5.972   8.270  -0.384  0.1977  0.3959  0.2409
   18CHTO   C87 7365   6.236   8.233  -0.292  0.7125  0.7960  0.0304
   18CHTO  H159 7366   6.245   8.313  -0.218 -0.0816  0.5134  0.4344
   18CHTO   O53 7367   6.368   8.174  -0.303 -0.1492 -0.2658  0.1894
   18CHTO   C82 7368   6.466   8.275  -0.327 -0.2924 -0.4206  0.3173
   18CHTO  H154 7369   6.457   8.348  -0.247 -0.2015 -2.3315  2.1303
   18CHTO   C89 7370   6.607   8.215  -0.322 -1.0638  0.0703 -0.1235
   18CHTO   O59 7371   6.664   8.210  -0.190 -0.1353  0.3289  0.2536
   18CHTO  H137 7372   6.755   8.192  -0.205 -0.9608 -1.9164 -2.5198
   18CHTO   O45 7373   6.160   8.108  -0.225 -0.0633  0.1944 -0.1429
   18CHTO   C67 7374   6.176   8.098  -0.080 -0.2045  0.5258  0.4725
   18CHTO  H124 7375   6.257   8.157  -0.038 -1.0719  2.4622 -0.5057
   18CHTO   C65 7376   6.043   8.160  -0.030 -0.7667  0.2370 -0.0940
   18CHTO  H122 7377   5.957   8.142  -0.094  0.1654 -0.2293 -1.2321
   18CHTO   O44 7378   6.070   8.302  -0.024 -0.3480 -0.0278  0.5090
   18CHTO  H102 7379   6.010   8.346  -0.081 -0.0102  0.4375  0.5147
   18CHTO   C63 7380   5.987   8.098   0.100  0.1339 -0.4732 -0.4945
   18CHTO  H120 7381   5.939   8.003   0.079 -1.4428  0.3338 -0.6340
   18CHTO   N11 7382   5.889   8.171   0.181 -0.4594 -0.3887 -0.8860
   18CHTO  H108 7383   5.809   8.110   0.217 -1.8477  1.8659 -0.0032
   18CHTO  H109 7384   5.858   8.258   0.127  2.8593  0.5112 -1.4915
   18CHTO   C61 7385   6.113   8.060   0.186 -0.2223 -0.6961  0.1513
   18CHTO  H118 7386   6.078   8.018   0.281 -0.9023 -0.8743 -0.1776
   18CHTO   O40 7387   6.182   7.953   0.124  0.3285 -0.2830  0.4751
   18CHTO   C68 7388   6.201   7.953  -0.022  0.0888  0.2400 -0.0203
   18CHTO  H125 7389   6.130   7.878  -0.061  1.0575 -1.7652  1.9051
   18CHTO   C72 7390   6.343   7.909  -0.061 -0.8671 -0.2626  0.2703
   18CHTO   O48 7391   6.353   7.859  -0.196 -0.4949  0.2057  0.2407
   18CHTO  H105 7392   6.299   7.782  -0.195 -1.7490  1.0362 -1.1275
   18CHTO   O38 7393   6.211   8.160   0.208 -0.3817 -0.4978 -0.0668
   18CHTO   C55 7394   6.289   8.162   0.328  0.2837 -0.1319 -0.4452
   18CHTO  H112 7395   6.342   8.068   0.347 -1.3900 -0.5951  2.2150
   18CHTO   C56 7396   6.220   8.212   0.459  0.0292 -0.9666 -0.7339
   18CHTO  H113 7397   6.198   8.318   0.438 -0.4874 -0.6435  1.3369
   18CHTO   O42 7398   6.098   8.142   0.478 -0.1008  0.6471  0.6166
   18CHTO  H100 7399   6.043   8.142   0.403  0.7538  0.0709 -0.0202
   18CHTO   C57 7400   6.322   8.207   0.573 -0.3764  0.1743 -0.5666
   18CHTO  H114 7401   6.358   8.106   0.589  0.8734  0.7117  0.1644
   18CHTO   N10 7402   6.272   8.244   0.709  0.3491  0.2157 -0.0252
   18CHTO  H106 7403   6.317   8.174   0.778 -1.5247  0.3279  1.3306
   18CHTO  H107 7404   6.166   8.227   0.715  0.3494 -0.0737 -0.7994
   18CHTO   C58 7405   6.445   8.296   0.533  0.1342 -0.8839  0.4483
   18CHTO  H115 7406   6.417   8.403   0.542  1.5466 -0.6200  1.9455
   18CHTO   O37 7407   6.498   8.281   0.399  0.2771 -0.3413 -0.1279
   18CHTO   C59 7408   6.403   8.265   0.295  0.7083  0.1484  0.4420
   18CHTO  H116 7409   6.349   8.360   0.284 -2.0437 -1.4440 -0.2282
   18CHTO   C70 7410   6.473   8.222   0.165  0.1860 -0.4843 -0.4412
   18CHTO   O46 7411   6.590   8.140   0.190 -0.5809  0.4592 -0.2142
   18CHTO  H103 7412   6.654   8.159   0.124 -0.5974 -1.2455 -0.7601
   18CHTO   O39 7413   6.570   8.270   0.637 -0.5069 -0.2440  0.1169
   18CHTO   C60 7414   6.628   8.139   0.623 -0.5272  0.2093  0.2537
   18CHTO  H117 7415   6.571   8.068   0.562  1.8221 -0.2149 -1.5016
   18CHTO   C62 7416   6.760   8.149   0.547 -1.1050  0.6074 -0.2415
   18CHTO  H119 7417   6.749   8.219   0.461 -2.7229  0.3148 -0.2840
   18CHTO   O43 7418   6.871   8.222   0.610  0.6309  0.1842 -0.2022
   18CHTO  H101 7419   6.845   8.268   0.688  2.7989 -1.2032  1.3935
   18CHTO   C66 7420   6.805   7.999   0.491  0.1386 -0.4902  0.1514
   18CHTO  H123 7421   6.720   7.962   0.434  0.4083  0.5918 -0.9851
   18CHTO   N12 7422   6.917   8.001   0.396 -0.2163 -0.1941  1.0860
   18CHTO  H110 7423   7.013   8.013   0.444  0.4258 -0.6735 -0.0579
   18CHTO  H111 7424   6.915   7.899   0.361  0.9203 -0.7780  2.6451
   18CHTO   C69 7425   6.827   7.897   0.610  0.3086  0.0581 -0.0515
   18CHTO  H126 7426   6.919   7.917   0.669 -0.4820  2.7938  0.3749
   18CHTO   O41 7427   6.712   7.913   0.713 -0.1943  0.1043 -0.8046
   18CHTO   C64 7428   6.665   8.065   0.757 -0.5802 -0.1003  0.0793
   18CHTO  H121 7429   6.744   8.118   0.813  0.4145  0.1779 -1.5383
   18CHTO   C71 7430   6.557   8.054   0.853  0.0536 -0.4339 -0.0049
   18CHTO   O47 7431   6.530   8.185   0.897 -0.0629 -0.3009  0.0204
   18CHTO  H104 7432   6.471   8.185   0.969 -0.5537  1.9744 -0.3455
   18CHTO   O34 7433   6.838   7.733   0.539  0.1786 -0.4627  0.0873
   18CHTO   C49 7434   6.803   7.605   0.454 -0.7662 -0.1874 -0.3776
   18CHTO   H91 7435   6.900   7.557   0.437 -0.3666 -0.1885  1.8185
   18CHTO   C47 7436   6.751   7.635   0.309 -0.1298  0.1838 -0.0054
   18CHTO   H89 7437   6.745   7.534   0.262 -1.1693 -0.6137  1.8153
   18CHTO   O33 7438   6.852   7.721   0.241  0.4727  0.3371  0.1272
   18CHTO   H70 7439   6.932   7.670   0.241  0.8039  0.8557 -0.3163
   18CHTO   C45 7440   6.606   7.707   0.307  0.2295 -0.3273  0.0436
   18CHTO   H87 7441   6.619   7.816   0.315 -0.3193 -0.3440  1.2713
   18CHTO    N8 7442   6.540   7.677   0.178 -0.5843 -0.4387 -0.2298
   18CHTO   H75 7443   6.606   7.708   0.098 -0.2048 -1.5820 -0.3710
   18CHTO   H76 7444   6.501   7.577   0.163  0.7873 -0.9239 -0.7080
   18CHTO   C43 7445   6.522   7.668   0.441  0.4337  0.3651  0.3420
   18CHTO   H85 7446   6.556   7.741   0.514 -1.4858  2.3776 -0.6875
   18CHTO   O29 7447   6.550   7.533   0.477 -0.4710 -0.4352  0.3520
   18CHTO   C50 7448   6.691   7.516   0.522 -0.4953  0.6650  0.0886
   18CHTO   H92 7449   6.698   7.543   0.628  0.4677 -3.5539  1.1965
   18CHTO   C54 7450   6.730   7.367   0.518  0.5715  0.1916  0.4053
   18CHTO   O36 7451   6.672   7.294   0.405  0.6062  0.8385 -0.6770
   18CHTO   H72 7452   6.589   7.333   0.385  0.4119  0.6908 -0.1409
   18CHTO   O27 7453   6.379   7.699   0.442 -0.4454 -0.2144 -0.0329
   18CHTO   C37 7454   6.273   7.699   0.534 -0.1244  0.5937 -0.5640
   18CHTO   H79 7455   6.239   7.595   0.548 -0.3454  1.0050  2.2387
   18CHTO   C38 7456   6.321   7.755   0.671  0.3176 -0.3008  0.4085
   18CHTO   H80 7457   6.374   7.850   0.658  0.8571 -0.7926 -1.0221
   18CHTO   O31 7458   6.407   7.658   0.729 -0.1755 -0.0672 -0.0902
   18CHTO   H68 7459   6.360   7.576   0.732  0.3018 -0.3880 -1.1977
   18CHTO   C39 7460   6.202   7.781   0.776 -0.6415 -0.4925 -0.2576
   18CHTO   H81 7461   6.165   7.683   0.807  0.2522  0.0535  2.7577
   18CHTO    N7 7462   6.239   7.853   0.901 -0.1090 -0.3061  0.3332
   18CHTO   H73 7463   6.346   7.867   0.901  0.4236 -3.9516  0.0567
   18CHTO   H74 7464   6.215   7.787   0.984  0.9910 -0.9676  0.1252
   18CHTO   C40 7465   6.083   7.860   0.708  0.8186  0.0576 -0.6150
   18CHTO   H82 7466   6.118   7.961   0.689  2.4888 -0.2494  0.6747
   18CHTO   O26 7467   6.044   7.790   0.586 -0.0123 -0.6939 -0.7189
   18CHTO   C41 7468   6.148   7.786   0.483 -0.1072 -0.7490 -0.4455
   18CHTO   H83 7469   6.179   7.890   0.468 -1.6077  0.2317  2.9429
   18CHTO   C52 7470   6.089   7.721   0.359  0.3390 -0.0776 -0.0202
   18CHTO   O35 7471   5.947   7.796   0.319 -0.1389  0.0002 -0.3947
   18CHTO   H71 7472   5.885   7.738   0.281  0.8426 -2.0545  1.0379
   18CHTO   O28 7473   5.956   7.849   0.794 -0.4401  0.6006  0.0418
   18CHTO   C42 7474   5.814   7.830   0.754  0.1520 -0.5198 -0.0982
   18CHTO   H84 7475   5.754   7.856   0.842  0.2354  0.4816 -0.3247
   18CHTO   C44 7476   5.776   7.686   0.717 -0.9292 -0.7834 -0.5705
   18CHTO   H86 7477   5.835   7.662   0.628  1.3543  1.1079  0.3815
   18CHTO   O32 7478   5.832   7.609   0.825  0.3016 -0.1916  0.0565
   18CHTO   H69 7479   5.783   7.537   0.858  2.3695 -0.5991  2.4228
   18CHTO   C48 7480   5.623   7.670   0.682 -0.6333  0.0929 -0.4805
   18CHTO   H90 7481   5.560   7.709   0.762 -0.7413  4.9092 -2.7504
   18CHTO    N9 7482   5.595   7.526   0.655 -0.4744 -0.6754  1.0406
   18CHTO   H77 7483   5.507   7.524   0.592 -0.2315  0.7772  0.6308
   18CHTO   H78 7484   5.568   7.484   0.751 -1.4622 -0.9327  0.6545
   18CHTO   C51 7485   5.604   7.747   0.546  0.0982  0.0408 -0.4582
   18CHTO   H93 7486   5.683   7.720   0.476 -0.2348 -3.0494  0.3163
   18CHTO   O30 7487   5.610   7.882   0.590 -0.3120  0.6233 -0.1181
   18CHTO   C46 7488   5.761   7.925   0.638 -0.0226  0.4008  0.8029
   18CHTO   H88 7489   5.818   7.919   0.545  0.1861  0.6839  0.9161
   18CHTO   C53 7490   5.752   8.071   0.689  0.0258 -0.1980 -0.2100
   18CHTO   O72 7491   5.882   8.126   0.714 -0.3852  0.2441 -0.4508
   18CHTO  H199 7492   5.914   8.124   0.802  1.8794 -1.0481 -1.2693
   18CHTO   O22 7493   5.471   7.751   0.483  0.1903 -0.1985  0.1855
   18CHTO   C31 7494   5.468   7.780   0.335 -0.4031 -0.3658 -0.1225
   18CHTO   H59 7495   5.360   7.783   0.309  0.0292  1.9788 -1.7695
   18CHTO   C29 7496   5.523   7.915   0.287 -0.3852 -0.4096 -0.4775
   18CHTO   H57 7497   5.629   7.928   0.315 -0.9640  1.7857  0.8209
   18CHTO   O21 7498   5.447   8.017   0.356 -0.3105  0.2048 -0.1930
   18CHTO   H37 7499   5.364   8.026   0.312  0.0491  2.2404 -0.5311
   18CHTO   C27 7500   5.510   7.918   0.134 -0.1412 -0.1301  0.2821
   18CHTO   H55 7501   5.406   7.896   0.104 -0.5554 -2.0926  2.9352
   18CHTO    N5 7502   5.543   8.052   0.076 -0.9321 -0.0016  0.3345
   18CHTO   H43 7503   5.553   8.041  -0.031  0.4591 -0.5574  0.5087
   18CHTO   H44 7504   5.466   8.128   0.078 -1.4038 -0.5043  1.5078
   18CHTO   C25 7505   5.596   7.808   0.074 -0.1331 -0.5960  0.0677
   18CHTO   H53 7506   5.694   7.827   0.119 -0.0288  0.8687 -0.7618
   18CHTO   O17 7507   5.538   7.684   0.117 -0.6162  0.0577 -0.2135
   18CHTO   C32 7508   5.535   7.663   0.257 -0.4748 -0.3056  0.6722
   18CHTO   H60 7509   5.641   7.657   0.280 -0.2142 -0.4105 -0.5066
   18CHTO   C36 7510   5.482   7.533   0.291  0.3047  0.5664  0.2795
   18CHTO   O25 7511   5.498   7.427   0.192  0.3391  0.8727  0.2468
   18CHTO   H40 7512   5.586   7.393   0.196  0.0290  0.1523  1.1591
   18CHTO   O15 7513   5.614   7.799  -0.068 -0.5740  0.0917 -0.1659
   18CHTO   C19 7514   5.683   7.765  -0.194  0.6635  0.3847  0.0840
   18CHTO   H47 7515   5.646   7.665  -0.217 -1.1569  0.8442  0.9770
   18CHTO   C20 7516   5.652   7.855  -0.315 -0.4454 -0.0348  1.4301
   18CHTO   H48 7517   5.659   7.962  -0.291 -1.1149  0.6142 -1.0781
   18CHTO   O19 7518   5.515   7.845  -0.356 -0.1483  0.0215 -0.5774
   18CHTO   H35 7519   5.500   7.912  -0.419  0.4479  0.1440 -0.5850
   18CHTO   C21 7520   5.747   7.816  -0.442 -0.1632  1.0318 -0.1486
   18CHTO   H49 7521   5.713   7.718  -0.476  1.1356 -0.7493  3.3649
   18CHTO    N4 7522   5.738   7.909  -0.558  0.0790 -0.9825  0.0172
   18CHTO   H41 7523   5.661   7.984  -0.548  0.4798 -0.4637 -0.7355
   18CHTO   H42 7524   5.833   7.956  -0.579 -0.6787 -0.0861 -1.4994
   18CHTO   C22 7525   5.895   7.797  -0.394 -0.5270  0.4207  0.3055
   18CHTO   H50 7526   5.933   7.892  -0.356 -0.6918 -0.0216  1.6141
   18CHTO   O14 7527   5.902   7.706  -0.285 -0.0073 -0.6270 -0.4053
   18CHTO   C23 7528   5.840   7.754  -0.161  0.3272 -0.2072  0.2353
   18CHTO   H51 7529   5.877   7.853  -0.130 -2.5335  0.9288  0.1387
   18CHTO   C34 7530   5.875   7.656  -0.050  0.2919 -0.6478 -0.0966
   18CHTO   O23 7531   5.852   7.520  -0.090 -0.3240  0.1035  0.2543
   18CHTO   H38 7532   5.905   7.466  -0.035  1.0552  2.2487  1.0931
   18CHTO   O16 7533   5.981   7.755  -0.499  0.2200  0.3716  0.1711
   18CHTO   C24 7534   6.132   7.803  -0.489  0.2716  0.2729 -0.2852
   18CHTO   H52 7535   6.151   7.860  -0.398 -1.7855  1.8000 -0.7764
   18CHTO   C26 7536   6.154   7.902  -0.610  0.8621 -0.2259 -0.3199
   18CHTO   H54 7537   6.134   7.850  -0.706  2.4131  0.3879 -0.9880
   18CHTO   O20 7538   6.061   8.016  -0.600 -0.1140  0.0496  0.2290
   18CHTO   H36 7539   5.975   8.001  -0.633 -0.7051  0.3011  1.6333
   18CHTO   C30 7540   6.311   7.931  -0.610 -0.7182  0.1397 -0.2958
   18CHTO   H58 7541   6.335   7.991  -0.521 -0.7372  0.3928 -0.4599
   18CHTO    N6 7542   6.349   8.006  -0.734 -0.0280  0.4224 -0.1979
   18CHTO   H45 7543   6.454   8.027  -0.747 -0.1761  0.9916 -0.4886
   18CHTO   H46 7544   6.296   8.100  -0.743 -2.2355 -0.9040 -1.5680
   18CHTO   C33 7545   6.394   7.798  -0.595  0.0146 -0.2067 -0.1324
   18CHTO   H61 7546   6.374   7.740  -0.686  0.5497 -1.2562  0.4150
   18CHTO   O18 7547   6.357   7.728  -0.472 -0.1776 -0.1148 -0.8541
   18CHTO   C28 7548   6.223   7.672  -0.479  0.8511 -0.6737  0.0537
   18CHTO   H56 7549   6.209   7.608  -0.566 -1.6814  0.5884 -0.4880
   18CHTO   C35 7550   6.178   7.593  -0.356  0.7190 -0.3181 -0.8490
   18CHTO   O24 7551   6.260   7.483  -0.311  0.1002  0.1726  0.4609
   18CHTO   H39 7552   6.348   7.508  -0.289  0.5342 -0.6271 -0.3284
   18CHTO    O9 7553   6.532   7.836  -0.599 -0.0109  0.3238  0.2683
   18CHTO   C13 7554   6.624   7.743  -0.694 -0.7647  0.2112  0.6832
   18CHTO   H26 7555   6.635   7.795  -0.792 -1.0779  0.8323  0.9728
   18CHTO   C11 7556   6.575   7.600  -0.713 -0.0454  0.2140 -0.2328
   18CHTO   H24 7557   6.486   7.603  -0.778  1.0115 -0.0741 -1.7134
   18CHTO    O8 7558   6.521   7.537  -0.585  0.3106  0.0574  0.2654
   18CHTO    H3 7559   6.465   7.596  -0.537  1.6993  1.7242 -0.1030
   18CHTO    C9 7560   6.684   7.519  -0.775  0.3819  0.3265  0.3602
   18CHTO   H22 7561   6.722   7.575  -0.862  0.7934  0.1823  0.4461
   18CHTO    N2 7562   6.635   7.395  -0.834 -0.0456  0.0966 -0.2703
   18CHTO   H10 7563   6.714   7.329  -0.867  1.3349  1.2445  0.6960
   18CHTO   H11 7564   6.567   7.412  -0.916 -1.3673 -1.5770  0.4491
   18CHTO    C7 7565   6.801   7.504  -0.676 -0.1837  0.2745  0.4716
   18CHTO   H20 7566   6.887   7.498  -0.746  1.1978  0.0182  2.1630
   18CHTO    O4 7567   6.820   7.614  -0.583 -0.1764  0.2079  0.2715
   18CHTO   C14 7568   6.779   7.741  -0.628 -0.6350  0.0082  0.1272
   18CHTO   H27 7569   6.850   7.772  -0.708 -0.4087 -0.3070  0.2004
   18CHTO   C18 7570   6.807   7.844  -0.512  0.0480 -0.2662 -0.0782
   18CHTO   O13 7571   6.735   7.819  -0.391  0.0507 -0.2729 -0.0987
   18CHTO    H7 7572   6.781   7.879  -0.335  0.3410 -0.7804  0.2115
   18CHTO    O2 7573   6.779   7.357  -0.578  0.3553 -0.1905  0.7963
   18CHTO    C1 7574   6.875   7.337  -0.480  0.6047  1.0945  0.5528
   18CHTO   H14 7575   6.927   7.432  -0.457 -1.1507  2.4030 -0.7259
   18CHTO    C2 7576   6.985   7.228  -0.518 -0.1455  0.5892 -0.0981
   18CHTO   H15 7577   6.933   7.143  -0.563  0.8515  0.8040 -1.7085
   18CHTO    O6 7578   7.073   7.294  -0.611  0.2139 -0.2279 -0.5313
   18CHTO    H1 7579   7.023   7.345  -0.671 -0.4152  0.8329  0.8720
   18CHTO    C3 7580   7.067   7.179  -0.389  1.0946 -0.5604  0.1650
   18CHTO   H16 7581   7.130   7.267  -0.368  0.5624  0.2264 -1.4389
   18CHTO    N1 7582   7.156   7.066  -0.421  0.6204  0.3911  0.6669
   18CHTO    H8 7583   7.243   7.100  -0.476  0.3121 -0.1225 -0.1471
   18CHTO    H9 7584   7.184   6.997  -0.343 -2.1323 -0.8286  0.6279
   18CHTO    C4 7585   6.975   7.160  -0.258  0.1984 -0.1346 -0.2570
   18CHTO   H17 7586   6.908   7.076  -0.271 -0.4699  0.4086 -0.3345
   18CHTO    O1 7587   6.896   7.280  -0.247 -0.1390 -0.1057 -0.2578
   18CHTO    C5 7588   6.807   7.290  -0.357  0.8875 -0.2217 -0.2023
   18CHTO   H18 7589   6.753   7.197  -0.376 -0.0425 -0.0520  1.4961
   18CHTO   C16 7590   6.698   7.390  -0.313  0.5360  0.0167  0.6094
   18CHTO   O11 7591   6.647   7.373  -0.184  0.2586 -0.0504 -0.0602
   18CHTO    H5 7592   6.586   7.441  -0.162 -0.2780 -0.3660 -0.5521
   18CHTO    O3 7593   7.060   7.156  -0.146 -1.1832  0.4567 -0.5314
   18CHTO    C6 7594   6.997   7.112  -0.024  0.7222 -0.7202 -0.3574
   18CHTO   H19 7595   6.893   7.083  -0.042  0.6181  0.3489 -1.5845
   18CHTO    C8 7596   7.079   6.984   0.029  0.3647 -0.5804 -0.6398
   18CHTO   H21 7597   7.182   7.015   0.051  0.3636 -1.9482  1.3774
   18CHTO    O7 7598   7.087   6.883  -0.071  0.6836 -0.1386  0.0095
   18CHTO    H2 7599   7.133   6.812  -0.031 -1.4943 -1.9571 -0.6150
   18CHTO   C12 7600   7.016   6.939   0.164 -0.2832  0.4646 -0.4656
   18CHTO   H25 7601   6.915   6.900   0.137  1.2680 -2.5988 -2.0905
   18CHTO    N3 7602   7.091   6.822   0.216 -0.5611  0.1596  0.4674
   18CHTO   H12 7603   7.092   6.748   0.137 -3.4567 -0.2075  0.7001
   18CHTO   H13 7604   7.192   6.851   0.239 -0.6260  0.2840  0.5941
   18CHTO   C15 7605   7.011   7.060   0.264 -0.4517  0.4275 -0.0430
   18CHTO   H28 7606   7.112   7.092   0.287  0.2233 -1.7594  0.2250
   18CHTO   O10 7607   6.932   7.024   0.385  0.9672 -0.4695 -0.3055
   18CHTO    H4 7608   6.994   7.004   0.452  0.2223  0.5168  0.6849
   18CHTO    O5 7609   6.927   7.162   0.207 -0.0142 -0.1609  0.0775
   18CHTO   C10 7610   6.993   7.221   0.093 -0.1438 -0.3598  0.3512
   18CHTO   H23 7611   7.091   7.260   0.119 -0.4270 -0.3059  1.3452
   18CHTO   C17 7612   6.906   7.343   0.055  0.2658 -0.0739 -0.3142
   18CHTO   O12 7613   6.993   7.443   0.006  0.1135  0.1397  0.1579
   18CHTO    H6 7614   6.944   7.523  -0.003  0.8708  0.4910 -0.7940
   19CHTO  H203 7615   6.480   8.798   1.528 -0.0417 -0.3672  0.3304
   19CHTO   O82 7616   6.486   8.708   1.501 -0.4838 -0.2617 -0.1153
   19CHTO  C123 7617   6.391   8.666   1.405  0.4519 -0.2690 -0.2741
   19CHTO  H227 7618   6.415   8.711   1.307  2.1887 -2.2075 -0.7824
   19CHTO   O77 7619   6.417   8.524   1.405 -0.3085  0.0737 -0.1493
   19CHTO  C118 7620   6.358   8.460   1.290  0.4976  0.8343  0.1644
   19CHTO  H222 7621   6.401   8.507   1.201  1.1180  0.9047  0.5007
   19CHTO  C125 7622   6.418   8.311   1.300 -0.5552  0.2213 -0.3175
   19CHTO   O84 7623   6.449   8.246   1.175 -0.4183 -0.1310  0.5990
   19CHTO  H205 7624   6.492   8.166   1.198  0.2042 -1.2054 -3.7553
   19CHTO  C114 7625   6.209   8.473   1.299 -0.2828  1.0408  0.0167
   19CHTO  H218 7626   6.170   8.418   1.385 -2.9055  1.3495 -0.9206
   19CHTO  C116 7627   6.167   8.618   1.316  0.4348 -0.5110  0.0222
   19CHTO  H220 7628   6.188   8.676   1.224 -1.4676  1.4510  0.7751
   19CHTO   O79 7629   6.022   8.609   1.319  0.3821  0.0360 -0.3215
   19CHTO  H201 7630   5.988   8.548   1.381  1.1448 -1.2788 -1.1885
   19CHTO  C120 7631   6.237   8.684   1.435 -0.0971 -0.1403 -0.2964
   19CHTO  H224 7632   6.211   8.627   1.527 -0.8304 -0.7213 -0.8535
   19CHTO   N21 7633   6.193   8.823   1.463  0.3500 -0.1524  0.0719
   19CHTO  H211 7634   6.251   8.891   1.402 -0.1538 -0.3834 -0.6619
   19CHTO  H212 7635   6.216   8.837   1.567  1.4649 -1.3152 -0.0000
   19CHTO   O75 7636   6.157   8.418   1.179  0.0425 -0.3342 -0.2382
   19CHTO  C112 7637   6.043   8.305   1.219 -0.0292 -0.4414 -0.2231
   19CHTO  H216 7638   5.976   8.336   1.301 -0.7284  0.2284 -1.0260
   19CHTO   O73 7639   6.117   8.186   1.251 -0.0007 -0.4676 -0.3253
   19CHTO  C113 7640   6.046   8.069   1.293  0.1195  0.2211  0.3698
   19CHTO  H217 7641   6.000   8.092   1.391 -0.1211  1.4448 -0.0173
   19CHTO  C124 7642   6.141   7.942   1.302  0.8579 -0.2506 -0.3188
   19CHTO   O83 7643   6.249   7.955   1.394  0.0606  0.4010 -0.1468
   19CHTO  H204 7644   6.310   7.884   1.390 -0.4844  0.0158 -1.5035
   19CHTO  C109 7645   5.936   8.039   1.184  0.5233 -0.0087 -0.1661
   19CHTO  H213 7646   5.988   8.000   1.095 -1.5858 -1.4444 -0.8082
   19CHTO  C110 7647   5.841   8.156   1.147 -0.0511 -0.3112 -0.0251
   19CHTO  H214 7648   5.783   8.185   1.235  0.3429  0.0720  0.1066
   19CHTO   O78 7649   5.744   8.119   1.041 -1.0345  0.4940  0.1936
   19CHTO  H200 7650   5.696   8.189   1.001 -1.7701 -0.1653 -0.1078
   19CHTO  C111 7651   5.934   8.272   1.104 -0.2559  0.0175 -0.1860
   19CHTO  H215 7652   5.995   8.241   1.019  0.4558  1.2390 -0.1419
   19CHTO   N19 7653   5.862   8.395   1.065 -0.0252 -0.2813 -0.6193
   19CHTO  H207 7654   5.904   8.476   1.122 -1.7558 -1.9288  3.1881
   19CHTO  H208 7655   5.886   8.400   0.960 -0.8640 -3.9804 -1.0399
   19CHTO   O74 7656   5.864   7.921   1.236  0.1908  0.1577  0.2080
   19CHTO  C115 7657   5.814   7.806   1.123  0.1583 -1.1354 -0.0840
   19CHTO  H219 7658   5.772   7.856   1.036 -0.5630 -1.0491  0.3029
   19CHTO   O76 7659   5.932   7.709   1.078  0.6002  0.0154  0.1051
   19CHTO  C122 7660   5.973   7.613   1.184  0.3033 -0.5263 -0.0277
   19CHTO  H226 7661   6.023   7.674   1.259 -0.4172  1.1248 -0.8807
   19CHTO  C126 7662   6.086   7.508   1.125  0.4418  0.0434  0.1135
   19CHTO   O85 7663   6.215   7.569   1.103  0.2484  0.5901  0.2387
   19CHTO  H206 7664   6.239   7.614   1.181 -0.4234 -0.3532  0.9979
   19CHTO  C121 7665   5.849   7.534   1.245 -0.2562 -0.4686 -0.5704
   19CHTO  H225 7666   5.868   7.425   1.240  1.6630 -0.1501 -0.8406
   19CHTO   O81 7667   5.835   7.569   1.378  0.0097  0.1370 -0.7428
   19CHTO  H202 7668   5.787   7.509   1.432 -1.4415  0.5894 -1.5203
   19CHTO  C119 7669   5.720   7.563   1.181 -0.2768 -0.2235  0.0347
   19CHTO  H223 7670   5.744   7.533   1.079  0.2995 -0.9221  0.3728
   19CHTO  C117 7671   5.691   7.726   1.181  0.3869 -0.1326 -0.0662
   19CHTO  H221 7672   5.678   7.765   1.282  0.5980  0.2776 -0.1972
   19CHTO   N20 7673   5.557   7.764   1.113  0.1970  0.4046  0.2689
   19CHTO  H209 7674   5.510   7.678   1.069 -0.9580  0.3594  1.5799
   19CHTO  H210 7675   5.475   7.814   1.162 -3.4314 -2.4083 -2.7548
   19CHTO   O80 7676   5.583   7.463   1.224 -0.1665 -0.2374  0.4300
   19CHTO  C103 7677   5.594   7.302   1.230  0.1852 -0.4663 -0.6003
   19CHTO  H190 7678   5.685   7.273   1.176 -0.4972 -0.3829 -1.8176
   19CHTO  C101 7679   5.600   7.233   1.359 -0.0754 -0.3573  0.3851
   19CHTO  H188 7680   5.526   7.285   1.419  0.6624  1.0878  0.0626
   19CHTO   O68 7681   5.739   7.253   1.426  0.5364 -0.5186 -0.1267
   19CHTO  H168 7682   5.805   7.196   1.392 -0.0756 -0.9792 -0.5563
   19CHTO   C99 7683   5.573   7.081   1.348 -0.8114  0.3376  0.5577
   19CHTO  H186 7684   5.655   7.039   1.286 -1.7546  1.6563 -1.6568
   19CHTO   N17 7685   5.580   7.002   1.476 -0.1154  0.1779  0.3166
   19CHTO  H174 7686   5.671   7.032   1.524  0.4565 -0.2335 -0.4999
   19CHTO  H175 7687   5.502   7.037   1.542 -0.9622  1.9936 -1.5777
   19CHTO   C97 7688   5.442   7.050   1.272  0.2526 -0.1441  0.2734
   19CHTO  H184 7689   5.353   7.084   1.326  0.3256 -0.7583  0.8004
   19CHTO   O64 7690   5.463   7.109   1.142  0.1685  0.5185  0.3008
   19CHTO  C104 7691   5.464   7.256   1.149 -0.4547  0.1885  0.3936
   19CHTO  H191 7692   5.378   7.301   1.198  2.0869  4.0954  1.5284
   19CHTO  C108 7693   5.471   7.314   1.006  0.7929 -0.1479  0.8275
   19CHTO   O71 7694   5.349   7.325   0.946  0.3390  0.2613  0.5749
   19CHTO  H171 7695   5.321   7.242   0.911  2.8792 -0.2644 -0.3067
   19CHTO   O62 7696   5.435   6.909   1.242  0.1078  0.7021  0.0331
   19CHTO   C91 7697   5.307   6.856   1.198 -0.6167  0.2570 -0.4726
   19CHTO  H178 7698   5.229   6.910   1.251 -0.5739  0.2833 -0.4354
   19CHTO   C92 7699   5.313   6.702   1.244 -0.3806 -0.2254 -0.7534
   19CHTO  H179 7700   5.418   6.674   1.232  1.0165  3.5638  1.6419
   19CHTO   O66 7701   5.291   6.707   1.386  0.3838 -0.0074  0.4328
   19CHTO  H166 7702   5.340   6.771   1.434  0.7318 -0.2421  0.3976
   19CHTO   C93 7703   5.214   6.597   1.166 -0.1687  0.3168 -0.1638
   19CHTO  H180 7704   5.107   6.610   1.190  0.3043  0.0906  2.1106
   19CHTO   N16 7705   5.249   6.456   1.200  0.1271  1.1194  0.2417
   19CHTO  H172 7706   5.170   6.389   1.167  0.5267  0.7025  0.1287
   19CHTO  H173 7707   5.344   6.428   1.157 -1.0527 -2.0755 -0.3999
   19CHTO   C94 7708   5.230   6.620   1.016 -0.1191 -0.3146 -0.2961
   19CHTO  H181 7709   5.335   6.628   0.987 -0.4004  0.8697 -1.0423
   19CHTO   O61 7710   5.178   6.755   1.005  0.2562 -0.0730 -0.0899
   19CHTO   C95 7711   5.266   6.863   1.047  0.0508 -0.0054  0.0674
   19CHTO  H182 7712   5.354   6.860   0.981 -0.5198  0.6943 -0.7332
   19CHTO  C106 7713   5.181   6.987   1.017  0.1501  0.1007 -0.1604
   19CHTO   O69 7714   5.198   7.023   0.884 -0.0629  0.2518 -0.3205
   19CHTO  H169 7715   5.115   7.050   0.851 -1.0658 -2.1122  0.1782
   19CHTO   O63 7716   5.126   6.530   0.930  0.1746  0.0549  0.1873
   19CHTO   C96 7717   5.202   6.434   0.812 -0.5412  0.2126  0.0361
   19CHTO  H183 7718   5.268   6.372   0.872 -0.4309  0.1074 -0.1977
   19CHTO   C98 7719   5.284   6.512   0.706  1.0051  0.7073 -0.9328
   19CHTO  H185 7720   5.338   6.591   0.760  1.4744 -1.0811  1.2771
   19CHTO   O67 7721   5.381   6.417   0.655  0.0407  0.7290  0.0668
   19CHTO  H167 7722   5.451   6.453   0.605  0.6018 -0.4220 -0.0066
   19CHTO  C102 7723   5.200   6.583   0.590  0.3021 -0.0669  0.0356
   19CHTO  H189 7724   5.270   6.617   0.513 -0.4801  0.0415 -0.6296
   19CHTO   N18 7725   5.127   6.702   0.627 -0.2998 -0.1560  0.1939
   19CHTO  H176 7726   5.110   6.705   0.734 -0.6755  1.3541  0.0928
   19CHTO  H177 7727   5.174   6.796   0.605  0.3059 -0.3821  0.5113
   19CHTO  C105 7728   5.103   6.473   0.532  0.3955 -0.4703 -0.7321
   19CHTO  H192 7729   5.000   6.509   0.528 -0.5422 -2.7485  1.4649
   19CHTO   O65 7730   5.109   6.348   0.592 -0.3277 -0.1812 -0.5893
   19CHTO  C100 7731   5.090   6.347   0.739 -0.4462 -0.0661 -0.3838
   19CHTO  H187 7732   4.992   6.393   0.757 -0.4784 -0.3631  0.1954
   19CHTO  C107 7733   5.078   6.202   0.791 -0.2410 -0.0815 -0.9266
   19CHTO   O70 7734   4.985   6.122   0.707 -0.2452  0.3355 -0.6429
   19CHTO  H170 7735   4.961   6.040   0.746 -0.8888  0.7363 -0.1962
   19CHTO   O57 7736   5.147   6.473   0.376  0.1545  0.5123 -0.6439
   19CHTO   C85 7737   5.054   6.451   0.268  0.0159  0.1146  0.2163
   19CHTO  H157 7738   4.955   6.440   0.318 -0.0045 -1.6733 -0.1910
   19CHTO   C83 7739   5.093   6.319   0.200  0.0784 -0.0427  0.4085
   19CHTO  H155 7740   5.085   6.244   0.279 -1.5925 -1.4134 -1.0154
   19CHTO   O56 7741   5.228   6.321   0.156  0.2310  0.1735  0.2731
   19CHTO  H135 7742   5.284   6.324   0.232  2.0029  0.5576 -1.0088
   19CHTO   C81 7743   4.982   6.295   0.098 -0.8175  0.2646  0.6190
   19CHTO  H153 7744   4.885   6.297   0.148 -1.2291  0.1856 -0.1543
   19CHTO   N14 7745   4.996   6.154   0.051  0.1407 -0.3353  0.4280
   19CHTO  H141 7746   5.028   6.170  -0.050  0.9492  0.1208  0.7518
   19CHTO  H142 7747   4.906   6.097   0.055 -0.6035  0.7404 -0.6976
   19CHTO   C79 7748   4.972   6.405  -0.019 -0.3834 -0.1005 -0.1155
   19CHTO  H151 7749   4.880   6.390  -0.075  0.3106 -0.2722 -1.2145
   19CHTO   O52 7750   4.960   6.541   0.044  0.4431 -0.2122  0.8561
   19CHTO   C86 7751   5.053   6.567   0.154 -0.1661 -0.0375  0.3812
   19CHTO  H158 7752   5.151   6.574   0.104 -1.1962 -1.8662 -2.0119
   19CHTO   C90 7753   5.024   6.710   0.204  0.1646 -0.3912  0.2381
   19CHTO   O60 7754   5.113   6.770   0.301 -0.3172 -0.0960  0.0814
   19CHTO  H138 7755   5.117   6.863   0.302  1.6783 -0.1484 -1.5869
   19CHTO   O50 7756   5.075   6.406  -0.113  0.1751  0.2583  0.2196
   19CHTO   C73 7757   5.113   6.448  -0.245  0.0537  0.0786 -0.2595
   19CHTO  H145 7758   5.072   6.373  -0.315 -2.4863  1.0954  0.0709
   19CHTO   C74 7759   5.272   6.456  -0.252  0.2599  0.6419 -0.0385
   19CHTO  H146 7760   5.303   6.359  -0.211 -2.5439  0.5382  1.9865
   19CHTO   O54 7761   5.300   6.471  -0.392 -0.5363 -0.0100 -0.0887
   19CHTO  H133 7762   5.390   6.496  -0.388 -0.9966  1.7960 -0.8473
   19CHTO   C75 7763   5.320   6.579  -0.161  0.0008  0.2075 -0.6457
   19CHTO  H147 7764   5.285   6.564  -0.058 -1.8283 -0.8304 -1.4043
   19CHTO   N13 7765   5.469   6.590  -0.159  0.0796 -0.5284 -0.2581
   19CHTO  H139 7766   5.516   6.520  -0.091  0.7874 -0.3629 -0.5801
   19CHTO  H140 7767   5.508   6.562  -0.255  1.8851  0.7115  0.0780
   19CHTO   C76 7768   5.247   6.718  -0.203 -0.3624 -0.1171  0.1016
   19CHTO  H148 7769   5.276   6.753  -0.302 -1.8041  1.1549  0.1267
   19CHTO   O49 7770   5.097   6.697  -0.189  0.1092  0.3434  0.2079
   19CHTO   C77 7771   5.054   6.594  -0.283 -0.6836 -0.0189 -0.3154
   19CHTO  H149 7772   5.095   6.614  -0.382 -2.4828 -0.4717 -1.1643
   19CHTO   C88 7773   4.904   6.591  -0.293 -0.5098 -0.6900  0.3320
   19CHTO   O58 7774   4.851   6.488  -0.384 -0.3906  0.2991  0.6190
   19CHTO  H136 7775   4.878   6.403  -0.355 -2.1694 -0.8428 -0.9674
   19CHTO   O51 7776   5.279   6.841  -0.096  0.4663 -0.1276 -0.6257
   19CHTO   C78 7777   5.259   6.990  -0.163  0.0007 -0.2873 -0.0103
   19CHTO  H150 7778   5.231   6.975  -0.269  1.2849  1.5253 -0.6341
   19CHTO   C80 7779   5.385   7.082  -0.157 -0.0964  0.3169  0.1672
   19CHTO  H152 7780   5.427   7.082  -0.054  0.5615 -0.3281 -0.0978
   19CHTO   O55 7781   5.485   7.019  -0.245  0.0831 -0.4525  0.4537
   19CHTO  H134 7782   5.541   7.084  -0.281 -1.1072 -0.2580 -1.0962
   19CHTO   C84 7783   5.370   7.224  -0.213 -0.2726 -1.0820  0.2143
   19CHTO  H156 7784   5.355   7.204  -0.319 -1.2861 -1.0538  0.3541
   19CHTO   N15 7785   5.487   7.310  -0.190 -0.3226 -0.2355  0.2126
   19CHTO  H143 7786   5.568   7.250  -0.155  0.3314  0.4247 -0.1625
   19CHTO  H144 7787   5.461   7.385  -0.118  1.2225  1.4696 -0.9754
   19CHTO   C87 7788   5.241   7.288  -0.155  0.3024  0.2296  0.3123
   19CHTO  H159 7789   5.257   7.316  -0.051 -0.2041  0.8485  0.2311
   19CHTO   O53 7790   5.111   7.192  -0.170  0.4350 -0.2881  0.0356
   19CHTO   C82 7791   5.131   7.063  -0.111 -0.8041 -0.2853  0.4173
   19CHTO  H154 7792   5.137   7.073  -0.003 -0.4537 -1.3008  0.4945
   19CHTO   C89 7793   5.011   6.987  -0.138 -0.3207  0.1610 -0.4439
   19CHTO   O59 7794   4.908   7.041  -0.053  0.2789  0.0020  0.5050
   19CHTO  H137 7795   4.829   6.996  -0.076  0.3226  0.1642  0.0377
   19CHTO   O45 7796   5.216   7.410  -0.226  0.2009  0.0471  0.3546
   19CHTO   C67 7797   5.107   7.489  -0.166 -0.1644  0.2443  0.1192
   19CHTO  H124 7798   5.031   7.418  -0.132 -0.9405  0.7914 -0.4429
   19CHTO   C65 7799   5.163   7.581  -0.048 -0.3767 -0.2425 -0.7857
   19CHTO  H122 7800   5.270   7.592  -0.067 -0.3665  1.7973  0.3631
   19CHTO   O44 7801   5.146   7.515   0.078 -0.4334 -0.4667 -0.1023
   19CHTO  H102 7802   5.202   7.545   0.147  0.0113 -2.3383  0.3959
   19CHTO   C63 7803   5.107   7.731  -0.062  0.0452  0.2860  0.1611
   19CHTO  H120 7804   5.152   7.783  -0.146 -0.5193 -0.8961 -0.8793
   19CHTO   N11 7805   5.142   7.820   0.050 -0.4209 -0.0609 -0.2609
   19CHTO  H108 7806   5.235   7.870   0.032 -0.0053  0.6778  3.4220
   19CHTO  H109 7807   5.143   7.766   0.143  1.1747 -0.6391 -0.5897
   19CHTO   C61 7808   4.951   7.727  -0.092  0.3932 -0.1770 -0.1516
   19CHTO  H118 7809   4.917   7.832  -0.097 -0.0514 -0.4224 -3.3313
   19CHTO   O40 7810   4.942   7.672  -0.227 -0.3702  0.5183  0.1635
   19CHTO   C68 7811   5.037   7.573  -0.277  0.0030  0.0610 -0.1946
   19CHTO  H125 7812   5.121   7.630  -0.324 -1.1055  0.7546 -1.3734
   19CHTO   C72 7813   4.970   7.485  -0.388 -0.1901 -0.3783  0.0957
   19CHTO   O48 7814   4.961   7.559  -0.510  0.2110 -0.1726  0.2961
   19CHTO  H105 7815   4.897   7.531  -0.572  0.0670  2.5498 -0.8880
   19CHTO   O38 7816   4.872   7.656   0.002 -0.3310  0.7755 -0.0955
   19CHTO   C55 7817   4.734   7.621  -0.033  0.0779 -0.0206 -0.3257
   19CHTO  H112 7818   4.729   7.577  -0.133 -1.1299  0.3742 -0.4417
   19CHTO   C56 7819   4.636   7.751  -0.021 -0.7951  0.2467  0.5197
   19CHTO  H113 7820   4.662   7.788   0.079 -1.1366  2.0274 -0.0292
   19CHTO   O42 7821   4.682   7.864  -0.102  0.0251 -0.1492  0.1036
   19CHTO  H100 7822   4.774   7.877  -0.089  0.2113 -1.6484  0.2991
   19CHTO   C57 7823   4.481   7.722  -0.030 -0.5767 -0.1672 -0.4148
   19CHTO  H114 7824   4.462   7.704  -0.135  0.2058 -0.3794 -0.5279
   19CHTO   N10 7825   4.391   7.830   0.023  0.3050 -0.3495  0.4527
   19CHTO  H106 7826   4.438   7.892   0.098  3.1617 -0.0797 -1.5034
   19CHTO  H107 7827   4.293   7.797   0.055 -0.0800 -0.5379 -0.8584
   19CHTO   C58 7828   4.450   7.592   0.047 -0.0248  0.3858  0.3641
   19CHTO  H115 7829   4.439   7.616   0.155  0.9660  1.8135  0.1631
   19CHTO   O37 7830   4.548   7.486   0.035 -0.2309  0.2154  0.1329
   19CHTO   C59 7831   4.686   7.508   0.066 -0.0866 -0.5933 -0.0478
   19CHTO  H116 7832   4.687   7.535   0.171 -0.1281 -1.0929  0.0834
   19CHTO   C70 7833   4.758   7.376   0.033  0.2459 -0.1838 -0.3161
   19CHTO   O46 7834   4.893   7.370   0.083 -0.2467 -0.3778 -0.5717
   19CHTO  H103 7835   4.958   7.415   0.033 -0.6826 -0.1296 -0.9186
   19CHTO   O39 7836   4.302   7.528   0.004 -0.3741 -0.2977 -0.7006
   19CHTO   C60 7837   4.301   7.446  -0.111  0.6500 -0.2634 -0.2380
   19CHTO  H117 7838   4.394   7.467  -0.163  0.1074  0.3240 -0.9851
   19CHTO   C62 7839   4.298   7.295  -0.060  0.3740  0.3347 -0.2395
   19CHTO  H119 7840   4.382   7.276   0.011 -0.0130 -2.9783 -0.5901
   19CHTO   O43 7841   4.172   7.266   0.009 -0.5522  0.4339  0.0052
   19CHTO  H101 7842   4.174   7.176   0.035  1.1472  0.3240 -0.4659
   19CHTO   C66 7843   4.313   7.206  -0.194  0.4275  0.1476  0.0968
   19CHTO  H123 7844   4.409   7.228  -0.242  0.7572 -0.5969  0.4225
   19CHTO   N12 7845   4.300   7.059  -0.165  0.3051 -0.1746  0.0324
   19CHTO  H110 7846   4.289   6.990  -0.247  1.4127  2.2420 -2.2223
   19CHTO  H111 7847   4.248   7.030  -0.075  1.3951  1.2832  1.1656
   19CHTO   C69 7848   4.202   7.249  -0.298  0.0351  0.0037 -0.6203
   19CHTO  H126 7849   4.106   7.231  -0.246 -0.6448  0.9335 -1.5435
   19CHTO   O41 7850   4.223   7.406  -0.323  0.2409 -0.3404  0.1879
   19CHTO   C64 7851   4.184   7.477  -0.207  0.3249 -0.2097 -1.1226
   19CHTO  H121 7852   4.086   7.441  -0.170  0.9843 -0.7057  0.2032
   19CHTO   C71 7853   4.157   7.630  -0.227 -0.0594 -0.2351 -0.0605
   19CHTO   O47 7854   4.078   7.668  -0.338  0.2128 -0.2068 -0.0772
   19CHTO  H104 7855   4.028   7.592  -0.364 -0.2816  0.0640  0.0788
   19CHTO   O34 7856   4.209   7.179  -0.426 -0.2787 -0.0760  0.8926
   19CHTO   C49 7857   4.189   7.202  -0.577 -1.3000 -0.1150  0.4684
   19CHTO   H91 7858   4.090   7.247  -0.584 -0.0692  2.6475  0.0945
   19CHTO   C47 7859   4.198   7.061  -0.649  0.8757  0.1417  0.0542
   19CHTO   H89 7860   4.180   7.087  -0.755 -2.7929  2.5238  1.1530
   19CHTO   O33 7861   4.092   6.976  -0.605  0.7622 -0.1782  0.3722
   19CHTO   H70 7862   4.013   7.024  -0.588 -0.3333 -1.7745 -0.0690
   19CHTO   C45 7863   4.346   6.996  -0.616 -0.1180 -0.5055 -0.0379
   19CHTO   H87 7864   4.352   6.937  -0.523 -0.2894 -0.3568  0.0679
   19CHTO    N8 7865   4.384   6.898  -0.724  0.4214 -0.2029 -0.2880
   19CHTO   H75 7866   4.476   6.924  -0.775  1.7201 -1.2646  1.4688
   19CHTO   H76 7867   4.390   6.795  -0.691  3.7380  0.2366  0.6699
   19CHTO   C43 7868   4.464   7.114  -0.599 -0.0408 -0.2011  0.2441
   19CHTO   H85 7869   4.464   7.139  -0.493  2.9885 -0.3156  0.3129
   19CHTO   O29 7870   4.430   7.223  -0.680  0.2110  0.0800 -0.4835
   19CHTO   C50 7871   4.305   7.289  -0.638 -0.5088  0.0506  1.4602
   19CHTO   H92 7872   4.354   7.354  -0.564  0.4047  0.4388  0.5211
   19CHTO   C54 7873   4.249   7.373  -0.753 -0.2603 -0.5832  0.2721
   19CHTO   O36 7874   4.359   7.458  -0.797  0.3548 -0.2079  0.2019
   19CHTO   H72 7875   4.409   7.412  -0.861 -5.0243 -2.5313 -2.6642
   19CHTO   O27 7876   4.604   7.078  -0.611 -0.2038 -0.3986  0.2703
   19CHTO   C37 7877   4.734   7.071  -0.674 -0.1799  0.3199 -0.2965
   19CHTO   H79 7878   4.740   6.984  -0.741  2.0237 -0.0735  0.3702
   19CHTO   C38 7879   4.760   7.191  -0.757 -0.1407 -0.0439 -0.4246
   19CHTO   H80 7880   4.725   7.275  -0.695  0.1254 -1.4734  1.6913
   19CHTO   O31 7881   4.676   7.182  -0.875  0.1210  0.2674  0.3862
   19CHTO   H68 7882   4.668   7.270  -0.906  0.9928  0.8598  1.7938
   19CHTO   C39 7883   4.917   7.209  -0.789 -0.6028  0.1052  0.4982
   19CHTO   H81 7884   4.941   7.130  -0.860 -3.9297 -1.8109  1.3912
   19CHTO    N7 7885   4.950   7.335  -0.867  0.2916 -0.1777  0.4177
   19CHTO   H73 7886   4.881   7.407  -0.827 -0.1569 -0.3519 -0.0311
   19CHTO   H74 7887   4.942   7.323  -0.974 -5.4900 -3.1946  0.9924
   19CHTO   C40 7888   5.006   7.191  -0.660  0.1466  0.6148 -0.2065
   19CHTO   H82 7889   4.994   7.273  -0.589  0.8492 -0.2607  0.9441
   19CHTO   O26 7890   4.972   7.061  -0.602  0.0754 -0.3368  0.2379
   19CHTO   C41 7891   4.834   7.056  -0.551 -0.1833 -0.5317  0.0852
   19CHTO   H83 7892   4.829   7.137  -0.476 -1.7646 -1.6915  1.2808
   19CHTO   C52 7893   4.819   6.918  -0.487 -0.0946 -0.4673 -0.1566
   19CHTO   O35 7894   4.711   6.917  -0.406  0.0517  0.2851  0.0334
   19CHTO   H71 7895   4.734   6.955  -0.323  0.4577  0.7611 -0.2997
   19CHTO   O28 7896   5.138   7.163  -0.696 -0.6480 -0.2105  0.1486
   19CHTO   C42 7897   5.253   7.202  -0.609  0.0947  0.6098 -0.2314
   19CHTO   H84 7898   5.220   7.204  -0.505 -1.0743  0.7997 -0.6103
   19CHTO   C44 7899   5.307   7.350  -0.639  0.0655 -0.2742 -0.3842
   19CHTO   H86 7900   5.316   7.362  -0.747 -2.0980  0.1421 -0.5280
   19CHTO   O32 7901   5.205   7.438  -0.587  0.0409  0.1141  0.2549
   19CHTO   H69 7902   5.226   7.524  -0.555 -1.0688  0.3651  0.3099
   19CHTO   C48 7903   5.451   7.384  -0.568  0.1492  0.3853 -0.4240
   19CHTO   H90 7904   5.421   7.398  -0.464 -1.1306  0.2600 -0.7677
   19CHTO    N9 7905   5.503   7.519  -0.607  0.7875  0.1959  0.1168
   19CHTO   H77 7906   5.487   7.602  -0.540  0.0075 -0.2021  0.4310
   19CHTO   H78 7907   5.485   7.559  -0.705 -2.1583  2.1831  1.3820
   19CHTO   C51 7908   5.558   7.275  -0.590  0.3656 -0.0608 -0.2166
   19CHTO   H93 7909   5.586   7.262  -0.695  2.0951  1.8735 -0.0098
   19CHTO   O30 7910   5.497   7.156  -0.542  0.1521  0.0109  0.5083
   19CHTO   C46 7911   5.371   7.101  -0.614 -0.2163 -0.3876  0.1891
   19CHTO   H88 7912   5.400   7.086  -0.718 -1.9876  1.0150 -0.5289
   19CHTO   C53 7913   5.330   6.971  -0.543 -0.0979  0.0640  0.4221
   19CHTO   O72 7914   5.222   6.915  -0.620 -0.5788 -0.0243 -0.2267
   19CHTO  H199 7915   5.161   6.986  -0.631  1.7794  1.8983 -1.3656
   19CHTO   O22 7916   5.684   7.300  -0.518  0.6131 -0.1552 -0.1324
   19CHTO   C31 7917   5.818   7.259  -0.556 -0.7199  0.0918 -0.3782
   19CHTO   H59 7918   5.811   7.151  -0.580 -0.5092  0.0109 -0.0769
   19CHTO   C29 7919   5.879   7.338  -0.681 -0.0556  0.1073 -0.0955
   19CHTO   H57 7920   5.899   7.441  -0.650  0.4327  0.6530 -2.1420
   19CHTO   O21 7921   5.779   7.348  -0.786  0.1816 -0.3959  0.2034
   19CHTO   H37 7922   5.746   7.264  -0.812  1.0057 -0.8555  0.6021
   19CHTO   C27 7923   6.014   7.269  -0.721  0.0036 -0.2238  0.0466
   19CHTO   H55 7924   5.991   7.165  -0.751  1.1240  0.0853 -1.9385
   19CHTO    N5 7925   6.075   7.333  -0.838  0.0561 -0.7883 -0.1688
   19CHTO   H43 7926   6.019   7.317  -0.929 -0.7314  2.4927 -0.3279
   19CHTO   H44 7927   6.102   7.434  -0.811  0.0884 -0.4053 -1.6315
   19CHTO   C25 7928   6.112   7.268  -0.598  0.1098  0.5150  0.4503
   19CHTO   H53 7929   6.150   7.370  -0.583  0.1836  0.8391 -1.8719
   19CHTO   O17 7930   6.042   7.214  -0.471 -0.5711  0.0182 -0.2079
   19CHTO   C32 7931   5.912   7.267  -0.433  0.7397 -0.6385  0.1761
   19CHTO   H60 7932   5.924   7.373  -0.409 -0.1571  0.2703 -3.0923
   19CHTO   C36 7933   5.861   7.187  -0.316  0.0661  0.2736 -0.6954
   19CHTO   O25 7934   5.850   7.046  -0.350 -0.4406  0.1143  0.1774
   19CHTO   H40 7935   5.815   7.037  -0.437  0.3932 -1.2827 -0.0229
   19CHTO   O15 7936   6.229   7.190  -0.626  0.4721  0.0121  0.1447
   19CHTO   C19 7937   6.265   7.052  -0.591 -0.6971 -0.6437  0.2204
   19CHTO   H47 7938   6.265   7.042  -0.481 -0.1118  2.8104  0.5906
   19CHTO   C20 7939   6.169   6.944  -0.650  0.0381 -0.1973 -0.5610
   19CHTO   H48 7940   6.154   6.961  -0.758 -2.2815 -1.7010 -0.5018
   19CHTO   O19 7941   6.040   6.971  -0.584 -0.1325  0.6804 -0.3040
   19CHTO   H35 7942   6.049   6.948  -0.494 -1.3376 -0.6405 -0.4994
   19CHTO   C21 7943   6.219   6.802  -0.628  0.3449  0.8716  0.2717
   19CHTO   H49 7944   6.221   6.776  -0.522 -1.0651  0.2063  0.1499
   19CHTO    N4 7945   6.134   6.701  -0.684  0.4393  0.7466 -0.1897
   19CHTO   H41 7946   6.134   6.613  -0.622  1.8281 -1.1546 -2.8204
   19CHTO   H42 7947   6.032   6.731  -0.700 -0.4017 -1.9487 -0.0581
   19CHTO   C22 7948   6.364   6.793  -0.681  0.1424  0.5696  0.2644
   19CHTO   H50 7949   6.366   6.819  -0.786  0.3809 -0.6542 -0.0480
   19CHTO   O14 7950   6.444   6.881  -0.596 -0.0696  0.1368 -1.0549
   19CHTO   C23 7951   6.416   7.021  -0.626 -1.3027 -0.2107  0.2046
   19CHTO   H51 7952   6.441   7.045  -0.730  0.2085 -2.9246 -0.1055
   19CHTO   C34 7953   6.510   7.110  -0.543  0.0658  0.1381 -0.2485
   19CHTO   O23 7954   6.647   7.071  -0.562  0.0354 -0.1942 -0.2222
   19CHTO   H38 7955   6.703   7.119  -0.505 -0.8559 -0.5511  0.9728
   19CHTO   O16 7956   6.437   6.669  -0.667 -0.2552  0.0705 -0.0477
   19CHTO   C24 7957   6.548   6.612  -0.786  0.6896  0.0879 -0.7151
   19CHTO   H52 7958   6.612   6.531  -0.752  0.1980  0.1027  0.2566
   19CHTO   C26 7959   6.643   6.722  -0.838 -0.6189 -0.2379  0.3944
   19CHTO   H54 7960   6.578   6.809  -0.860 -0.9405  0.0551  2.3991
   19CHTO   O20 7961   6.730   6.774  -0.734  0.6133 -0.0691  0.0709
   19CHTO   H36 7962   6.778   6.847  -0.769  1.1083 -0.7540 -0.7207
   19CHTO   C30 7963   6.715   6.681  -0.967 -0.5905  0.3808 -0.6568
   19CHTO   H58 7964   6.793   6.609  -0.938 -1.1076 -1.9821 -4.6037
   19CHTO    N6 7965   6.780   6.795  -1.039  0.0551  0.1211 -0.5490
   19CHTO   H45 7966   6.846   6.838  -0.965  0.2940 -1.0779 -0.0433
   19CHTO   H46 7967   6.708   6.868  -1.070 -0.7852 -1.6200 -2.8355
   19CHTO   C33 7968   6.626   6.598  -1.067 -0.8175 -0.4779  0.0722
   19CHTO   H61 7969   6.556   6.665  -1.120 -1.4503 -1.5278 -0.4365
   19CHTO   O18 7970   6.546   6.496  -0.996 -0.6272  0.7172  0.1677
   19CHTO   C28 7971   6.457   6.553  -0.898 -0.5465  0.1035 -0.1750
   19CHTO   H56 7972   6.402   6.635  -0.945  0.0906  0.0144 -1.0959
   19CHTO   C35 7973   6.358   6.447  -0.836  0.0615 -0.0155  0.4264
   19CHTO   O24 7974   6.285   6.352  -0.923  0.2558 -0.0111  0.5951
   19CHTO   H39 7975   6.353   6.306  -0.969 -0.3686  1.6953 -2.1617
   19CHTO    O9 7976   6.702   6.536  -1.174 -0.9749 -0.2750 -0.5917
   19CHTO   C13 7977   6.673   6.389  -1.250 -0.0838 -0.0336  0.3606
   19CHTO   H26 7978   6.750   6.371  -1.328  0.9047 -0.6480  1.4570
   19CHTO   C11 7979   6.528   6.375  -1.311  0.0819  0.1716 -0.7944
   19CHTO   H24 7980   6.523   6.430  -1.406 -1.6322  1.2933 -0.0904
   19CHTO    O8 7981   6.430   6.437  -1.220  0.1818 -0.1168 -0.3856
   19CHTO    H3 7982   6.397   6.514  -1.261  0.5194 -1.5613 -3.4869
   19CHTO    C9 7983   6.492   6.230  -1.331 -0.4796 -0.5421 -0.6668
   19CHTO   H22 7984   6.579   6.185  -1.382 -0.5301  1.5410 -2.6299
   19CHTO    N2 7985   6.377   6.212  -1.418  0.2302 -0.4021 -0.4773
   19CHTO   H10 7986   6.288   6.235  -1.361  0.2262 -0.9657 -0.2527
   19CHTO   H11 7987   6.390   6.273  -1.506  0.7357  1.1115  0.6366
   19CHTO    C7 7988   6.483   6.160  -1.191  0.1176  0.6442 -1.0203
   19CHTO   H20 7989   6.508   6.053  -1.208 -0.1062  0.7042 -1.7345
   19CHTO    O4 7990   6.582   6.206  -1.092  0.1990 -0.1525  0.2529
   19CHTO   C14 7991   6.702   6.264  -1.151  0.1986 -0.4158  0.1906
   19CHTO   H27 7992   6.746   6.191  -1.222 -0.6890  2.2742 -3.2837
   19CHTO   C18 7993   6.811   6.298  -1.045  0.1254  0.2535  0.0510
   19CHTO   O13 7994   6.770   6.361  -0.928 -0.4268 -0.3529 -0.4263
   19CHTO    H7 7995   6.843   6.392  -0.878 -1.2066  0.7478  0.0556
   19CHTO    O2 7996   6.336   6.159  -1.121 -0.1495  0.0538 -0.6475
   19CHTO    C1 7997   6.255   6.038  -1.116 -0.2748 -0.0399  0.4577
   19CHTO   H14 7998   6.287   5.966  -1.194 -0.1174 -0.8020  1.2063
   19CHTO    C2 7999   6.105   6.064  -1.141  0.7040  0.0835  0.8218
   19CHTO   H15 8000   6.083   6.161  -1.095  0.5510  0.0804  0.7570
   19CHTO    O6 8001   6.095   6.082  -1.281  0.4579  0.2235 -0.0439
   19CHTO    H1 8002   6.125   6.164  -1.314  0.4415  0.6248  0.9268
   19CHTO    C3 8003   6.003   5.946  -1.085  0.0384  0.1066  0.3386
   19CHTO   H16 8004   6.001   5.870  -1.164 -0.1864  1.0113 -0.5364
   19CHTO    N1 8005   5.861   5.990  -1.077  0.0977 -0.0112  0.2885
   19CHTO    H8 8006   5.825   6.022  -1.174 -1.5387  0.2686  0.9850
   19CHTO    H9 8007   5.797   5.919  -1.028 -0.2427  0.1154  0.0275
   19CHTO    C4 8008   6.053   5.870  -0.962 -0.1666 -0.0507  0.2239
   19CHTO   H17 8009   6.044   5.934  -0.874  2.7218  0.8070 -0.0452
   19CHTO    O1 8010   6.191   5.835  -0.972 -0.0004  0.0423 -0.0436
   19CHTO    C5 8011   6.267   5.961  -0.984  0.3398  0.0318  0.0520
   19CHTO   H18 8012   6.233   6.034  -0.912  0.0865  0.4284 -0.4716
   19CHTO   C16 8013   6.417   5.925  -0.949  0.0331 -0.3055 -0.0032
   19CHTO   O11 8014   6.483   6.039  -0.894  0.0166  0.3143  0.3901
   19CHTO    H5 8015   6.564   6.011  -0.856  0.1277  0.5640  0.3379
   19CHTO    O3 8016   5.993   5.737  -0.944 -0.0318  0.1477  0.0287
   19CHTO    C6 8017   5.917   5.710  -0.826  0.7167 -0.0076  0.0017
   19CHTO   H19 8018   5.866   5.799  -0.789 -0.1181 -1.3116  2.0779
   19CHTO    C8 8019   5.807   5.599  -0.857 -0.2314  0.0985  0.8172
   19CHTO   H21 8020   5.854   5.520  -0.915 -2.3299  0.0294 -0.8736
   19CHTO    O7 8021   5.723   5.662  -0.962 -0.2205  0.5600 -0.5725
   19CHTO    H2 8022   5.642   5.617  -0.979  0.6929 -2.0830  1.8111
   19CHTO   C12 8023   5.734   5.555  -0.729  0.3826 -0.5095  0.3004
   19CHTO   H25 8024   5.670   5.636  -0.690  1.3010 -0.3107  1.4194
   19CHTO    N3 8025   5.633   5.455  -0.776 -1.0714 -0.5139  0.2645
   19CHTO   H12 8026   5.605   5.400  -0.687 -0.3455 -2.2438 -0.5419
   19CHTO   H13 8027   5.546   5.502  -0.819 -1.0394 -1.0591 -0.4055
   19CHTO   C15 8028   5.835   5.513  -0.617  0.8280 -0.2564  0.7433
   19CHTO   H28 8029   5.880   5.419  -0.648 -2.0905 -1.3535 -0.3735
   19CHTO   O10 8030   5.759   5.495  -0.481  0.8455 -0.4272 -0.1907
   19CHTO    H4 8031   5.808   5.524  -0.407  0.3352 -1.3458  0.5224
   19CHTO    O5 8032   5.925   5.625  -0.587  0.1378 -0.7769 -0.2827
   19CHTO   C10 8033   6.008   5.657  -0.706 -0.2714  0.1675  0.2611
   19CHTO   H23 8034   6.059   5.567  -0.741 -0.4357  1.2354 -2.8901
   19CHTO   C17 8035   6.121   5.754  -0.668 -0.5515 -0.0757 -0.0063
   19CHTO   O12 8036   6.080   5.892  -0.629 -0.2441  0.6513  0.1530
   19CHTO    H6 8037   6.020   5.888  -0.557  0.0980  1.6237  0.4945
   20CHTO  H203 8038   5.727   1.448   0.007  1.3894 -0.9618 -1.7667
   20CHTO   O82 8039   5.644   1.454  -0.038 -0.0395 -0.3475  0.8750
   20CHTO  C123 8040   5.580   1.586   0.001  0.5016  0.0704 -1.0018
   20CHTO  H227 8041   5.616   1.668  -0.061 -3.5022  0.5106 -2.9084
   20CHTO   O77 8042   5.435   1.563  -0.032  0.2412 -0.2738  0.3885
   20CHTO  C118 8043   5.345   1.674  -0.018  0.0144 -0.0345 -0.8292
   20CHTO  H222 8044   5.388   1.741  -0.094  2.1325 -1.5127 -0.9978
   20CHTO  C125 8045   5.199   1.646  -0.054 -0.0694 -0.0755  0.8056
   20CHTO   O84 8046   5.144   1.527   0.010 -0.1858  0.8205  0.2264
   20CHTO  H205 8047   5.150   1.529   0.104  0.3220 -2.2516  0.3132
   20CHTO  C114 8048   5.352   1.719   0.130 -0.1913  0.2499  0.1213
   20CHTO  H218 8049   5.320   1.639   0.197  0.9564 -0.5404 -0.2492
   20CHTO  C116 8050   5.501   1.747   0.177  0.7557  0.1023 -0.0872
   20CHTO  H220 8051   5.534   1.835   0.119 -1.5255  2.6137  2.2468
   20CHTO   O79 8052   5.500   1.774   0.315  0.0739 -0.2270  0.1411
   20CHTO  H201 8053   5.481   1.862   0.339 -0.4307 -0.3495  0.1891
   20CHTO  C120 8054   5.595   1.622   0.151  0.4429 -0.2767  0.5309
   20CHTO  H224 8055   5.560   1.538   0.215 -0.7984 -0.1365  0.0472
   20CHTO   N21 8056   5.741   1.644   0.193 -0.8277 -0.2523 -0.8696
   20CHTO  H211 8057   5.774   1.746   0.184 -0.9875 -0.1518 -0.3455
   20CHTO  H212 8058   5.742   1.611   0.296  0.2717 -0.9949 -1.1064
   20CHTO   O75 8059   5.266   1.834   0.140 -0.0136 -0.1356 -0.0061
   20CHTO  C112 8060   5.312   1.977   0.039 -0.9520  0.2768 -0.6268
   20CHTO  H216 8061   5.366   1.941  -0.049 -0.6751  1.0210 -0.7640
   20CHTO   O73 8062   5.399   2.056   0.121  0.2597 -0.2907 -0.2858
   20CHTO  C113 8063   5.465   2.154   0.042  0.6671 -0.2354 -0.4446
   20CHTO  H217 8064   5.519   2.100  -0.039 -0.9824 -0.1009 -1.6683
   20CHTO  C124 8065   5.552   2.240   0.137 -0.2561  0.0256 -0.2376
   20CHTO   O83 8066   5.661   2.162   0.186 -0.3150  0.0107  0.2256
   20CHTO  H204 8067   5.722   2.220   0.227  2.3436 -2.4309 -0.1623
   20CHTO  C109 8068   5.359   2.256  -0.026  0.6860  0.3837  0.2451
   20CHTO  H213 8069   5.320   2.322   0.053  0.3205 -0.4299  0.7438
   20CHTO  C110 8070   5.235   2.187  -0.088  0.6080  0.5024 -0.6448
   20CHTO  H214 8071   5.257   2.165  -0.193 -1.0697  1.3090 -1.1785
   20CHTO   O78 8072   5.132   2.289  -0.103 -0.4942 -0.0699  0.3546
   20CHTO  H200 8073   5.120   2.338  -0.024 -1.2792  0.7140 -0.2340
   20CHTO  C111 8074   5.183   2.068   0.002  0.5734  0.1670  0.5096
   20CHTO  H215 8075   5.142   2.109   0.095 -0.4633 -1.6019  0.8540
   20CHTO   N19 8076   5.070   1.987  -0.056 -0.0807 -0.1798 -0.2465
   20CHTO  H207 8077   5.018   1.925   0.014  0.4350  0.7666  0.9976
   20CHTO  H208 8078   5.009   2.034  -0.133  0.7528 -0.4398 -1.0855
   20CHTO   O74 8079   5.414   2.334  -0.127 -0.0157  0.0717  0.0761
   20CHTO  C115 8080   5.349   2.500  -0.130 -0.4941 -0.5486  0.0468
   20CHTO  H219 8081   5.241   2.503  -0.115 -0.3424  2.3068  0.9971
   20CHTO   O76 8082   5.404   2.582  -0.013 -0.7197 -0.2451  0.2361
   20CHTO  C122 8083   5.546   2.597  -0.013 -0.0308 -0.3278 -0.2219
   20CHTO  H226 8084   5.590   2.498   0.001  0.3957 -0.1417 -0.2559
   20CHTO  C126 8085   5.574   2.686   0.115 -0.4397 -0.6419 -0.2131
   20CHTO   O85 8086   5.541   2.617   0.233 -0.3128 -0.2155 -0.6142
   20CHTO  H206 8087   5.591   2.640   0.309 -0.0497  1.7042 -1.3406
   20CHTO  C121 8088   5.599   2.660  -0.149 -0.0620 -0.0277  0.6240
   20CHTO  H225 8089   5.652   2.755  -0.132  1.5822 -0.9804  0.9482
   20CHTO   O81 8090   5.688   2.566  -0.222 -0.5645 -0.0324  0.0615
   20CHTO  H202 8091   5.739   2.522  -0.158  0.1690  1.1608  0.3064
   20CHTO  C119 8092   5.479   2.688  -0.246  0.1579 -0.0384 -0.2486
   20CHTO  H223 8093   5.414   2.765  -0.204 -3.4639 -1.8508 -2.2876
   20CHTO  C117 8094   5.389   2.559  -0.268 -0.1389 -0.0430 -0.1726
   20CHTO  H221 8095   5.439   2.475  -0.314 -0.1308  0.3361 -0.8572
   20CHTO   N20 8096   5.263   2.584  -0.349  0.1087 -0.2985 -0.2814
   20CHTO  H209 8097   5.187   2.645  -0.302  1.9382  1.2929  0.7128
   20CHTO  H210 8098   5.273   2.635  -0.444  0.4507 -0.8224 -0.5240
   20CHTO   O80 8099   5.530   2.763  -0.382  0.3601 -0.1329  0.3823
   20CHTO  C103 8100   5.542   2.923  -0.382 -0.3963 -0.5102 -0.6673
   20CHTO  H190 8101   5.441   2.959  -0.362 -0.2536 -0.2190 -0.4608
   20CHTO  C101 8102   5.647   2.994  -0.286  0.1821  0.6637  0.9235
   20CHTO  H188 8103   5.744   2.945  -0.279 -0.5184 -1.2484 -1.8701
   20CHTO   O68 8104   5.588   2.996  -0.136 -0.2763  0.2899 -0.6661
   20CHTO  H168 8105   5.495   3.007  -0.143 -0.7536 -1.9261  1.3557
   20CHTO   C99 8106   5.677   3.142  -0.341 -0.2361  0.2970  0.7900
   20CHTO  H186 8107   5.592   3.212  -0.329  1.0887  1.9503  0.7402
   20CHTO   N17 8108   5.786   3.206  -0.260  0.3487 -0.4150  0.0007
   20CHTO  H174 8109   5.870   3.138  -0.261 -0.5668 -1.8477  4.7668
   20CHTO  H175 8110   5.797   3.304  -0.303  2.1242 -1.3035 -1.6398
   20CHTO   C97 8111   5.711   3.137  -0.492  0.2061  0.3177  0.2176
   20CHTO  H184 8112   5.800   3.075  -0.510  0.0095  0.3908 -1.1207
   20CHTO   O64 8113   5.598   3.080  -0.566 -0.4234 -0.1536 -0.9053
   20CHTO  C104 8114   5.565   2.945  -0.536  0.5456 -0.2797  0.0693
   20CHTO  H191 8115   5.638   2.871  -0.570 -0.3737 -0.7719 -0.8469
   20CHTO  C108 8116   5.443   2.914  -0.618  0.6304 -0.5354 -0.4014
   20CHTO   O71 8117   5.478   2.897  -0.756 -0.3644  0.2802  0.2560
   20CHTO  H171 8118   5.405   2.861  -0.803  1.1089  0.2371 -2.0476
   20CHTO   O62 8119   5.731   3.270  -0.557 -0.5437 -0.0520  0.2528
   20CHTO   C91 8120   5.802   3.268  -0.683 -0.3425 -0.5963  0.5385
   20CHTO  H178 8121   5.818   3.165  -0.714  0.4991 -0.4713  0.5509
   20CHTO   C92 8122   5.945   3.318  -0.658  0.5194  0.1323 -0.5339
   20CHTO  H179 8123   5.945   3.412  -0.601  0.2066 -0.0591 -0.2177
   20CHTO   O66 8124   6.003   3.221  -0.564  0.0639 -0.6236 -0.0668
   20CHTO  H166 8125   5.978   3.132  -0.582  2.3403 -1.6665  1.7137
   20CHTO   C93 8126   6.026   3.332  -0.792  0.2721  0.6871  0.0097
   20CHTO  H180 8127   6.032   3.227  -0.827  0.5761  0.3608  1.0145
   20CHTO   N16 8128   6.169   3.384  -0.782  0.3742  0.9453 -0.2961
   20CHTO  H172 8129   6.192   3.423  -0.683  0.7330  0.0673 -0.0262
   20CHTO  H173 8130   6.184   3.459  -0.857 -1.9352  1.6361 -0.0964
   20CHTO   C94 8131   5.943   3.407  -0.901  0.0091 -0.2156  0.0960
   20CHTO  H181 8132   5.921   3.510  -0.873 -1.5276 -0.2137 -1.0575
   20CHTO   O61 8133   5.815   3.350  -0.919 -0.4130  0.0810  0.1185
   20CHTO   C95 8134   5.734   3.340  -0.799 -0.4248  0.6675  0.2030
   20CHTO  H182 8135   5.712   3.442  -0.769  2.2155  1.6651 -1.0765
   20CHTO  C106 8136   5.591   3.284  -0.847 -0.1149  0.2341 -0.6163
   20CHTO   O69 8137   5.512   3.367  -0.934 -0.4229 -0.4372 -0.2127
   20CHTO  H169 8138   5.557   3.388  -1.014 -1.2627 -2.7582 -1.3499
   20CHTO   O63 8139   6.008   3.415  -1.044 -0.0550  0.3883 -0.1310
   20CHTO   C96 8140   6.029   3.251  -1.121 -0.2301 -0.1432  0.2840
   20CHTO  H183 8141   6.014   3.174  -1.045  1.9688 -1.2408 -0.3793
   20CHTO   C98 8142   6.162   3.214  -1.189 -0.0413  0.3554 -0.5233
   20CHTO  H185 8143   6.239   3.211  -1.110 -0.8826 -0.0680  0.2959
   20CHTO   O67 8144   6.157   3.082  -1.244 -0.5326 -0.3908 -0.2034
   20CHTO  H167 8145   6.103   3.028  -1.190 -0.8457  0.3248  0.2116
   20CHTO  C102 8146   6.198   3.310  -1.308 -0.1311 -0.0651 -0.1710
   20CHTO  H189 8147   6.262   3.250  -1.374  0.6952  1.3740 -0.7009
   20CHTO   N18 8148   6.270   3.437  -1.277 -0.3999  0.3091  0.1624
   20CHTO  H176 8149   6.205   3.499  -1.217 -1.2497  1.1574 -1.6026
   20CHTO  H177 8150   6.363   3.418  -1.226 -0.2592  2.0954  0.6211
   20CHTO  C105 8151   6.068   3.343  -1.389  0.1973 -0.0398  0.0382
   20CHTO  H192 8152   6.035   3.443  -1.363  1.6413  0.6708 -0.8222
   20CHTO   O65 8153   5.967   3.246  -1.363 -0.4056 -0.1096  0.8242
   20CHTO  C100 8154   5.915   3.238  -1.232 -0.0459  0.6059  0.0838
   20CHTO  H187 8155   5.858   3.330  -1.215  0.5196  0.8338  0.7648
   20CHTO  C107 8156   5.824   3.115  -1.219  0.0397  0.1865 -0.1170
   20CHTO   O70 8157   5.758   3.123  -1.090  0.1888  0.5873  0.4916
   20CHTO  H170 8158   5.698   3.196  -1.090 -1.0624 -0.4109 -0.2424
   20CHTO   O57 8159   6.112   3.327  -1.534  0.4604 -0.1549  1.0294
   20CHTO   C85 8160   6.035   3.393  -1.633 -0.3170  0.3450 -0.2512
   20CHTO  H157 8161   6.024   3.497  -1.598  4.3068  0.7612  0.2715
   20CHTO   C83 8162   5.900   3.324  -1.644  0.0636  0.3043  0.1723
   20CHTO  H155 8163   5.848   3.337  -1.549 -0.5874  2.3094 -0.4399
   20CHTO   O56 8164   5.913   3.181  -1.663  0.2385  0.4544  0.4038
   20CHTO  H135 8165   5.831   3.140  -1.641 -1.2403  0.8448 -3.8736
   20CHTO   C81 8166   5.814   3.392  -1.753 -0.4376  0.0061  0.2903
   20CHTO  H153 8167   5.817   3.499  -1.730 -0.5599  0.1444 -0.3120
   20CHTO   N14 8168   5.671   3.346  -1.747 -0.3187 -0.0630 -0.0398
   20CHTO  H141 8169   5.624   3.371  -1.654 -1.6412 -4.7000  0.6443
   20CHTO  H142 8170   5.654   3.243  -1.768  2.0116 -0.7047  1.0607
   20CHTO   C79 8171   5.888   3.375  -1.895  0.3093  0.3263  0.0947
   20CHTO  H151 8172   5.825   3.427  -1.966 -2.0465 -2.4264  0.0813
   20CHTO   O52 8173   6.018   3.436  -1.882  0.0615 -0.1618 -0.2948
   20CHTO   C86 8174   6.100   3.383  -1.775 -0.4238  0.0629 -0.1539
   20CHTO  H158 8175   6.116   3.276  -1.799 -1.7270  0.2860 -2.0771
   20CHTO   C90 8176   6.241   3.445  -1.773 -0.7351  0.0617  0.8054
   20CHTO   O60 8177   6.344   3.371  -1.707 -0.0162  0.1782  0.0352
   20CHTO  H138 8178   6.328   3.351  -1.617  0.1783 -0.6936 -0.1152
   20CHTO   O50 8179   5.897   3.239  -1.939 -0.3070 -0.6713 -0.4992
   20CHTO   C73 8180   5.953   3.193  -2.063  0.0402 -0.4602 -1.1157
   20CHTO  H145 8181   6.046   3.244  -2.090  0.6232 -2.2814 -2.6143
   20CHTO   C74 8182   5.846   3.230  -2.173  0.0283  0.6996 -0.6206
   20CHTO  H146 8183   5.822   3.337  -2.164  1.0681  1.0466 -1.9090
   20CHTO   O54 8184   5.905   3.204  -2.305 -0.1879  0.1750  0.0365
   20CHTO  H133 8185   5.959   3.127  -2.301 -2.2988 -1.3446  0.4532
   20CHTO   C75 8186   5.722   3.143  -2.140  0.6813 -0.5243  0.0031
   20CHTO  H147 8187   5.698   3.161  -2.034  1.9925  0.1069  0.2015
   20CHTO   N13 8188   5.613   3.179  -2.236 -0.7758 -0.4603  0.6512
   20CHTO  H139 8189   5.541   3.249  -2.194 -0.0735 -0.1989  1.4291
   20CHTO  H140 8190   5.549   3.102  -2.278 -0.5827  0.5797 -1.6137
   20CHTO   C76 8191   5.757   2.987  -2.142 -0.4668  1.0892 -0.2455
   20CHTO  H148 8192   5.789   2.963  -2.243 -1.1842  0.7168 -0.3858
   20CHTO   O49 8193   5.863   2.958  -2.042  0.0399 -0.1924  0.3166
   20CHTO   C77 8194   5.978   3.039  -2.067 -0.1006  0.3701 -0.5879
   20CHTO  H149 8195   6.030   3.015  -2.160  0.2959 -0.7884 -0.0777
   20CHTO   C88 8196   6.079   3.004  -1.963  0.5338  0.5918 -0.6698
   20CHTO   O58 8197   6.134   2.850  -1.963  0.5140  0.1895  0.0189
   20CHTO  H136 8198   6.207   2.853  -1.903  1.8608  1.4770 -1.6472
   20CHTO   O51 8199   5.617   2.899  -2.088 -0.0025  0.1142  0.3095
   20CHTO   C78 8200   5.656   2.758  -2.011  0.2886  0.5586 -0.2069
   20CHTO  H150 8201   5.740   2.775  -1.941  0.1951 -0.5304  0.1796
   20CHTO   C80 8202   5.701   2.659  -2.121  0.7710  0.0173 -0.7084
   20CHTO  H152 8203   5.622   2.666  -2.198  0.0505 -1.2040 -0.1072
   20CHTO   O55 8204   5.817   2.715  -2.178  0.0003  0.5569  0.0998
   20CHTO  H134 8205   5.835   2.670  -2.258 -1.6256 -0.0123  0.0571
   20CHTO   C84 8206   5.725   2.510  -2.082  0.7688  0.1503 -0.4758
   20CHTO  H156 8207   5.820   2.510  -2.028  1.0337  1.5116 -0.9186
   20CHTO   N15 8208   5.747   2.404  -2.188  0.0918 -0.5999 -0.3437
   20CHTO  H143 8209   5.804   2.419  -2.278 -0.9852  1.9580 -0.6462
   20CHTO  H144 8210   5.649   2.368  -2.213 -0.4680 -0.3827  1.4997
   20CHTO   C87 8211   5.621   2.463  -1.979 -0.0135 -0.4189 -0.0501
   20CHTO  H159 8212   5.537   2.411  -2.023 -0.6035  0.3818  0.1232
   20CHTO   O53 8213   5.590   2.567  -1.875 -0.5769 -0.3678 -0.4088
   20CHTO   C82 8214   5.539   2.693  -1.933 -0.2505 -0.0617 -0.0119
   20CHTO  H154 8215   5.449   2.675  -1.993 -0.5963  0.3812  0.3636
   20CHTO   C89 8216   5.498   2.786  -1.815 -0.1330  0.3475  0.0870
   20CHTO   O59 8217   5.412   2.727  -1.715  0.2029 -0.5144 -0.4231
   20CHTO  H137 8218   5.328   2.768  -1.724 -0.0061 -1.1726 -1.7027
   20CHTO   O45 8219   5.693   2.341  -1.894  0.5179 -0.1414 -0.1410
   20CHTO   C67 8220   5.605   2.278  -1.803 -0.3170 -0.0371 -0.0825
   20CHTO  H124 8221   5.549   2.356  -1.752  1.2167  1.0809 -0.0683
   20CHTO   C65 8222   5.496   2.180  -1.856 -0.2189 -0.8800  0.5748
   20CHTO  H122 8223   5.531   2.151  -1.955  0.2127  1.4322  0.0006
   20CHTO   O44 8224   5.378   2.265  -1.852  0.4626 -0.0308 -0.0143
   20CHTO  H102 8225   5.359   2.312  -1.931 -0.2233  0.0325  0.1825
   20CHTO   C63 8226   5.487   2.042  -1.776 -0.0666  0.8877  0.2545
   20CHTO  H120 8227   5.581   1.992  -1.795  1.4347  2.7399  2.4394
   20CHTO   N11 8228   5.374   1.948  -1.803 -0.5672  0.1264  0.3789
   20CHTO  H108 8229   5.372   1.857  -1.746 -0.0817 -0.0630  0.0955
   20CHTO  H109 8230   5.370   1.933  -1.909 -0.0018 -0.2400  0.4064
   20CHTO   C61 8231   5.475   2.091  -1.624 -0.1048  0.4367 -1.1324
   20CHTO  H118 8232   5.452   2.003  -1.562 -0.2992  1.0254 -0.3611
   20CHTO   O40 8233   5.610   2.134  -1.585  0.0406 -0.5757  0.2829
   20CHTO   C68 8234   5.689   2.202  -1.687 -0.6630  0.5207 -0.1606
   20CHTO  H125 8235   5.753   2.129  -1.740 -2.3055  0.3590 -1.9548
   20CHTO   C72 8236   5.786   2.294  -1.610  0.4835  0.1711 -0.5048
   20CHTO   O48 8237   5.911   2.236  -1.598 -0.7056  0.2219  0.5047
   20CHTO  H105 8238   5.971   2.283  -1.543 -0.0902  0.1821 -0.1232
   20CHTO   O38 8239   5.375   2.188  -1.606 -0.2167 -0.3866 -0.0576
   20CHTO   C55 8240   5.303   2.205  -1.487 -0.1905 -0.3045  0.0979
   20CHTO  H112 8241   5.362   2.156  -1.409  0.9920  2.5824  1.0520
   20CHTO   C56 8242   5.153   2.145  -1.508  0.0830  0.8183  0.5272
   20CHTO  H113 8243   5.115   2.186  -1.603  0.2818  0.8403  0.4569
   20CHTO   O42 8244   5.161   2.002  -1.526  0.4127  0.4263 -0.4388
   20CHTO  H100 8245   5.076   1.971  -1.549  0.4093 -0.3350  0.5689
   20CHTO   C57 8246   5.068   2.176  -1.385  0.5118  0.1706 -1.0789
   20CHTO  H114 8247   5.129   2.126  -1.310 -0.0317  1.2149  0.0948
   20CHTO   N10 8248   4.926   2.120  -1.379 -0.2527 -0.7778 -0.2892
   20CHTO  H106 8249   4.912   2.108  -1.273 -0.6936  0.6625 -0.1704
   20CHTO  H107 8250   4.923   2.026  -1.431  1.6456 -0.8455 -0.3190
   20CHTO   C58 8251   5.068   2.331  -1.350 -0.1802 -0.2187 -0.5844
   20CHTO  H115 8252   5.021   2.390  -1.432 -1.1658  0.5951  0.5506
   20CHTO   O37 8253   5.205   2.370  -1.337  0.4572  0.4262 -0.2918
   20CHTO   C59 8254   5.292   2.358  -1.453 -0.0174 -0.1331  0.1495
   20CHTO  H116 8255   5.247   2.410  -1.538  1.0295 -0.8524 -0.8595
   20CHTO   C70 8256   5.431   2.419  -1.424 -0.6219 -0.0638  0.0823
   20CHTO   O46 8257   5.490   2.358  -1.310 -0.6587  0.4735 -0.0778
   20CHTO  H103 8258   5.543   2.426  -1.272  2.4706 -2.1195  0.4139
   20CHTO   O39 8259   4.991   2.359  -1.206 -0.1587 -0.2215 -0.3815
   20CHTO   C60 8260   4.991   2.498  -1.167  1.0945 -0.1047 -0.0821
   20CHTO  H117 8261   5.083   2.547  -1.199  1.0122  0.6643  0.8576
   20CHTO   C62 8262   4.868   2.583  -1.237 -0.1666  0.4418 -0.5485
   20CHTO  H119 8263   4.893   2.582  -1.345  1.3007 -1.8263 -0.2210
   20CHTO   O43 8264   4.744   2.517  -1.202  0.1331  0.6363  0.6661
   20CHTO  H101 8265   4.667   2.570  -1.213  0.8878  1.3458 -1.4512
   20CHTO   C66 8266   4.873   2.737  -1.188 -0.1746  0.2945 -0.9327
   20CHTO  H123 8267   4.971   2.777  -1.213  1.1682 -0.7544  2.3792
   20CHTO   N12 8268   4.769   2.818  -1.252 -0.1454  0.3486 -0.8095
   20CHTO  H110 8269   4.812   2.912  -1.282  1.1868 -1.1075 -3.6275
   20CHTO  H111 8270   4.684   2.835  -1.187 -0.8392 -1.7453 -1.1273
   20CHTO   C69 8271   4.867   2.742  -1.032  0.1168 -0.5893  0.7906
   20CHTO  H126 8272   4.776   2.695  -0.989 -0.8654 -0.8237 -1.4770
   20CHTO   O41 8273   4.986   2.664  -0.980 -0.0132 -0.0416  0.0988
   20CHTO   C64 8274   4.976   2.522  -1.010 -0.0577 -0.6716 -0.7874
   20CHTO  H121 8275   4.881   2.472  -0.981  1.2437 -1.9314  1.4919
   20CHTO   C71 8276   5.093   2.454  -0.936 -0.2613 -0.2628 -0.1091
   20CHTO   O47 8277   5.087   2.487  -0.799  0.0302  0.1393  0.0547
   20CHTO  H104 8278   5.169   2.484  -0.752  1.2258 -1.0551 -2.0485
   20CHTO   O34 8279   4.874   2.913  -0.962 -0.6976  0.2088 -0.3795
   20CHTO   C49 8280   4.923   2.983  -0.855  0.2083 -0.2203 -0.6172
   20CHTO   H91 8281   4.841   3.014  -0.791  0.0906 -0.5351 -0.6184
   20CHTO   C47 8282   4.992   3.111  -0.909 -0.0613  0.6485  0.2587
   20CHTO   H89 8283   5.013   3.160  -0.811  1.3998  1.3782 -0.4068
   20CHTO   O33 8284   4.895   3.192  -0.984  0.9238  0.3976 -0.0530
   20CHTO   H70 8285   4.842   3.143  -1.043 -1.6185  0.0039  2.4596
   20CHTO   C45 8286   5.127   3.084  -0.997 -0.3056 -0.3696 -0.1517
   20CHTO   H87 8287   5.107   3.087  -1.105 -0.5979  0.9895 -0.0637
   20CHTO    N8 8288   5.232   3.187  -0.965 -0.2243 -0.0394 -0.2953
   20CHTO   H75 8289   5.246   3.252  -1.049 -0.8045  2.4471  1.4834
   20CHTO   H76 8290   5.196   3.243  -0.880  3.0086 -1.9935  2.4765
   20CHTO   C43 8291   5.178   2.938  -0.970  0.5196  0.3157  0.6579
   20CHTO   H85 8292   5.112   2.878  -1.033  0.9524 -0.3018  0.7860
   20CHTO   O29 8293   5.165   2.920  -0.829  0.1703  0.9975  0.1266
   20CHTO   C50 8294   5.033   2.906  -0.776 -0.2686  0.0629  0.3724
   20CHTO   H92 8295   5.007   2.800  -0.770  1.9925 -0.5179  0.6944
   20CHTO   C54 8296   5.050   2.959  -0.626 -0.0492  0.0088 -0.3650
   20CHTO   O36 8297   5.128   2.864  -0.547  0.0991 -0.0132  0.0986
   20CHTO   H72 8298   5.145   2.908  -0.465 -1.0970 -0.7679  0.7836
   20CHTO   O27 8299   5.309   2.904  -1.029 -0.0211  0.1147 -0.1117
   20CHTO   C37 8300   5.362   2.855  -1.155 -0.1459 -0.6062  0.0497
   20CHTO   H79 8301   5.279   2.802  -1.205  0.6727 -0.9881 -0.9389
   20CHTO   C38 8302   5.414   2.970  -1.257  0.3724  0.0359  0.1267
   20CHTO   H80 8303   5.480   3.044  -1.209 -0.9715  2.1266 -1.1766
   20CHTO   O31 8304   5.295   3.037  -1.294  0.0310  0.3518 -0.0742
   20CHTO   H68 8305   5.314   3.119  -1.335  0.9219 -0.0736 -0.5216
   20CHTO   C39 8306   5.486   2.917  -1.379 -1.3713 -1.2755 -0.3347
   20CHTO   H81 8307   5.419   2.864  -1.447 -0.0686 -1.0048 -1.8683
   20CHTO    N7 8308   5.557   3.023  -1.460  0.2705 -0.4635  0.2332
   20CHTO   H73 8309   5.627   3.078  -1.399  1.0729 -1.2678  0.0606
   20CHTO   H74 8310   5.484   3.080  -1.515 -1.3177 -1.7041  1.0233
   20CHTO   C40 8311   5.590   2.807  -1.332  0.3910 -0.3655 -0.0263
   20CHTO   H82 8312   5.674   2.858  -1.286  0.8058 -0.8478 -0.2423
   20CHTO   O26 8313   5.535   2.705  -1.249 -0.5147 -0.2386 -0.2029
   20CHTO   C41 8314   5.480   2.752  -1.135 -0.2506 -0.0140 -0.5061
   20CHTO   H83 8315   5.564   2.802  -1.084 -2.4507  1.0816  2.2105
   20CHTO   C52 8316   5.424   2.627  -1.059 -0.6222  0.0198  0.0462
   20CHTO   O35 8317   5.394   2.654  -0.927 -0.1448 -0.5329  0.1155
   20CHTO   H71 8318   5.456   2.628  -0.862  0.3374  1.7453  0.6323
   20CHTO   O28 8319   5.640   2.729  -1.444  0.9789 -0.7338 -0.6903
   20CHTO   C42 8320   5.773   2.672  -1.449  0.7954  0.0085 -0.1979
   20CHTO   H84 8321   5.761   2.592  -1.522  2.0215  1.2564 -1.8212
   20CHTO   C44 8322   5.835   2.610  -1.318  0.4559 -0.0517  0.1572
   20CHTO   H86 8323   5.841   2.689  -1.243  0.4884  1.4127 -1.3756
   20CHTO   O32 8324   5.741   2.507  -1.277  0.4578 -0.0629  0.4007
   20CHTO   H69 8325   5.766   2.465  -1.198  0.9071  0.8714  0.7647
   20CHTO   C48 8326   5.976   2.557  -1.334  0.6006  0.5932 -0.5982
   20CHTO   H90 8327   5.952   2.473  -1.400  0.3133  1.0527 -1.0770
   20CHTO    N9 8328   6.037   2.497  -1.209 -1.0877 -0.4645 -0.1577
   20CHTO   H77 8329   6.034   2.581  -1.142 -0.7702 -1.0160  0.5546
   20CHTO   H78 8330   6.138   2.463  -1.225 -0.8481  0.6972 -1.1505
   20CHTO   C51 8331   6.072   2.660  -1.404 -0.1023 -0.2166 -0.5353
   20CHTO   H93 8332   6.096   2.742  -1.336  1.3611 -0.8067 -0.3248
   20CHTO   O30 8333   6.001   2.703  -1.522  0.3102  0.2248  0.6303
   20CHTO   C46 8334   5.874   2.769  -1.505 -0.1042  0.1561 -0.6442
   20CHTO   H88 8335   5.885   2.851  -1.433 -1.0084 -1.2408  1.1399
   20CHTO   C53 8336   5.821   2.813  -1.639  0.3775 -0.3741  0.6966
   20CHTO   O72 8337   5.913   2.860  -1.736 -0.2792 -0.3566 -0.2532
   20CHTO  H199 8338   5.926   2.952  -1.738 -0.4756 -0.3324 -0.4136
   20CHTO   O22 8339   6.199   2.605  -1.447 -0.1487 -0.5525 -0.2983
   20CHTO   C31 8340   6.309   2.703  -1.469  0.0562 -0.5039 -0.3269
   20CHTO   H59 8341   6.391   2.643  -1.513  0.6898  0.1003  0.0293
   20CHTO   C29 8342   6.274   2.816  -1.574  0.3211 -0.0745  0.0785
   20CHTO   H57 8343   6.182   2.866  -1.542 -1.1285 -0.5243 -3.1991
   20CHTO   O21 8344   6.236   2.752  -1.698  0.2222  0.4178  0.5116
   20CHTO   H37 8345   6.299   2.690  -1.729  1.1000  1.8813 -0.6962
   20CHTO   C27 8346   6.396   2.911  -1.591  0.0524  0.1904 -0.6545
   20CHTO   H55 8347   6.475   2.854  -1.642 -0.0549 -0.3758 -0.1797
   20CHTO    N5 8348   6.362   3.026  -1.675  0.4584  0.7644  0.0712
   20CHTO   H43 8349   6.451   3.072  -1.714  0.9280  0.3142  0.6105
   20CHTO   H44 8350   6.306   2.981  -1.756 -0.2749  0.4976  0.7125
   20CHTO   C25 8351   6.460   2.962  -1.452  0.3624  0.2371  0.2488
   20CHTO   H53 8352   6.401   3.033  -1.392 -2.4291 -0.8955 -1.0623
   20CHTO   O17 8353   6.487   2.846  -1.358  0.1069  0.0113  0.6623
   20CHTO   C32 8354   6.365   2.766  -1.333 -0.0039  0.9903 -0.4522
   20CHTO   H60 8355   6.288   2.819  -1.278 -0.3394  0.3676 -0.3132
   20CHTO   C36 8356   6.405   2.652  -1.226 -0.8074 -0.3205 -0.4069
   20CHTO   O25 8357   6.438   2.709  -1.099 -0.2249  0.3734  0.5926
   20CHTO   H40 8358   6.482   2.644  -1.048  0.3834  0.1993 -0.1436
   20CHTO   O15 8359   6.602   3.029  -1.482  0.4017  0.0542 -0.0211
   20CHTO   C19 8360   6.716   3.072  -1.401  0.3391  0.4617  0.4276
   20CHTO   H47 8361   6.774   3.137  -1.469 -1.3446  0.4272 -1.0882
   20CHTO   C20 8362   6.675   3.151  -1.281 -0.0425  0.0830  0.9348
   20CHTO   H48 8363   6.598   3.096  -1.225  0.5596 -1.8271 -0.0572
   20CHTO   O19 8364   6.606   3.272  -1.321 -0.2534  0.0874 -0.5151
   20CHTO   H35 8365   6.670   3.341  -1.319 -0.2955  0.1394 -0.9595
   20CHTO   C21 8366   6.797   3.184  -1.184  0.0626  0.0860 -0.4203
   20CHTO   H49 8367   6.870   3.255  -1.223  1.2117  0.1226  1.7161
   20CHTO    N4 8368   6.748   3.254  -1.063 -0.4890  0.1621 -0.0947
   20CHTO   H41 8369   6.720   3.352  -1.099  2.2886  0.8699 -0.4817
   20CHTO   H42 8370   6.829   3.267  -0.992  0.9080 -0.7569 -1.4721
   20CHTO   C22 8371   6.872   3.056  -1.149  0.0404 -0.5365  0.2316
   20CHTO   H50 8372   6.814   2.982  -1.095 -1.3837 -0.7332 -1.5456
   20CHTO   O14 8373   6.917   2.999  -1.273 -0.1547 -0.3520 -0.6185
   20CHTO   C23 8374   6.816   2.957  -1.362  0.0963  0.3650  0.0368
   20CHTO   H51 8375   6.763   2.877  -1.309 -1.3057  0.1857 -1.5838
   20CHTO   C34 8376   6.865   2.883  -1.481 -0.7507 -0.3825  0.0322
   20CHTO   O23 8377   6.966   2.787  -1.457 -0.0383  0.4686  0.0258
   20CHTO   H38 8378   6.976   2.727  -1.528  0.5307 -0.5832  0.9839
   20CHTO   O16 8379   6.998   3.081  -1.084  0.4340 -0.1452  0.5225
   20CHTO   C24 8380   7.060   2.951  -1.000  0.2236  0.1147  0.0720
   20CHTO   H52 8381   7.002   2.861  -1.018  1.2824 -1.2538  3.1016
   20CHTO   C26 8382   7.069   2.985  -0.850 -0.0703 -0.3898  0.3520
   20CHTO   H54 8383   7.116   3.085  -0.841 -2.6324  0.8354  0.3353
   20CHTO   O20 8384   6.939   3.009  -0.791 -0.0139  0.7652 -0.2784
   20CHTO   H36 8385   6.875   2.945  -0.817 -0.2540  0.3869  1.1912
   20CHTO   C30 8386   7.145   2.877  -0.765 -0.2557 -0.2384 -0.0555
   20CHTO   H58 8387   7.072   2.817  -0.708  1.0085  0.6270  2.5663
   20CHTO    N6 8388   7.218   2.944  -0.660 -0.0166 -0.2793  0.2246
   20CHTO   H45 8389   7.280   2.871  -0.608  1.6390  0.7616 -0.2617
   20CHTO   H46 8390   7.280   3.029  -0.684 -1.1866  1.3125  2.6402
   20CHTO   C33 8391   7.227   2.783  -0.862 -0.5860 -0.7144  0.5778
   20CHTO   H61 8392   7.306   2.727  -0.810  0.1294 -1.1031 -0.8794
   20CHTO   O18 8393   7.288   2.850  -0.973  0.6925 -0.2348  0.1644
   20CHTO   C28 8394   7.203   2.930  -1.055 -0.1429 -0.1357  0.3495
   20CHTO   H56 8395   7.246   3.028  -1.073 -0.6797 -0.4479 -2.9902
   20CHTO   C35 8396   7.197   2.861  -1.200 -0.1449 -0.6317  0.1212
   20CHTO   O24 8397   7.168   2.717  -1.186  0.0245  0.0092  0.0473
   20CHTO   H39 8398   7.197   2.671  -1.263  0.5295  0.5046 -0.0596
   20CHTO    O9 8399   7.140   2.681  -0.900 -0.7233 -0.2960 -0.2700
   20CHTO   C13 8400   7.217   2.505  -0.852 -0.1290  0.0616  0.1049
   20CHTO   H26 8401   7.322   2.527  -0.825 -0.3107 -0.2180  1.0338
   20CHTO   C11 8402   7.216   2.415  -0.978  0.0116  0.3228  0.7508
   20CHTO   H24 8403   7.298   2.445  -1.046  1.7537 -3.3474  1.1053
   20CHTO    O8 8404   7.093   2.438  -1.055  0.1197  0.7550 -0.1172
   20CHTO    H3 8405   7.099   2.518  -1.103  0.7722  0.2328 -0.9329
   20CHTO    C9 8406   7.235   2.268  -0.940 -0.5273  0.3169 -0.3217
   20CHTO   H22 8407   7.322   2.259  -0.873 -1.8109 -1.6501  1.1213
   20CHTO    N2 8408   7.273   2.177  -1.054  0.3732 -0.3433 -0.4704
   20CHTO   H10 8409   7.186   2.161  -1.116  0.3772 -1.1025 -0.2947
   20CHTO   H11 8410   7.356   2.217  -1.110 -0.0485  0.3235 -0.6193
   20CHTO    C7 8411   7.103   2.230  -0.865  0.1751 -0.1655  0.8363
   20CHTO   H20 8412   7.133   2.134  -0.817  0.5951 -0.0880  0.7305
   20CHTO    O4 8413   7.057   2.333  -0.774 -0.5526  0.0772  0.0745
   20CHTO   C14 8414   7.148   2.436  -0.732  0.0143  0.2342  0.2254
   20CHTO   H27 8415   7.228   2.392  -0.670 -0.6134 -1.5805 -0.2322
   20CHTO   C18 8416   7.062   2.529  -0.640  0.3335 -0.6794  0.6890
   20CHTO   O13 8417   6.948   2.568  -0.715 -0.2834  0.1476 -0.2067
   20CHTO    H7 8418   6.961   2.546  -0.806  1.0032  2.1564 -0.5394
   20CHTO    O2 8419   6.971   2.201  -0.969 -0.5382 -0.4759  0.0959
   20CHTO    C1 8420   6.848   2.191  -0.892 -0.1016  0.4452  0.1182
   20CHTO   H14 8421   6.853   2.258  -0.803 -0.7897  1.2764 -0.4597
   20CHTO    C2 8422   6.801   2.044  -0.854  0.0053 -0.0807 -0.2242
   20CHTO   H15 8423   6.780   1.987  -0.946  1.2754  1.9410 -1.7947
   20CHTO    O6 8424   6.903   1.982  -0.773 -0.1855 -0.3582  0.2398
   20CHTO    H1 8425   6.962   1.940  -0.832 -1.1144 -1.3260 -0.0111
   20CHTO    C3 8426   6.661   2.051  -0.779  0.2327 -0.1180 -0.9048
   20CHTO   H16 8427   6.664   2.107  -0.684 -0.5469  0.0630 -0.9864
   20CHTO    N1 8428   6.616   1.914  -0.746  0.6764 -0.3152  0.6540
   20CHTO    H8 8429   6.509   1.908  -0.755  0.4976  1.7853  1.2127
   20CHTO    H9 8430   6.657   1.846  -0.820  0.3717 -1.9608  1.9599
   20CHTO    C4 8431   6.554   2.135  -0.857 -0.2509 -0.1287  0.1438
   20CHTO   H17 8432   6.519   2.074  -0.940  0.3079 -1.9658  1.2357
   20CHTO    O1 8433   6.608   2.255  -0.924  0.0151  0.3708  0.0971
   20CHTO    C5 8434   6.741   2.243  -0.988  0.5008  0.0679 -0.4026
   20CHTO   H18 8435   6.733   2.178  -1.076 -0.6081  1.7714 -1.5862
   20CHTO   C16 8436   6.768   2.388  -1.031 -0.2054 -0.0824 -0.1598
   20CHTO   O11 8437   6.790   2.393  -1.173  0.2136  0.2818 -0.1012
   20CHTO    H5 8438   6.813   2.482  -1.188  1.7635 -0.1509 -0.3728
   20CHTO    O3 8439   6.436   2.174  -0.776  0.3065 -0.3095  0.3279
   20CHTO    C6 8440   6.299   2.162  -0.824  0.2645 -0.7951  0.0780
   20CHTO   H19 8441   6.283   2.110  -0.919  2.0564  0.3818 -0.8960
   20CHTO    C8 8442   6.219   2.076  -0.730  0.3928  0.4492  0.3699
   20CHTO   H21 8443   6.218   2.122  -0.631  1.1280  0.0397  0.5753
   20CHTO    O7 8444   6.291   1.949  -0.725 -0.0791 -0.1522  0.5932
   20CHTO    H2 8445   6.288   1.909  -0.641  2.2870  1.4741  1.4978
   20CHTO   C12 8446   6.072   2.057  -0.779 -0.0022  0.0675  0.5726
   20CHTO   H25 8447   6.064   2.007  -0.878  0.7780 -0.2669  0.6790
   20CHTO    N3 8448   6.002   1.957  -0.683 -0.6882  0.1700 -0.0170
   20CHTO   H12 8449   5.985   2.016  -0.594 -0.3976  0.6239 -0.2628
   20CHTO   H13 8450   6.059   1.866  -0.674  1.8951  1.7514  0.1086
   20CHTO   C15 8451   6.016   2.202  -0.788  0.5346  0.6127 -0.1245
   20CHTO   H28 8452   6.020   2.259  -0.695  0.2184  0.4887 -0.0319
   20CHTO   O10 8453   5.873   2.199  -0.864 -0.4094 -0.1669 -0.0795
   20CHTO    H4 8454   5.801   2.166  -0.814 -0.9012  0.7336 -0.1731
   20CHTO    O5 8455   6.089   2.269  -0.891 -0.3502  0.2214  0.4236
   20CHTO   C10 8456   6.223   2.297  -0.839  0.4790 -0.0203  0.1499
   20CHTO   H23 8457   6.229   2.339  -0.739  0.0560 -0.2436  0.2694
   20CHTO   C17 8458   6.308   2.385  -0.934  0.5652  0.2304  0.3540
   20CHTO   O12 8459   6.240   2.515  -0.950 -0.2597  0.1880  0.4621
   20CHTO    H6 8460   6.284   2.562  -1.017 -1.4041  0.0978 -0.3740
   21GLOH   H03 8461   8.782   2.769   0.746  0.6007 -0.2183  0.0013
   21GLOH    O1 8462   8.770   2.692   0.687  0.4030 -0.0537 -0.1746
   21GLOH    C1 8463   8.635   2.653   0.664  0.6581 -0.7262  0.4431
   21GLOH   H02 8464   8.578   2.726   0.606  1.2476 -0.0282  0.7276
   21GLOH   H08 8465   8.573   2.656   0.754 -0.5692  2.9539 -0.4271
   21GLOH    C2 8466   8.613   2.526   0.588  0.1990 -0.1645 -0.5371
   21GLOH   H04 8467   8.507   2.522   0.557 -0.2678 -0.0791  0.9833
   21GLOH    O2 8468   8.694   2.540   0.461 -0.5645 -0.5052 -0.0730
   21GLOH   H05 8469   8.781   2.500   0.476 -0.6711 -0.4510  0.7029
   21GLOH    C3 8470   8.656   2.408   0.671 -0.1257  0.1583  0.2749
   21GLOH   H06 8471   8.759   2.401   0.707  0.4596 -0.0586 -1.4166
   21GLOH   H07 8472   8.653   2.326   0.600 -0.6999  0.7169 -0.3506
   21GLOH    O3 8473   8.561   2.389   0.781  0.2418  0.3709  0.4268
   21GLOH   H01 8474   8.479   2.357   0.738  0.8248 -2.5154  1.3422
   22GLOH   H03 8475   7.849   8.010   3.552 -0.5826 -0.3079  0.8424
   22GLOH    O1 8476   7.921   8.041   3.610 -0.0724  0.2802 -0.1142
   22GLOH    C1 8477   7.862   8.150   3.696 -0.6134 -0.1432  0.3946
   22GLOH   H02 8478   7.780   8.113   3.757  1.0649 -0.0209  2.7849
   22GLOH   H08 8479   7.820   8.230   3.635  0.4168 -0.5335 -0.8491
   22GLOH    C2 8480   7.969   8.224   3.783 -0.0641 -0.0677  0.0447
   22GLOH   H04 8481   8.006   8.159   3.864  0.2161  0.2964  0.2114
   22GLOH    O2 8482   8.087   8.260   3.709 -0.0831  0.3392  0.5108
   22GLOH   H05 8483   8.170   8.256   3.759 -0.7521  4.0348  2.1106
   22GLOH    C3 8484   7.913   8.357   3.838  0.1653  0.6905 -0.2355
   22GLOH   H06 8485   7.893   8.415   3.748 -1.4719 -0.5333 -0.6860
   22GLOH   H07 8486   7.995   8.411   3.885  1.0445 -0.8843  0.0992
   22GLOH    O3 8487   7.804   8.342   3.927  0.0169  0.6647 -0.0925
   22GLOH   H01 8488   7.847   8.315   4.010  2.5052 -0.2358 -1.6373
   23GLOH   H03 8489   8.511   7.746   0.864  1.8137 -0.1263 -0.3730
   23GLOH    O1 8490   8.517   7.648   0.861  0.7053 -0.2241  0.3660
   23GLOH    C1 8491   8.420   7.601   0.958 -0.2964  0.6263  0.3617
   23GLOH   H02 8492   8.466   7.589   1.055  0.1456  1.2499  0.2317
   23GLOH   H08 8493   8.387   7.500   0.933 -0.7949  1.2207 -1.4543
   23GLOH    C2 8494   8.301   7.694   0.981 -0.3471 -0.1762  0.5420
   23GLOH   H04 8495   8.240   7.704   0.890  0.4038 -3.1264 -0.3132
   23GLOH    O2 8496   8.201   7.649   1.078  0.1705 -0.7181  0.3670
   23GLOH   H05 8497   8.134   7.593   1.036 -0.8446  1.5346 -1.1108
   23GLOH    C3 8498   8.356   7.837   1.008 -0.3379  0.4561 -0.3006
   23GLOH   H06 8499   8.423   7.836   1.094  0.3129  3.8842 -0.7144
   23GLOH   H07 8500   8.274   7.903   1.035  0.9507  1.0787  2.2567
   23GLOH    O3 8501   8.429   7.901   0.903 -0.6046  0.1781 -0.5410
   23GLOH   H01 8502   8.385   7.975   0.856 -0.3801  2.1233  2.1818
   24GLOH   H03 8503   9.982   3.499   6.331 -0.8290  1.4382 -1.7043
   24GLOH    O1 8504  10.068   3.518   6.289  0.0868  0.6798 -0.2201
   24GLOH    C1 8505  10.114   3.638   6.350 -0.5903  0.1376  0.3359
   24GLOH   H02 8506  10.213   3.656   6.309 -1.1790  1.3389 -0.5858
   24GLOH   H08 8507  10.132   3.635   6.458  2.4166 -2.0401 -0.1333
   24GLOH    C2 8508  10.022   3.755   6.304  0.3318  0.1274  0.2816
   24GLOH   H04 8509   9.924   3.733   6.350  0.3288 -0.8873 -0.1932
   24GLOH    O2 8510  10.060   3.888   6.359  0.0297  0.0121 -0.1984
   24GLOH   H05 8511  10.151   3.911   6.335 -0.5362  0.6743 -1.7483
   24GLOH    C3 8512  10.005   3.754   6.158 -0.3671 -0.2974 -0.0682
   24GLOH   H06 8513   9.943   3.836   6.121 -1.4656 -0.8189  0.5863
   24GLOH   H07 8514   9.948   3.667   6.126 -1.2671 -0.4887  1.9304
   24GLOH    O3 8515  10.130   3.761   6.085  0.0743 -0.0554 -0.2585
   24GLOH   H01 8516  10.117   3.802   5.998 -1.2655  2.1556  0.9463
   25GLOH   H03 8517   5.235   1.645   3.070  0.6547  0.2701 -0.2161
   25GLOH    O1 8518   5.220   1.723   3.127 -0.2112 -0.0253 -0.0152
   25GLOH    C1 8519   5.313   1.821   3.073  0.5611  0.0400 -0.2454
   25GLOH   H02 8520   5.283   1.855   2.974  0.4085 -0.1035 -0.2500
   25GLOH   H08 8521   5.408   1.768   3.064 -0.5642 -2.0490 -0.1943
   25GLOH    C2 8522   5.335   1.943   3.162 -0.5499  0.3068  0.2292
   25GLOH   H04 8523   5.339   1.916   3.268 -0.7264  0.8355  0.3719
   25GLOH    O2 8524   5.449   2.018   3.126  0.0528 -0.1862 -0.1537
   25GLOH   H05 8525   5.434   2.067   3.044  0.5416  0.6028  0.2189
   25GLOH    C3 8526   5.203   2.026   3.157  0.7012 -0.3401  0.6807
   25GLOH   H06 8527   5.181   2.049   3.053  1.1290 -0.3350  0.5916
   25GLOH   H07 8528   5.210   2.112   3.224 -0.4607 -0.7098  1.2975
   25GLOH    O3 8529   5.089   1.951   3.212  0.2537  1.0473  0.0912
   25GLOH   H01 8530   5.121   1.892   3.282 -0.2979 -0.8951 -1.2373
   26GLOH   H03 8531   6.880   1.749   4.814 -0.6187  0.8140 -0.7015
   26GLOH    O1 8532   6.804   1.738   4.875  0.6532 -0.2530  0.7218
   26GLOH    C1 8533   6.694   1.788   4.799  0.4098 -0.3897 -0.2230
   26GLOH   H02 8534   6.723   1.868   4.731  2.0451 -1.4718 -0.8367
   26GLOH   H08 8535   6.623   1.846   4.858  2.0737  2.1529 -0.6329
   26GLOH    C2 8536   6.623   1.673   4.725  0.0229  0.4239  0.2883
   26GLOH   H04 8537   6.583   1.614   4.809 -0.7602  0.9382  0.2800
   26GLOH    O2 8538   6.522   1.730   4.644 -0.3029  0.0144  0.1457
   26GLOH   H05 8539   6.470   1.663   4.597  1.3514 -2.3834  1.6086
   26GLOH    C3 8540   6.708   1.576   4.645  0.7071 -0.4242  0.1246
   26GLOH   H06 8541   6.655   1.504   4.582 -1.3285  1.3572 -0.2836
   26GLOH   H07 8542   6.757   1.514   4.719  1.3325 -0.6791 -0.4933
   26GLOH    O3 8543   6.803   1.641   4.555 -0.1096 -0.3350  0.4763
   26GLOH   H01 8544   6.749   1.703   4.503  0.4895 -0.6922 -0.5858
   27GLOH   H03 8545   1.230   8.279   2.590  0.1819  1.7960 -0.0255
   27GLOH    O1 8546   1.135   8.260   2.573  0.3870 -0.0462  0.8041
   27GLOH    C1 8547   1.050   8.375   2.590  0.1149 -0.0823  0.0529
   27GLOH   H02 8548   0.948   8.338   2.579 -0.6718  2.0592  0.0135
   27GLOH   H08 8549   1.060   8.449   2.512 -0.9032  1.2031  1.1168
   27GLOH    C2 8550   1.060   8.449   2.725  0.2193 -0.2183 -1.1683
   27GLOH   H04 8551   1.166   8.475   2.740  1.0758 -2.2129 -3.4390
   27GLOH    O2 8552   0.971   8.559   2.711  0.0448 -0.2701  0.1808
   27GLOH   H05 8553   1.007   8.629   2.768  1.8159 -1.3350  0.3826
   27GLOH    C3 8554   0.999   8.362   2.840 -0.7096  0.2295  0.5925
   27GLOH   H06 8555   1.028   8.257   2.841  0.0560  0.4401  0.2259
   27GLOH   H07 8556   0.891   8.363   2.825 -0.1328  4.0863 -4.9414
   27GLOH    O3 8557   1.026   8.415   2.971 -0.1510  0.7405  0.1941
   27GLOH   H01 8558   0.976   8.365   3.038 -0.2779  2.2624  1.2636
   28GLOH   H03 8559   4.316   3.369   1.147 -1.6526  0.1991 -1.5945
   28GLOH    O1 8560   4.346   3.307   1.078 -0.6331 -0.6175 -0.4486
   28GLOH    C1 8561   4.431   3.384   0.986 -1.2836  0.1830 -0.2180
   28GLOH   H02 8562   4.444   3.325   0.895  0.8143  0.1579  0.0741
   28GLOH   H08 8563   4.530   3.404   1.027 -2.2232  2.0058  1.2359
   28GLOH    C2 8564   4.373   3.511   0.926  1.1166 -0.1200  0.4535
   28GLOH   H04 8565   4.272   3.493   0.887  0.7974 -0.7394  1.5440
   28GLOH    O2 8566   4.364   3.612   1.028 -0.3591  0.3440  0.2270
   28GLOH   H05 8567   4.453   3.636   1.059 -0.1639 -1.2589  0.9305
   28GLOH    C3 8568   4.463   3.579   0.825 -0.6518 -0.3174  0.3316
   28GLOH   H06 8569   4.558   3.586   0.878  0.5500 -3.7998 -1.2106
   28GLOH   H07 8570   4.426   3.677   0.798 -0.2729 -0.3184 -0.2079
   28GLOH    O3 8571   4.469   3.512   0.701  0.0317 -0.5946 -0.5617
   28GLOH   H01 8572   4.382   3.518   0.657 -1.2603 -2.7845  1.5511
   29GLOH   H03 8573   3.761   5.819   5.130 -0.9576  0.2162 -0.5128
   29GLOH    O1 8574   3.776   5.886   5.199  0.0472 -0.7096  0.1890
   29GLOH    C1 8575   3.728   6.012   5.149 -0.0063  0.6782  0.2010
   29GLOH   H02 8576   3.620   6.012   5.129  0.0770  0.6064 -0.2641
   29GLOH   H08 8577   3.769   6.026   5.049  1.5548 -0.6660  0.6475
   29GLOH    C2 8578   3.773   6.127   5.238 -0.1351 -0.1074 -0.6568
   29GLOH   H04 8579   3.880   6.138   5.211  0.7311  0.5046  2.7844
   29GLOH    O2 8580   3.700   6.244   5.205  0.2509  0.2985  0.2210
   29GLOH   H05 8581   3.618   6.239   5.258 -0.4891  1.2842 -0.7860
   29GLOH    C3 8582   3.762   6.106   5.390  0.1853 -0.2699 -0.3831
   29GLOH   H06 8583   3.656   6.107   5.415  0.4607  2.8464  0.8887
   29GLOH   H07 8584   3.813   6.185   5.446 -3.2159  0.8806  1.1993
   29GLOH    O3 8585   3.814   5.980   5.425  0.7812  0.6002 -0.2950
   29GLOH   H01 8586   3.787   5.914   5.358  1.0013 -0.0526  0.2575
   30GLOH   H03 8587   6.724   7.235   2.814  1.2632  0.6366 -0.5300
   30GLOH    O1 8588   6.758   7.169   2.877 -0.0576  0.6426  0.2207
   30GLOH    C1 8589   6.886   7.119   2.827 -0.2910 -0.0139  0.1770
   30GLOH   H02 8590   6.951   7.200   2.794 -0.9230  0.5266  0.2467
   30GLOH   H08 8591   6.878   7.063   2.734 -1.0435  1.4799 -0.6684
   30GLOH    C2 8592   6.963   7.036   2.922  0.5851  0.4769 -0.9272
   30GLOH   H04 8593   6.917   6.936   2.933  2.2469 -0.2533 -0.2817
   30GLOH    O2 8594   7.092   7.015   2.865  0.1647  0.5244  0.2677
   30GLOH   H05 8595   7.141   7.095   2.892 -1.6372  0.8027  2.9442
   30GLOH    C3 8596   6.966   7.086   3.070 -0.4388  0.8183 -0.3899
   30GLOH   H06 8597   7.029   7.174   3.062 -0.6119  0.9982  0.2493
   30GLOH   H07 8598   7.022   7.011   3.126 -0.5678 -0.3819 -1.8119
   30GLOH    O3 8599   6.838   7.112   3.116  0.0921  0.1262  0.3324
   30GLOH   H01 8600   6.791   7.134   3.034 -0.4727  0.2311  0.6794
   31GLOH   H03 8601   1.210   7.279   1.597 -0.7885  0.1295 -1.6290
   31GLOH    O1 8602   1.147   7.325   1.656  0.3388 -0.1954 -0.1478
   31GLOH    C1 8603   1.139   7.464   1.611 -0.1558  0.3152  1.1912
   31GLOH   H02 8604   1.086   7.464   1.516  0.7306  0.8827  0.6920
   31GLOH   H08 8605   1.238   7.508   1.601 -0.6995  1.4890  0.9307
   31GLOH    C2 8606   1.062   7.544   1.720  0.4039 -0.2283 -0.2322
   31GLOH   H04 8607   1.075   7.502   1.821 -0.6138 -2.2634 -0.9053
   31GLOH    O2 8608   1.110   7.683   1.710  0.1803 -0.2448  0.0065
   31GLOH   H05 8609   1.202   7.693   1.741  0.4141 -0.9672 -0.4550
   31GLOH    C3 8610   0.914   7.529   1.699 -0.4528  0.4566  0.3483
   31GLOH   H06 8611   0.863   7.586   1.776 -1.5736 -1.5403  1.0945
   31GLOH   H07 8612   0.901   7.422   1.715 -0.1983  0.1831 -1.1366
   31GLOH    O3 8613   0.855   7.553   1.569  0.0803 -0.3173  0.5096
   31GLOH   H01 8614   0.832   7.471   1.522 -2.5536  0.9800 -0.6441
   32GLOH   H03 8615   7.357   2.487   1.598  0.1955  1.5879  0.7654
   32GLOH    O1 8616   7.359   2.506   1.502 -0.3376  0.0169  0.4280
   32GLOH    C1 8617   7.311   2.388   1.437 -0.4820  0.8496  0.0889
   32GLOH   H02 8618   7.272   2.408   1.337  2.2334  3.2729 -0.5457
   32GLOH   H08 8619   7.232   2.336   1.491  0.3841 -1.2395 -0.5935
   32GLOH    C2 8620   7.424   2.286   1.406 -0.1280 -0.2204 -0.2077
   32GLOH   H04 8621   7.445   2.235   1.500  0.6649  2.0313  0.8790
   32GLOH    O2 8622   7.375   2.193   1.303 -0.0773 -0.0558 -0.2648
   32GLOH   H05 8623   7.321   2.126   1.350  1.0299 -0.7031  0.1033
   32GLOH    C3 8624   7.553   2.365   1.354  0.9135 -1.0483  0.3449
   32GLOH   H06 8625   7.530   2.422   1.264 -1.6346 -0.7331  1.1741
   32GLOH   H07 8626   7.632   2.294   1.329  2.4754  1.6322 -2.8487
   32GLOH    O3 8627   7.592   2.470   1.452 -0.4828 -0.1390 -0.3189
   32GLOH   H01 8628   7.511   2.505   1.494 -0.4529 -0.4143 -0.0189
   33GLOH   H03 8629   7.906   9.269   1.783 -2.4900 -0.6813  0.5012
   33GLOH    O1 8630   7.937   9.186   1.742  0.0604  0.2179  0.4958
   33GLOH    C1 8631   8.061   9.189   1.665  0.2541  0.6207 -0.0140
   33GLOH   H02 8632   8.105   9.288   1.667  0.2381  0.6180  0.3536
   33GLOH   H08 8633   8.042   9.168   1.559 -0.5240 -0.9573  0.4244
   33GLOH    C2 8634   8.160   9.079   1.713  0.3393 -0.5221 -0.5710
   33GLOH   H04 8635   8.165   9.085   1.822  1.7741 -1.3515 -0.5740
   33GLOH    O2 8636   8.121   8.937   1.683  0.8740  0.2525 -0.0651
   33GLOH   H05 8637   8.086   8.936   1.593 -0.0461  1.0754  0.2702
   33GLOH    C3 8638   8.297   9.107   1.654 -0.0637 -0.9484  0.0885
   33GLOH   H06 8639   8.285   9.137   1.550  3.6341  0.7506  0.0434
   33GLOH   H07 8640   8.355   9.015   1.651  2.0877  0.2722  2.4106
   33GLOH    O3 8641   8.362   9.219   1.716  0.6697 -1.0415  0.2591
   33GLOH   H01 8642   8.453   9.223   1.679  0.3738 -0.3604 -0.4002
   34GLOH   H03 8643   8.846   9.270   1.966  0.4952 -3.3088 -0.9191
   34GLOH    O1 8644   8.943   9.283   1.968  0.1155 -0.3470  0.0005
   34GLOH    C1 8645   8.994   9.172   1.886 -0.0227 -0.1821 -0.0493
   34GLOH   H02 8646   9.059   9.217   1.811  0.4950  0.5441  0.8205
   34GLOH   H08 8647   8.916   9.128   1.824  1.7682 -0.3100 -2.2536
   34GLOH    C2 8648   9.077   9.065   1.960  0.2231 -0.5505 -0.1197
   34GLOH   H04 8649   9.024   9.047   2.055 -1.2823  0.9679 -0.6613
   34GLOH    O2 8650   9.092   8.950   1.872  0.2100  0.0103  0.1626
   34GLOH   H05 8651   9.116   8.867   1.916  0.1556 -0.0210  0.1337
   34GLOH    C3 8652   9.218   9.127   1.995  0.6390  0.5012  0.3571
   34GLOH   H06 8653   9.251   9.184   1.909 -0.8547 -0.1509 -0.6739
   34GLOH   H07 8654   9.288   9.045   2.013 -0.8824 -0.4608  2.0857
   34GLOH    O3 8655   9.222   9.210   2.117 -0.1754  0.0887  0.8450
   34GLOH   H01 8656   9.203   9.155   2.196  1.7871 -0.3755  1.0147
   35GLOH   H03 8657   2.239   9.404   3.944  0.6477 -0.1238  0.7148
   35GLOH    O1 8658   2.258   9.469   3.875 -0.2642 -0.0696  0.5125
   35GLOH    C1 8659   2.240   9.610   3.914  0.0116  0.0693 -0.3180
   35GLOH   H02 8660   2.340   9.653   3.920 -0.1045  0.7347 -2.6749
   35GLOH   H08 8661   2.197   9.616   4.014 -1.2210 -3.8982 -0.5476
   35GLOH    C2 8662   2.171   9.690   3.805  0.3000 -0.2283 -0.2281
   35GLOH   H04 8663   2.219   9.679   3.707  1.7540  0.2366  0.4197
   35GLOH    O2 8664   2.042   9.633   3.780  0.2556  0.0722  0.1219
   35GLOH   H05 8665   2.014   9.655   3.690  0.9264  0.7144  0.0649
   35GLOH    C3 8666   2.166   9.844   3.833 -0.7284 -0.1840  0.2983
   35GLOH   H06 8667   2.100   9.846   3.919 -0.2792  0.2577  0.6333
   35GLOH   H07 8668   2.117   9.895   3.749  0.9786  2.3915  0.8225
   35GLOH    O3 8669   2.291   9.907   3.854 -0.3597  0.8079  0.5034
   35GLOH   H01 8670   2.305   9.902   3.951 -0.9820  0.6592  0.5881
   36GLOH   H03 8671   4.475   8.041   0.756 -0.6595 -0.4180  1.1369
   36GLOH    O1 8672   4.478   7.944   0.749  0.0192 -0.3908  1.0740
   36GLOH    C1 8673   4.559   7.897   0.865  0.4301 -0.4089  0.1426
   36GLOH   H02 8674   4.665   7.912   0.847  0.8053  0.3428  2.7567
   36GLOH   H08 8675   4.542   7.791   0.882  1.3040 -0.7039 -0.8062
   36GLOH    C2 8676   4.521   7.976   0.997 -0.2072  0.6099 -0.3286
   36GLOH   H04 8677   4.413   7.969   1.021  0.0550 -1.6667  0.3376
   36GLOH    O2 8678   4.602   7.931   1.101  0.1575  0.0498 -0.3929
   36GLOH   H05 8679   4.566   7.985   1.174  2.9352  0.0145  1.0578
   36GLOH    C3 8680   4.542   8.122   0.968  0.3766 -0.1216 -0.0369
   36GLOH   H06 8681   4.647   8.150   0.978  0.0764  0.3711  2.0681
   36GLOH   H07 8682   4.483   8.176   1.042  0.2988  1.1390 -1.0108
   36GLOH    O3 8683   4.493   8.169   0.842  0.1223 -0.0224 -0.3564
   36GLOH   H01 8684   4.455   8.258   0.850 -0.5422 -0.4927  2.3006
   37GLOH   H03 8685   4.333   4.908   4.771  2.6598  0.6303 -0.0325
   37GLOH    O1 8686   4.355   4.836   4.709  0.7084  0.0166 -0.0217
   37GLOH    C1 8687   4.268   4.844   4.592  0.3334  1.1334 -0.0644
   37GLOH   H02 8688   4.177   4.789   4.616  0.2558  0.8567 -0.9540
   37GLOH   H08 8689   4.315   4.797   4.506 -2.0140 -0.8556 -0.3125
   37GLOH    C2 8690   4.220   4.987   4.564 -0.0591  0.1324 -0.1115
   37GLOH   H04 8691   4.306   5.055   4.551 -1.4930  2.0456  0.1996
   37GLOH    O2 8692   4.122   4.995   4.457  0.1147  0.2634 -0.6276
   37GLOH   H05 8693   4.160   4.968   4.372 -0.3244  0.7372 -0.9771
   37GLOH    C3 8694   4.148   5.026   4.695  0.6424  0.4890  0.9742
   37GLOH   H06 8695   4.061   4.961   4.704 -0.3993  1.8067  0.7334
   37GLOH   H07 8696   4.109   5.126   4.674  1.0902  0.3946 -0.3629
   37GLOH    O3 8697   4.238   5.034   4.810 -0.2812  1.0149  0.8817
   37GLOH   H01 8698   4.271   5.123   4.833  0.3840  0.0019  4.0220
   38GLOH   H03 8699   7.444   2.877   1.981  1.6698 -1.0386 -0.7336
   38GLOH    O1 8700   7.502   2.939   2.029 -0.3097  0.0510  0.3407
   38GLOH    C1 8701   7.626   2.939   1.954 -0.4941  0.1616 -0.1149
   38GLOH   H02 8702   7.608   2.901   1.853 -1.2590 -0.9058  0.4145
   38GLOH   H08 8703   7.703   2.879   2.002 -0.6734 -0.5461 -0.7027
   38GLOH    C2 8704   7.682   3.079   1.930  0.3411  0.6333 -0.4596
   38GLOH   H04 8705   7.598   3.132   1.884  0.6861  1.4530 -0.1462
   38GLOH    O2 8706   7.723   3.142   2.056  0.5494  0.2874  0.1192
   38GLOH   H05 8707   7.655   3.131   2.125  0.1106 -0.2905 -0.3950
   38GLOH    C3 8708   7.796   3.077   1.831 -0.1873  0.1185  0.3864
   38GLOH   H06 8709   7.868   2.998   1.852 -0.8881 -0.2608  1.3943
   38GLOH   H07 8710   7.842   3.176   1.835  1.8495 -0.7980  0.6376
   38GLOH    O3 8711   7.739   3.053   1.702  0.3957  0.4541 -0.1691
   38GLOH   H01 8712   7.801   2.993   1.655  0.6405  0.7850 -0.2683
   39GLOH   H03 8713   8.628   1.248   4.957  0.4181  1.1565  0.7636
   39GLOH    O1 8714   8.685   1.272   4.882 -0.2750 -0.3143 -0.2602
   39GLOH    C1 8715   8.668   1.184   4.767  0.2106 -0.5810  0.1262
   39GLOH   H02 8716   8.709   1.083   4.774 -0.6773 -0.9903 -0.5782
   39GLOH   H08 8717   8.718   1.221   4.678  0.2536  1.2134  0.8778
   39GLOH    C2 8718   8.520   1.162   4.724 -0.2499  0.7973  0.1253
   39GLOH   H04 8719   8.527   1.071   4.663  1.9959  0.9838  0.0560
   39GLOH    O2 8720   8.430   1.138   4.828  0.5538  0.3871  0.1719
   39GLOH   H05 8721   8.485   1.092   4.893 -0.1886 -0.1687  0.4175
   39GLOH    C3 8722   8.465   1.275   4.629  0.2566 -0.2165 -0.2096
   39GLOH   H06 8723   8.462   1.379   4.663 -0.0347  0.3337 -1.8936
   39GLOH   H07 8724   8.365   1.237   4.611  0.7881 -0.9673 -1.6356
   39GLOH    O3 8725   8.537   1.278   4.504  0.1731 -0.5257 -0.3863
   39GLOH   H01 8726   8.487   1.329   4.438  1.4327 -2.0045 -2.5559
   40GLOH   H03 8727   0.712   2.093   4.424 -0.5506  2.2536 -2.4636
   40GLOH    O1 8728   0.808   2.085   4.406 -0.1841  0.0270  0.1177
   40GLOH    C1 8729   0.858   1.952   4.431  0.6622 -0.4015 -0.3945
   40GLOH   H02 8730   0.812   1.916   4.523 -1.2017  1.6591 -0.4589
   40GLOH   H08 8731   0.964   1.965   4.452  0.5566  1.5686 -0.9221
   40GLOH    C2 8732   0.837   1.847   4.323  0.3069 -0.1092 -0.1990
   40GLOH   H04 8733   0.895   1.867   4.232  1.9287 -2.4849  0.2716
   40GLOH    O2 8734   0.884   1.719   4.365  0.2682 -0.1822 -0.5514
   40GLOH   H05 8735   0.877   1.649   4.298  0.5256  0.3353 -1.1256
   40GLOH    C3 8736   0.697   1.831   4.277  0.4162  0.3588 -0.0087
   40GLOH   H06 8737   0.659   1.913   4.216  1.2807 -1.0653 -2.5504
   40GLOH   H07 8738   0.632   1.826   4.365 -0.4876  0.5149 -0.6595
   40GLOH    O3 8739   0.688   1.718   4.186  0.2662  0.1950  0.4190
   40GLOH   H01 8740   0.761   1.718   4.121 -0.6983 -0.2830 -0.7094
   41GLOH   H03 8741   1.596   0.997   3.034  1.0628  0.2542  0.3095
   41GLOH    O1 8742   1.612   0.977   2.940  0.2522  0.7630  0.0530
   41GLOH    C1 8743   1.594   1.101   2.862 -0.0997  0.1688 -0.2281
   41GLOH   H02 8744   1.488   1.100   2.834 -0.8254 -1.6436  2.3731
   41GLOH   H08 8745   1.665   1.112   2.780 -0.0824 -0.7923 -0.3491
   41GLOH    C2 8746   1.606   1.232   2.948 -1.1272  0.5186 -0.2753
   41GLOH   H04 8747   1.510   1.247   2.999 -0.1310  0.4686  1.6713
   41GLOH    O2 8748   1.705   1.216   3.046 -0.3024  0.2388 -0.4390
   41GLOH   H05 8749   1.663   1.158   3.111  1.3774  1.7076  2.0523
   41GLOH    C3 8750   1.634   1.357   2.858  0.6580  0.0943 -0.7117
   41GLOH   H06 8751   1.737   1.346   2.825  0.3401 -0.3023 -1.5922
   41GLOH   H07 8752   1.627   1.447   2.919  0.0095  0.7280 -1.6956
   41GLOH    O3 8753   1.537   1.367   2.751  0.7394  0.3438  0.1595
   41GLOH   H01 8754   1.456   1.409   2.785  0.3604 -0.1984 -0.0745
   42GLOH   H03 8755   4.469   4.539   3.917  0.2800 -0.5951 -0.6166
   42GLOH    O1 8756   4.395   4.488   3.955  0.4961 -0.3302  0.1711
   42GLOH    C1 8757   4.423   4.450   4.093  0.0454  0.2098 -0.2989
   42GLOH   H02 8758   4.448   4.545   4.141 -1.3767  0.3753  0.1306
   42GLOH   H08 8759   4.509   4.384   4.104 -0.9598 -1.2725 -1.2123
   42GLOH    C2 8760   4.300   4.396   4.166 -0.2550 -0.7839 -0.3567
   42GLOH   H04 8761   4.217   4.469   4.165  1.2934  1.0279 -3.1093
   42GLOH    O2 8762   4.265   4.275   4.102 -0.2509  0.0067 -0.4548
   42GLOH   H05 8763   4.241   4.282   4.008 -1.4613 -0.4624 -0.1997
   42GLOH    C3 8764   4.343   4.367   4.308  0.1939 -0.2096 -0.2173
   42GLOH   H06 8765   4.432   4.305   4.298 -0.0048 -0.1217 -2.9579
   42GLOH   H07 8766   4.274   4.298   4.356 -1.8363 -0.3091 -3.1405
   42GLOH    O3 8767   4.356   4.492   4.382 -0.1213  0.3499  0.5804
   42GLOH   H01 8768   4.278   4.518   4.435 -0.7221  2.6005 -1.3340
   43GLOH   H03 8769   0.446   8.421   1.079  1.1025 -0.7907  1.6327
   43GLOH    O1 8770   0.527   8.472   1.061  0.1475  0.0797 -0.2566
   43GLOH    C1 8771   0.622   8.378   1.008  0.6193  0.1158 -0.2515
   43GLOH   H02 8772   0.592   8.281   1.048  0.0922  0.1928 -0.4577
   43GLOH   H08 8773   0.724   8.410   1.028  0.2601  1.8161 -0.9878
   43GLOH    C2 8774   0.604   8.368   0.855 -0.0008  0.0476  0.0621
   43GLOH   H04 8775   0.683   8.301   0.818  1.6746  1.9631  0.0608
   43GLOH    O2 8776   0.482   8.301   0.819 -0.4898  0.0714  0.3288
   43GLOH   H05 8777   0.470   8.226   0.880 -0.2174 -0.1065  0.1605
   43GLOH    C3 8778   0.614   8.504   0.795 -0.4788 -0.2928 -0.7563
   43GLOH   H06 8779   0.535   8.568   0.834 -1.1833 -2.3495  1.2810
   43GLOH   H07 8780   0.609   8.482   0.688  1.6439 -1.2579 -0.6764
   43GLOH    O3 8781   0.736   8.567   0.828  0.0863 -0.0378  0.1371
   43GLOH   H01 8782   0.718   8.656   0.864  0.6520  0.6960 -1.3379
   44GLOH   H03 8783   9.630   2.312   4.313 -1.7031 -2.5136 -1.3325
   44GLOH    O1 8784   9.662   2.251   4.382  0.0890 -0.3435 -0.1686
   44GLOH    C1 8785   9.635   2.303   4.517  0.2342  0.3954  0.0654
   44GLOH   H02 8786   9.677   2.403   4.526  0.8537  0.1156  0.2690
   44GLOH   H08 8787   9.691   2.242   4.588  0.3924 -0.6786 -0.9698
   44GLOH    C2 8788   9.490   2.297   4.561  0.6279  0.0550  0.0289
   44GLOH   H04 8789   9.425   2.301   4.472  1.3099 -1.4015 -0.5549
   44GLOH    O2 8790   9.453   2.179   4.627  0.2836  0.0078 -0.1263
   44GLOH   H05 8791   9.461   2.193   4.723  0.7398 -0.4920 -0.0876
   44GLOH    C3 8792   9.461   2.424   4.635  0.8471  0.1532 -0.6618
   44GLOH   H06 8793   9.356   2.425   4.665  0.9275  1.3935 -0.3981
   44GLOH   H07 8794   9.474   2.504   4.562 -0.5264  1.4792  0.5126
   44GLOH    O3 8795   9.541   2.448   4.747 -0.2987  0.4510  0.3676
   44GLOH   H01 8796   9.485   2.453   4.827 -0.7689  3.3229 -0.0795
   45GLOH   H03 8797   7.091   1.795   1.155  0.8230 -0.5588 -0.4326
   45GLOH    O1 8798   7.130   1.830   1.237  0.2061 -0.2131 -0.2825
   45GLOH    C1 8799   7.074   1.755   1.349  0.0678 -0.0200  0.4098
   45GLOH   H02 8800   7.126   1.662   1.373 -1.4610 -0.8619  0.5025
   45GLOH   H08 8801   6.971   1.725   1.331  0.7298 -0.7973 -2.4121
   45GLOH    C2 8802   7.056   1.849   1.471 -0.7821 -0.3978  0.1902
   45GLOH   H04 8803   6.974   1.919   1.455 -1.1090 -0.0683  3.0337
   45GLOH    O2 8804   7.001   1.770   1.584  0.2877 -0.4533 -0.5975
   45GLOH   H05 8805   6.911   1.736   1.569  0.3947 -1.1560  0.3460
   45GLOH    C3 8806   7.186   1.921   1.515 -0.4006  0.9020  0.2005
   45GLOH   H06 8807   7.266   1.847   1.528 -0.7889  0.2919 -0.8193
   45GLOH   H07 8808   7.175   1.968   1.612  2.6018  1.0294  0.5408
   45GLOH    O3 8809   7.229   2.015   1.415 -0.2111 -0.9240  0.5089
   45GLOH   H01 8810   7.232   1.960   1.334  4.9780 -3.5572  2.2809
   46GLOH   H03 8811   5.302   5.880   1.675 -0.3661 -3.1173  1.5308
   46GLOH    O1 8812   5.384   5.910   1.718 -0.3653 -0.1497 -0.4540
   46GLOH    C1 8813   5.490   5.827   1.667  0.4798 -0.4989 -0.3031
   46GLOH   H02 8814   5.581   5.863   1.715  0.3727  0.1232 -0.5584
   46GLOH   H08 8815   5.501   5.838   1.559  2.5168  0.9799  0.0328
   46GLOH    C2 8816   5.460   5.677   1.692  0.0037 -0.7567  0.0700
   46GLOH   H04 8817   5.363   5.644   1.652  0.6668 -1.5426 -0.9057
   46GLOH    O2 8818   5.559   5.594   1.619 -0.2476  0.3529 -0.4076
   46GLOH   H05 8819   5.652   5.621   1.622  0.1770 -1.1832  1.4468
   46GLOH    C3 8820   5.461   5.644   1.844 -1.0161  0.0045  0.1382
   46GLOH   H06 8821   5.431   5.737   1.892  0.5662  1.1937 -1.1228
   46GLOH   H07 8822   5.566   5.621   1.867 -1.2695 -0.7109  0.6053
   46GLOH    O3 8823   5.376   5.541   1.874  0.7814 -0.1476  0.2667
   46GLOH   H01 8824   5.331   5.556   1.958 -2.8529  0.8071 -1.7635
   47GLOH   H03 8825   9.257   2.271   3.175 -0.2041  2.3190 -0.9820
   47GLOH    O1 8826   9.278   2.303   3.265  0.2102  0.4228 -0.3849
   47GLOH    C1 8827   9.356   2.205   3.343  0.0644  0.6333 -0.0999
   47GLOH   H02 8828   9.295   2.123   3.384 -0.3492  1.4385  0.9255
   47GLOH   H08 8829   9.397   2.267   3.422 -1.1856  0.2727  0.8552
   47GLOH    C2 8830   9.479   2.146   3.267  1.1426 -0.1235 -0.3761
   47GLOH   H04 8831   9.441   2.111   3.170  3.6120 -2.1531 -0.6532
   47GLOH    O2 8832   9.572   2.253   3.237  0.8425  0.0934  0.6122
   47GLOH   H05 8833   9.554   2.290   3.149  2.2175  1.1557  0.7485
   47GLOH    C3 8834   9.537   2.022   3.345  0.4370  0.4650  0.5237
   47GLOH   H06 8835   9.562   2.046   3.448 -1.0595  1.7519  0.6019
   47GLOH   H07 8836   9.631   1.988   3.301  0.3489 -1.8189  2.0054
   47GLOH    O3 8837   9.455   1.909   3.340 -0.6847  0.0916 -0.1270
   47GLOH   H01 8838   9.491   1.845   3.404 -0.3422 -1.9471 -2.2910
   48GLOH   H03 8839   8.126   6.283   4.231 -0.2895 -0.6874 -3.1252
   48GLOH    O1 8840   8.036   6.316   4.248  0.3007 -0.3687 -0.3891
   48GLOH    C1 8841   7.956   6.196   4.241 -0.6306  0.1781  0.1083
   48GLOH   H02 8842   7.934   6.156   4.340  0.1220 -0.4444  0.0303
   48GLOH   H08 8843   8.016   6.125   4.184  0.9441  1.6646 -0.1260
   48GLOH    C2 8844   7.822   6.214   4.161 -0.3436  0.7422  0.4787
   48GLOH   H04 8845   7.864   6.241   4.063 -1.2738  1.0201  0.1517
   48GLOH    O2 8846   7.738   6.096   4.142  0.5286 -0.5945 -0.6387
   48GLOH   H05 8847   7.792   6.016   4.155  2.1570  0.2970 -1.7109
   48GLOH    C3 8848   7.740   6.324   4.237  0.5328 -0.1035  0.0036
   48GLOH   H06 8849   7.679   6.286   4.318  1.4751 -0.2595  0.6546
   48GLOH   H07 8850   7.671   6.359   4.160  0.4940 -0.6013 -0.1871
   48GLOH    O3 8851   7.815   6.445   4.277  0.7355  0.1539 -0.6484
   48GLOH   H01 8852   7.903   6.405   4.293  0.7609 -0.0787 -1.3262
   49GLOH   H03 8853   7.862   0.525   6.488  1.5180 -1.2272 -0.3854
   49GLOH    O1 8854   7.869   0.524   6.585  0.4160 -0.2166 -0.2770
   49GLOH    C1 8855   7.772   0.617   6.632 -0.9142 -0.1820 -0.3537
   49GLOH   H02 8856   7.758   0.612   6.740 -0.0461 -1.1688 -0.2727
   49GLOH   H08 8857   7.675   0.604   6.585 -1.1170  1.7546 -0.4907
   49GLOH    C2 8858   7.814   0.759   6.588 -0.0743  0.0871 -0.2571
   49GLOH   H04 8859   7.793   0.776   6.481 -2.9706  1.4606  0.4707
   49GLOH    O2 8860   7.724   0.853   6.652 -0.0421  0.8779 -0.2586
   49GLOH   H05 8861   7.728   0.839   6.748  0.7661 -0.2618 -0.4484
   49GLOH    C3 8862   7.960   0.792   6.614 -0.1663  0.3882  0.1882
   49GLOH   H06 8863   7.980   0.799   6.721 -0.1362 -0.2947  0.2298
   49GLOH   H07 8864   7.985   0.886   6.566  2.1099 -0.4265 -0.2757
   49GLOH    O3 8865   8.050   0.692   6.556  0.1574 -0.0511 -0.7608
   49GLOH   H01 8866   8.006   0.606   6.568 -0.6121  0.4494  0.0271
   50GLOH   H03 8867   9.894   3.195   0.344  2.6930 -1.9769  0.2258
   50GLOH    O1 8868   9.848   3.129   0.399 -0.1821  0.0428  0.3867
   50GLOH    C1 8869   9.746   3.190   0.480  0.9274  0.1079 -0.2669
   50GLOH   H02 8870   9.678   3.111   0.512  1.1094 -0.0752 -0.3322
   50GLOH   H08 8871   9.697   3.270   0.424 -2.0021 -1.1038  0.4919
   50GLOH    C2 8872   9.797   3.250   0.613  0.4056 -0.7632 -0.0951
   50GLOH   H04 8873   9.822   3.161   0.672  0.5521 -1.2210 -0.8484
   50GLOH    O2 8874   9.909   3.336   0.594 -0.1918 -0.4137 -0.0366
   50GLOH   H05 8875   9.985   3.280   0.570  1.1476  1.4643 -0.2362
   50GLOH    C3 8876   9.680   3.320   0.687  0.7091 -0.9055  0.7542
   50GLOH   H06 8877   9.636   3.397   0.624 -1.7878 -2.0333  1.0308
   50GLOH   H07 8878   9.719   3.358   0.782 -3.1367 -0.3627  2.2020
   50GLOH    O3 8879   9.569   3.237   0.724 -0.2977 -0.1400  0.5497
   50GLOH   H01 8880   9.597   3.146   0.745 -1.2370 -0.2604  1.2857
   51GLOH   H03 8881   8.338   3.395   0.756  0.0068 -0.9262  0.1382
   51GLOH    O1 8882   8.419   3.428   0.799 -0.4402  0.4192 -0.0084
   51GLOH    C1 8883   8.525   3.327   0.797  1.0912  0.8004 -0.5175
   51GLOH   H02 8884   8.523   3.262   0.709 -0.1194  0.3685 -0.1785
   51GLOH   H08 8885   8.514   3.259   0.881 -1.2411  5.1374  2.8424
   51GLOH    C2 8886   8.667   3.392   0.799 -0.8195  0.3182 -0.4408
   51GLOH   H04 8887   8.676   3.470   0.876  0.4276  1.2755 -1.5377
   51GLOH    O2 8888   8.764   3.283   0.838  0.6063 -0.5382 -0.1347
   51GLOH   H05 8889   8.855   3.312   0.855  1.4298 -2.5027 -1.0844
   51GLOH    C3 8890   8.709   3.453   0.663  0.4736  0.1194 -0.4269
   51GLOH   H06 8891   8.632   3.522   0.629  0.6098 -0.6318 -2.3344
   51GLOH   H07 8892   8.719   3.368   0.595  2.5704  1.5642 -2.0007
   51GLOH    O3 8893   8.835   3.524   0.661 -0.2653 -0.0591 -0.6267
   51GLOH   H01 8894   8.901   3.473   0.611 -0.0029 -0.5844  0.2528
   52GLOH   H03 8895   8.121   9.332   2.452 -0.3486  0.1622 -0.4649
   52GLOH    O1 8896   8.099   9.249   2.406 -0.1110 -0.3908  0.4085
   52GLOH    C1 8897   8.013   9.279   2.294 -0.3063 -0.0419 -0.8876
   52GLOH   H02 8898   7.930   9.339   2.330 -0.5334 -0.2613 -1.0392
   52GLOH   H08 8899   7.963   9.190   2.256 -0.2789 -1.0962  1.4479
   52GLOH    C2 8900   8.083   9.358   2.188  0.5184  0.6295  0.4283
   52GLOH   H04 8901   8.000   9.373   2.117 -1.2012 -3.1834  1.5030
   52GLOH    O2 8902   8.115   9.488   2.232 -0.2951  0.3158  0.5798
   52GLOH   H05 8903   8.040   9.548   2.248 -0.4747  0.4801 -0.8160
   52GLOH    C3 8904   8.204   9.284   2.127  0.2190  0.5604 -0.4777
   52GLOH   H06 8905   8.284   9.288   2.202 -0.6007 -0.6357  0.4868
   52GLOH   H07 8906   8.247   9.334   2.041 -2.2684 -1.5670 -3.0320
   52GLOH    O3 8907   8.186   9.149   2.097  0.6053  0.6503 -0.2781
   52GLOH   H01 8908   8.248   9.111   2.032  0.2829 -1.1943  0.4486
   53GLOH   H03 8909   7.522   8.600   3.339 -1.5566  0.1185  1.0735
   53GLOH    O1 8910   7.550   8.506   3.341 -0.5596  0.3653 -0.4151
   53GLOH    C1 8911   7.526   8.437   3.220 -0.5665 -0.1253 -0.3013
   53GLOH   H02 8912   7.590   8.349   3.221  0.0298  0.3098  1.1719
   53GLOH   H08 8913   7.566   8.498   3.139  0.5683 -0.5506 -0.0589
   53GLOH    C2 8914   7.383   8.399   3.186 -0.3210  0.0783 -0.1528
   53GLOH   H04 8915   7.338   8.496   3.160 -0.2217  0.1407 -0.0873
   53GLOH    O2 8916   7.375   8.307   3.071  0.0670  0.4011  0.1898
   53GLOH   H05 8917   7.293   8.259   3.093 -0.9623  1.6232 -0.9172
   53GLOH    C3 8918   7.307   8.349   3.303  0.3183 -0.1547  0.3980
   53GLOH   H06 8919   7.203   8.377   3.285  0.2640 -1.2448 -0.9620
   53GLOH   H07 8920   7.332   8.405   3.394  1.6372  0.5749 -0.4038
   53GLOH    O3 8921   7.321   8.210   3.338  0.2107  0.6097 -0.0944
   53GLOH   H01 8922   7.274   8.163   3.266  1.0250  0.3104 -0.4367
   54GLOH   H03 8923   2.527   4.372   5.513 -1.1264 -2.2512  2.1793
   54GLOH    O1 8924   2.582   4.419   5.578 -0.3238 -0.0456 -0.0165
   54GLOH    C1 8925   2.511   4.463   5.698  0.3247 -0.2979 -0.2483
   54GLOH   H02 8926   2.578   4.513   5.769  0.7047 -0.0181 -0.7983
   54GLOH   H08 8927   2.456   4.382   5.746 -1.1684  0.2370 -1.0189
   54GLOH    C2 8928   2.404   4.575   5.685  0.1897  0.6461  0.1857
   54GLOH   H04 8929   2.315   4.537   5.633 -0.0919 -1.4032  2.1066
   54GLOH    O2 8930   2.333   4.627   5.800  0.1943 -0.4368  0.0852
   54GLOH   H05 8931   2.343   4.571   5.879  1.1750  0.3809  0.5515
   54GLOH    C3 8932   2.466   4.687   5.596  1.0168  0.4201 -0.8717
   54GLOH   H06 8933   2.569   4.695   5.630  0.5877 -2.7944  1.4597
   54GLOH   H07 8934   2.425   4.786   5.615 -0.0202 -0.2806  0.6138
   54GLOH    O3 8935   2.469   4.650   5.457  0.0060 -0.3831 -0.3360
   54GLOH   H01 8936   2.550   4.689   5.421  1.1257  0.7495  3.1636
   55GLOH   H03 8937   6.625   9.757   1.167 -0.0520 -1.3589  0.4461
   55GLOH    O1 8938   6.588   9.764   1.078  0.6871  0.3301  0.2511
   55GLOH    C1 8939   6.569   9.629   1.024 -0.0284 -0.0863  0.0585
   55GLOH   H02 8940   6.670   9.592   1.011 -0.3878 -0.6697 -1.0447
   55GLOH   H08 8941   6.521   9.641   0.927 -0.8252  0.7598  0.5458
   55GLOH    C2 8942   6.484   9.535   1.109  1.0683 -0.0580 -0.1406
   55GLOH   H04 8943   6.472   9.440   1.055  1.0808 -1.2889  1.9422
   55GLOH    O2 8944   6.552   9.523   1.239 -0.1579  0.2387 -1.1605
   55GLOH   H05 8945   6.599   9.604   1.264 -3.3788  0.9761  3.1418
   55GLOH    C3 8946   6.350   9.601   1.125  0.1034  0.1174 -0.0873
   55GLOH   H06 8947   6.315   9.610   1.022 -1.2190  0.2061  0.3639
   55GLOH   H07 8948   6.346   9.698   1.176 -1.3520  0.0148  0.0195
   55GLOH    O3 8949   6.262   9.520   1.206  0.0333  0.2906 -0.0711
   55GLOH   H01 8950   6.309   9.445   1.246 -1.2768 -0.6025 -0.1826
   56GLOH   H03 8951   1.056   3.552   5.075 -0.6614  3.1757 -1.0984
   56GLOH    O1 8952   1.126   3.573   5.140 -0.3769  0.3528 -0.4427
   56GLOH    C1 8953   1.089   3.691   5.216 -0.0322  0.5320 -0.1539
   56GLOH   H02 8954   1.175   3.729   5.272  0.6797  0.2192 -1.0262
   56GLOH   H08 8955   1.021   3.651   5.292  1.4206  1.1035  1.4878
   56GLOH    C2 8956   1.015   3.804   5.144 -0.2703  0.0107  0.5319
   56GLOH   H04 8957   1.068   3.810   5.047  0.1467  0.6587  0.7963
   56GLOH    O2 8958   0.880   3.777   5.109  0.3803  0.2371 -0.5296
   56GLOH   H05 8959   0.852   3.841   5.041  1.8271  0.5644 -0.8341
   56GLOH    C3 8960   1.012   3.938   5.216 -0.8784 -0.4132  0.4337
   56GLOH   H06 8961   0.979   3.928   5.320 -1.5793  0.6874  0.3388
   56GLOH   H07 8962   0.938   4.002   5.167 -0.4608 -0.1656  0.1187
   56GLOH    O3 8963   1.146   3.996   5.217  0.1098  0.2126 -0.1114
   56GLOH   H01 8964   1.209   3.968   5.287 -0.1932 -0.3219 -0.0545
   57GLOH   H03 8965   2.030   3.834   0.997  0.1062  1.4145  2.8794
   57GLOH    O1 8966   2.113   3.786   1.016 -0.3878 -0.5370  0.2818
   57GLOH    C1 8967   2.134   3.805   1.157  0.3612 -0.4928 -0.2315
   57GLOH   H02 8968   2.047   3.776   1.215 -0.4977  0.2273 -1.1255
   57GLOH   H08 8969   2.142   3.914   1.164 -1.2008 -0.5214  2.7322
   57GLOH    C2 8970   2.260   3.728   1.202  0.5227 -0.0466  0.0833
   57GLOH   H04 8971   2.337   3.768   1.135  0.9807 -0.6004  0.2734
   57GLOH    O2 8972   2.297   3.760   1.341  0.3737  0.3878 -0.0528
   57GLOH   H05 8973   2.230   3.753   1.411 -1.4843 -2.2561 -1.9713
   57GLOH    C3 8974   2.247   3.576   1.186  0.8643  0.3681 -0.3308
   57GLOH   H06 8975   2.335   3.529   1.230 -0.0546 -0.7964  0.2771
   57GLOH   H07 8976   2.243   3.571   1.077  0.4634 -2.2736 -0.2205
   57GLOH    O3 8977   2.133   3.525   1.256  0.2339  0.0030  0.4834
   57GLOH   H01 8978   2.116   3.569   1.341  0.2902 -0.4174  0.7122
   58GLOH   H03 8979   9.040   1.893   0.346  1.2318 -1.7380 -0.5059
   58GLOH    O1 8980   9.089   1.856   0.422  0.4969 -0.2910  0.6874
   58GLOH    C1 8981   9.045   1.918   0.542  0.6347  0.7361 -0.1058
   58GLOH   H02 8982   9.078   1.856   0.626 -2.7695 -0.9823  0.0461
   58GLOH   H08 8983   8.937   1.908   0.546  0.7533 -0.0350  1.9411
   58GLOH    C2 8984   9.082   2.061   0.568  0.1667 -0.5215 -0.0283
   58GLOH   H04 8985   9.001   2.112   0.621  0.7109  1.1596 -0.7901
   58GLOH    O2 8986   9.201   2.071   0.659  0.1017 -0.3058  0.3686
   58GLOH   H05 8987   9.172   2.118   0.739  0.1372 -1.2486  0.9460
   58GLOH    C3 8988   9.101   2.141   0.436  0.3000 -0.6121 -0.4150
   58GLOH   H06 8989   9.014   2.137   0.370 -0.4445 -2.0437  0.6105
   58GLOH   H07 8990   9.179   2.088   0.383  0.4684 -0.5394 -0.2436
   58GLOH    O3 8991   9.130   2.279   0.446  0.2861 -0.0248  0.3055
   58GLOH   H01 8992   9.225   2.293   0.460  0.5203  0.9192 -2.0537
   59GLOH   H03 8993   6.836   9.912   1.647  0.3685  0.3430  2.2911
   59GLOH    O1 8994   6.783   9.831   1.657  0.8911 -0.2964  0.1539
   59GLOH    C1 8995   6.788   9.764   1.533  0.1144  0.2259 -0.2351
   59GLOH   H02 8996   6.790   9.657   1.552 -1.3515  0.2035 -0.1427
   59GLOH   H08 8997   6.882   9.787   1.483  0.7680 -0.6374  0.5714
   59GLOH    C2 8998   6.670   9.796   1.438 -0.4529 -0.7161 -0.7314
   59GLOH   H04 8999   6.651   9.905   1.430 -0.2356 -0.6083  0.1717
   59GLOH    O2 9000   6.690   9.748   1.304 -0.1014 -0.0103  0.0569
   59GLOH   H05 9001   6.774   9.787   1.276 -0.6188 -0.3081 -1.9450
   59GLOH    C3 9002   6.540   9.736   1.494  0.0891 -0.4958  0.1745
   59GLOH   H06 9003   6.570   9.642   1.540  0.0825 -1.1234 -1.0900
   59GLOH   H07 9004   6.468   9.714   1.416 -1.9264  0.4757  1.7256
   59GLOH    O3 9005   6.481   9.821   1.595 -0.3909 -0.2737 -0.2498
   59GLOH   H01 9006   6.403   9.772   1.628  0.6251 -2.0865 -0.4617
   60GLOH   H03 9007   8.695   2.943   0.778 -3.3943  0.7011  1.2820
   60GLOH    O1 9008   8.698   2.877   0.850 -0.2770 -1.0086 -0.3000
   60GLOH    C1 9009   8.666   2.938   0.977  0.3008 -0.2096  0.3128
   60GLOH   H02 9010   8.606   2.864   1.030 -0.3845  0.8553  1.0548
   60GLOH   H08 9011   8.597   3.021   0.964  1.3029  1.0187  2.4984
   60GLOH    C2 9012   8.799   2.976   1.045 -0.1472 -0.3779  0.1022
   60GLOH   H04 9013   8.848   3.041   0.971  0.1813 -0.2347  0.4375
   60GLOH    O2 9014   8.777   3.047   1.173  0.1058  0.1511 -0.1401
   60GLOH   H05 9015   8.860   3.046   1.224 -1.1968 -0.4682  2.0439
   60GLOH    C3 9016   8.882   2.848   1.075 -0.3848 -1.2119  0.0521
   60GLOH   H06 9017   8.967   2.878   1.137 -0.4885 -1.9527  0.5587
   60GLOH   H07 9018   8.929   2.814   0.983 -1.1661 -1.8024 -0.1325
   60GLOH    O3 9019   8.800   2.750   1.138 -0.1771  0.0467  0.5394
   60GLOH   H01 9020   8.732   2.726   1.072  0.1793 -2.5192  1.0423
   61GLOH   H03 9021   5.143   1.593   4.855  0.2317 -0.8268  0.4670
   61GLOH    O1 9022   5.223   1.613   4.906  0.1361 -0.4520  0.4701
   61GLOH    C1 9023   5.200   1.543   5.030  0.0255  0.1258  0.1327
   61GLOH   H02 9024   5.202   1.436   5.010 -1.5025  0.0858  0.1508
   61GLOH   H08 9025   5.098   1.568   5.057 -0.5187 -0.4005 -1.4244
   61GLOH    C2 9026   5.296   1.572   5.145  0.6296  0.0325  0.1544
   61GLOH   H04 9027   5.284   1.679   5.167  2.1215  0.0089  1.1976
   61GLOH    O2 9028   5.252   1.493   5.261  0.1620  0.0021  0.0957
   61GLOH   H05 9029   5.307   1.514   5.339 -0.6512 -0.8603  0.9199
   61GLOH    C3 9030   5.435   1.537   5.097  0.7881  0.3472 -0.4755
   61GLOH   H06 9031   5.430   1.428   5.094  2.8003  0.2533 -1.7393
   61GLOH   H07 9032   5.505   1.563   5.177  2.1003  1.0358 -1.8233
   61GLOH    O3 9033   5.472   1.602   4.969  0.7197 -0.0328  0.0307
   61GLOH   H01 9034   5.383   1.603   4.929 -0.0643  0.5289  1.7460
   62GLOH   H03 9035   6.692   0.766   1.372 -0.7904  1.8717 -2.4641
   62GLOH    O1 9036   6.600   0.784   1.400 -0.3258  0.1508  0.3179
   62GLOH    C1 9037   6.529   0.659   1.408  0.0896  0.2073 -0.2067
   62GLOH   H02 9038   6.581   0.593   1.478 -1.4233 -0.7043  0.0776
   62GLOH   H08 9039   6.528   0.605   1.314 -1.8207 -0.3655  0.1270
   62GLOH    C2 9040   6.391   0.682   1.458 -0.2033  0.4608 -0.0978
   62GLOH   H04 9041   6.335   0.751   1.394 -0.4624  0.7831  0.4678
   62GLOH    O2 9042   6.322   0.554   1.446 -0.3134  0.0199  0.1105
   62GLOH   H05 9043   6.360   0.495   1.513  1.8892  0.0089 -1.1242
   62GLOH    C3 9044   6.384   0.743   1.601 -0.4038  0.7312 -0.2081
   62GLOH   H06 9045   6.278   0.761   1.622 -0.2601 -0.1589  1.3429
   62GLOH   H07 9046   6.432   0.839   1.591 -0.1101  0.5061 -0.9764
   62GLOH    O3 9047   6.443   0.659   1.702 -0.4831 -0.2931  0.2780
   62GLOH   H01 9048   6.374   0.618   1.757 -0.2850 -1.9718 -0.6927
   63GLOH   H03 9049   5.647   7.163   4.888  0.1407 -0.1851  0.3525
   63GLOH    O1 9050   5.744   7.156   4.887  0.1710  0.1961  0.1999
   63GLOH    C1 9051   5.804   7.265   4.946  0.2047 -0.0380 -0.0050
   63GLOH   H02 9052   5.898   7.236   4.992  0.7610 -0.9047 -1.6597
   63GLOH   H08 9053   5.740   7.303   5.026  0.4795  1.1608 -0.3386
   63GLOH    C2 9054   5.834   7.376   4.844  0.5345  0.4909 -0.5596
   63GLOH   H04 9055   5.887   7.339   4.756  3.7721  3.1120  0.1985
   63GLOH    O2 9056   5.711   7.440   4.798  0.3800 -0.2012 -0.0986
   63GLOH   H05 9057   5.658   7.385   4.738 -0.4555 -0.3830  0.8085
   63GLOH    C3 9058   5.922   7.480   4.909 -0.3374  0.2509 -0.2919
   63GLOH   H06 9059   5.894   7.497   5.013 -0.0029  1.2678 -0.3675
   63GLOH   H07 9060   5.908   7.574   4.855 -3.0772  1.1951  1.9905
   63GLOH    O3 9061   6.055   7.435   4.911  0.1806 -0.1216 -0.2885
   63GLOH   H01 9062   6.079   7.422   4.818 -0.2548  1.2154 -0.5945
   64GLOH   H03 9063   0.816   1.438   4.060  0.3457 -0.9622 -1.7045
   64GLOH    O1 9064   0.792   1.357   4.110  0.1413 -0.1654 -0.4833
   64GLOH    C1 9065   0.875   1.348   4.227 -0.3063 -0.4257 -0.1964
   64GLOH   H02 9066   0.892   1.245   4.258 -0.6501 -0.6858 -0.8590
   64GLOH   H08 9067   0.826   1.386   4.317  1.3187  2.2458 -0.3747
   64GLOH    C2 9068   1.013   1.414   4.203  0.5956 -0.4510 -0.2228
   64GLOH   H04 9069   1.064   1.355   4.126 -0.3809  0.2089 -1.4077
   64GLOH    O2 9070   0.979   1.549   4.165 -0.4209 -0.4830 -0.2555
   64GLOH   H05 9071   1.061   1.600   4.152 -1.7095  1.7904  0.2352
   64GLOH    C3 9072   1.098   1.406   4.328 -0.4601  0.2452 -0.4673
   64GLOH   H06 9073   1.054   1.456   4.414 -0.1042  1.7775 -1.1585
   64GLOH   H07 9074   1.195   1.449   4.304 -1.1100  1.6584 -0.5539
   64GLOH    O3 9075   1.124   1.268   4.377  0.1538  0.1328  0.8099
   64GLOH   H01 9076   1.213   1.236   4.350 -1.0814 -1.2548 -1.7839
   65GLOH   H03 9077   5.605   7.225   3.789 -1.4128 -1.1240 -1.7504
   65GLOH    O1 9078   5.537   7.203   3.856  0.4210  0.3761  0.7243
   65GLOH    C1 9079   5.403   7.196   3.798 -0.2702 -0.1109 -0.2982
   65GLOH   H02 9080   5.344   7.136   3.867 -1.4445  1.6582  0.2689
   65GLOH   H08 9081   5.420   7.159   3.697 -0.2689 -1.3283  0.1431
   65GLOH    C2 9082   5.324   7.331   3.810 -0.0379 -0.0392  0.1901
   65GLOH   H04 9083   5.227   7.315   3.760  0.7939 -0.0098 -1.4617
   65GLOH    O2 9084   5.306   7.357   3.947  0.0796 -0.1109  0.0118
   65GLOH   H05 9085   5.388   7.353   3.998  0.6251  1.6556 -0.7065
   65GLOH    C3 9086   5.395   7.448   3.739 -0.1473  0.0308  0.0626
   65GLOH   H06 9087   5.496   7.456   3.779 -0.3690  1.1664  0.4091
   65GLOH   H07 9088   5.342   7.535   3.778  0.0475  0.4293 -0.5672
   65GLOH    O3 9089   5.390   7.437   3.594 -0.3208 -0.1940  0.1465
   65GLOH   H01 9090   5.464   7.488   3.558 -0.5396 -0.4806 -0.7336
   66GLOH   H03 9091   3.797   3.678   3.386 -2.0363 -2.1988  0.3982
   66GLOH    O1 9092   3.815   3.663   3.481  0.0131  0.1002  0.4108
   66GLOH    C1 9093   3.935   3.587   3.496  0.5081  0.2940  0.4972
   66GLOH   H02 9094   4.013   3.640   3.442  1.2991 -1.1375  0.2229
   66GLOH   H08 9095   3.925   3.491   3.448  2.2851 -0.0456  0.7840
   66GLOH    C2 9096   3.983   3.579   3.639  0.2208  0.3737  0.5491
   66GLOH   H04 9097   3.900   3.546   3.704 -0.1285 -0.5865 -0.3658
   66GLOH    O2 9098   4.078   3.475   3.639 -0.3597  0.1630  0.1606
   66GLOH   H05 9099   4.168   3.507   3.621  1.6309 -4.6594  0.6957
   66GLOH    C3 9100   4.025   3.712   3.695  1.2891 -0.6176 -0.0492
   66GLOH   H06 9101   3.945   3.784   3.678 -0.5034 -3.5688 -5.2437
   66GLOH   H07 9102   4.117   3.733   3.641  0.7152 -0.5271 -0.9960
   66GLOH    O3 9103   4.055   3.706   3.835 -0.4438 -0.0106 -0.2828
   66GLOH   H01 9104   3.980   3.663   3.882  0.9431 -2.0961  0.1183
   67GLOH   H03 9105   6.629   7.119   5.475 -1.1895 -0.5658  3.0309
   67GLOH    O1 9106   6.619   7.023   5.467 -0.0422 -0.4640 -0.1816
   67GLOH    C1 9107   6.584   6.988   5.335  0.6469 -0.0511 -0.2316
   67GLOH   H02 9108   6.581   7.081   5.278  1.1426 -0.6352 -1.2110
   67GLOH   H08 9109   6.490   6.933   5.329  0.4127  0.5206 -2.1427
   67GLOH    C2 9110   6.685   6.895   5.265 -0.0415  0.7143  0.5806
   67GLOH   H04 9111   6.702   6.806   5.327  1.7657  2.0758  2.0754
   67GLOH    O2 9112   6.629   6.862   5.138  0.2482 -0.1132 -0.0221
   67GLOH   H05 9113   6.591   6.940   5.095  0.3883 -0.4647 -0.7932
   67GLOH    C3 9114   6.817   6.968   5.249 -0.0291  0.4668 -0.3933
   67GLOH   H06 9115   6.798   7.063   5.198  1.5941  1.2255  0.3655
   67GLOH   H07 9116   6.888   6.918   5.183  0.5323  1.8904 -0.8910
   67GLOH    O3 9117   6.873   6.993   5.380  0.4757 -0.6849  0.1934
   67GLOH   H01 9118   6.800   6.979   5.443 -0.6428 -0.5821 -1.0531
   68GLOH   H03 9119   0.333   5.151   3.759 -0.5976 -0.7876 -0.1358
   68GLOH    O1 9120   0.253   5.171   3.811 -0.8428 -0.6581 -0.5581
   68GLOH    C1 9121   0.306   5.208   3.943  0.2331 -0.1437 -0.5478
   68GLOH   H02 9122   0.378   5.290   3.937 -0.5701  0.8673  2.7962
   68GLOH   H08 9123   0.357   5.121   3.986 -0.2302  0.2349  0.7764
   68GLOH    C2 9124   0.199   5.267   4.033  0.2724 -0.5951  0.1029
   68GLOH   H04 9125   0.137   5.179   4.056 -2.0532  1.5332  2.4413
   68GLOH    O2 9126   0.259   5.324   4.159 -0.4095  0.0753  0.5944
   68GLOH   H05 9127   0.269   5.256   4.228 -0.0499 -1.8225 -1.2705
   68GLOH    C3 9128   0.113   5.372   3.968 -0.4205  0.5771 -0.2226
   68GLOH   H06 9129   0.181   5.456   3.957  0.8418 -0.4912 -0.6954
   68GLOH   H07 9130   0.034   5.401   4.038  0.6245  3.9415 -0.3377
   68GLOH    O3 9131   0.056   5.313   3.850 -0.3381  0.1012 -0.1736
   68GLOH   H01 9132   0.127   5.256   3.816 -0.3343  0.6345 -1.0951
   69GLOH   H03 9133   5.349   3.207   3.363 -1.1629 -0.7433  1.2190
   69GLOH    O1 9134   5.325   3.292   3.403 -0.1545 -0.0514  0.3977
   69GLOH    C1 9135   5.285   3.293   3.538  0.3699 -0.1278 -0.2664
   69GLOH   H02 9136   5.258   3.391   3.578  4.9610  0.4916  1.6732
   69GLOH   H08 9137   5.372   3.262   3.597  0.6202 -0.4634 -0.8118
   69GLOH    C2 9138   5.175   3.187   3.569  0.3690 -0.3628  0.2393
   69GLOH   H04 9139   5.101   3.201   3.488  0.7418 -1.1791 -0.2470
   69GLOH    O2 9140   5.231   3.053   3.565 -0.2060  0.1077  0.0097
   69GLOH   H05 9141   5.272   3.043   3.478 -2.1737 -0.5872 -0.8576
   69GLOH    C3 9142   5.094   3.227   3.697  0.2286  0.1524 -0.5751
   69GLOH   H06 9143   5.150   3.207   3.788 -1.6703  3.0174  1.2980
   69GLOH   H07 9144   5.007   3.162   3.705 -2.6569  3.8928  0.1377
   69GLOH    O3 9145   5.049   3.361   3.701  0.3758 -0.1068  0.6042
   69GLOH   H01 9146   5.006   3.382   3.786  0.8672  0.1015  0.8031
   70GLOH   H03 9147   4.869   5.242   0.623 -0.1570 -0.8316 -0.3437
   70GLOH    O1 9148   4.808   5.198   0.684  0.0617 -0.7933 -0.0967
   70GLOH    C1 9149   4.669   5.237   0.674 -0.3216  0.2624 -0.0023
   70GLOH   H02 9150   4.653   5.331   0.621 -1.1432 -0.6891 -1.4410
   70GLOH   H08 9151   4.628   5.244   0.775  1.1311  0.0066  0.6268
   70GLOH    C2 9152   4.594   5.125   0.595  0.0679  0.2268  0.0153
   70GLOH   H04 9153   4.605   5.032   0.652 -3.4878 -0.7696 -0.8281
   70GLOH    O2 9154   4.453   5.150   0.598 -0.1537  0.0797 -1.0041
   70GLOH   H05 9155   4.412   5.119   0.516  1.5701  1.6502 -2.4912
   70GLOH    C3 9156   4.662   5.098   0.455 -0.2328  0.1492 -0.3867
   70GLOH   H06 9157   4.625   5.005   0.411 -0.4104  0.6326 -1.2758
   70GLOH   H07 9158   4.771   5.098   0.465 -0.4250 -0.0871  1.8145
   70GLOH    O3 9159   4.623   5.192   0.349 -0.9643 -0.3701 -0.2248
   70GLOH   H01 9160   4.630   5.148   0.263  0.8037  1.1462 -0.8728
   71GLOH   H03 9161   4.695   7.951   5.217 -0.3541 -0.7658 -1.6710
   71GLOH    O1 9162   4.745   7.868   5.217 -0.7996 -1.0349 -0.5628
   71GLOH    C1 9163   4.878   7.906   5.173  0.1130  0.4123  0.1295
   71GLOH   H02 9164   4.887   7.975   5.089  1.2481 -0.0350 -0.1213
   71GLOH   H08 9165   4.919   7.811   5.140 -0.1521  1.4362 -3.3738
   71GLOH    C2 9166   4.972   7.954   5.287  0.8231 -0.4688 -0.5283
   71GLOH   H04 9167   4.919   8.035   5.339  0.5310 -0.3542 -1.0009
   71GLOH    O2 9168   5.004   7.847   5.381  0.4486  0.1853  0.8283
   71GLOH   H05 9169   4.924   7.806   5.416  1.5377 -0.9509  2.0490
   71GLOH    C3 9170   5.104   8.013   5.238 -0.9899 -0.8548  0.3073
   71GLOH   H06 9171   5.141   7.928   5.180 -1.4039 -0.8426  0.0186
   71GLOH   H07 9172   5.162   8.033   5.327 -0.7688  0.6758 -0.1659
   71GLOH    O3 9173   5.101   8.134   5.155  0.1676 -0.1434  0.3410
   71GLOH   H01 9174   5.192   8.140   5.120  1.0030 -0.6903  2.3557
   72GLOH   H03 9175   1.163   8.198   1.374  0.0940 -0.3348 -1.1190
   72GLOH    O1 9176   1.257   8.208   1.348  0.4186  0.6551  0.3739
   72GLOH    C1 9177   1.331   8.083   1.344 -0.2083 -0.3345 -0.1832
   72GLOH   H02 9178   1.398   8.079   1.258  1.0091 -0.4457  0.7627
   72GLOH   H08 9179   1.255   8.006   1.332 -0.5076 -0.1351  0.3752
   72GLOH    C2 9180   1.411   8.060   1.472 -0.5601  0.6034 -0.5869
   72GLOH   H04 9181   1.469   8.149   1.501  1.4516 -1.2314  1.2276
   72GLOH    O2 9182   1.336   8.038   1.591  0.1926  0.1302  0.3522
   72GLOH   H05 9183   1.248   7.999   1.576 -0.1533  1.4651 -1.1905
   72GLOH    C3 9184   1.500   7.939   1.449 -0.2721  0.4514 -0.3454
   72GLOH   H06 9185   1.430   7.857   1.434  0.6008  0.0615 -2.3699
   72GLOH   H07 9186   1.562   7.922   1.536 -0.7435  0.3098 -0.0323
   72GLOH    O3 9187   1.579   7.952   1.339 -0.2119 -0.2297  0.5546
   72GLOH   H01 9188   1.632   8.034   1.336  0.8853 -0.9373 -4.3730
   73GLOH   H03 9189   9.065   0.673   1.825 -1.5100 -0.2875  0.6225
   73GLOH    O1 9190   9.067   0.576   1.825  0.4764 -0.2876 -0.9813
   73GLOH    C1 9191   8.952   0.510   1.885  0.5155 -0.4693  0.0915
   73GLOH   H02 9192   8.865   0.556   1.838  0.9728 -1.0943 -1.4184
   73GLOH   H08 9193   8.939   0.529   1.991  2.0709 -2.5505  0.6899
   73GLOH    C2 9194   8.960   0.358   1.860  0.2425 -0.3848  0.1544
   73GLOH   H04 9195   9.052   0.329   1.912  0.0072  1.3009  1.5371
   73GLOH    O2 9196   8.840   0.295   1.918 -0.5363  0.0094 -0.3602
   73GLOH   H05 9197   8.762   0.304   1.860 -1.6374  1.9102  1.3283
   73GLOH    C3 9198   8.974   0.329   1.712  0.3182  0.2555 -0.0828
   73GLOH   H06 9199   9.065   0.374   1.671  0.3658 -0.2161 -0.5060
   73GLOH   H07 9200   8.889   0.381   1.667  0.5312  0.6579 -0.0197
   73GLOH    O3 9201   8.966   0.189   1.688  0.0986 -0.4569  0.1017
   73GLOH   H01 9202   8.871   0.169   1.694 -0.0645 -0.0216 -0.8389
   74GLOH   H03 9203   3.955   4.470   0.318 -1.1103  2.1839  1.6211
   74GLOH    O1 9204   4.043   4.493   0.351  0.0280  0.0030  0.1789
   74GLOH    C1 9205   4.056   4.480   0.499  0.2836  0.2107  0.1199
   74GLOH   H02 9206   4.145   4.420   0.518  1.9023  1.9762 -1.6642
   74GLOH   H08 9207   3.960   4.436   0.524  0.0569 -1.6763 -3.6700
   74GLOH    C2 9208   4.062   4.610   0.579  0.4374  0.4676 -0.0411
   74GLOH   H04 9209   3.988   4.685   0.547  0.0933  0.7485  1.3825
   74GLOH    O2 9210   4.053   4.582   0.716 -0.4365 -0.1793 -0.3405
   74GLOH   H05 9211   3.976   4.627   0.752  0.5019  1.2240 -0.0627
   74GLOH    C3 9212   4.187   4.696   0.562  0.1599  0.0099  0.6049
   74GLOH   H06 9213   4.273   4.645   0.607  0.4235  0.5051  0.6675
   74GLOH   H07 9214   4.181   4.791   0.615 -1.1130 -0.5112  1.4222
   74GLOH    O3 9215   4.219   4.723   0.424 -0.5113 -0.3070 -0.1503
   74GLOH   H01 9216   4.139   4.770   0.394 -0.1811  1.3707  1.4729
   75GLOH   H03 9217   2.685   5.063   4.035 -2.5306 -1.4258  1.3867
   75GLOH    O1 9218   2.645   5.150   4.018  0.1653 -0.4366 -0.1887
   75GLOH    C1 9219   2.544   5.125   3.917  0.5118 -0.4627  0.5952
   75GLOH   H02 9220   2.569   5.043   3.851  0.9788 -0.5275  0.8554
   75GLOH   H08 9221   2.533   5.216   3.858  0.7486 -0.7715  0.0758
   75GLOH    C2 9222   2.401   5.084   3.976 -0.9562  0.1359  0.8296
   75GLOH   H04 9223   2.359   5.174   4.024 -1.8286  0.1516  0.0601
   75GLOH    O2 9224   2.320   5.048   3.861  0.4944 -0.1143  0.3911
   75GLOH   H05 9225   2.241   5.105   3.860  0.6328  0.0668 -0.2730
   75GLOH    C3 9226   2.417   4.969   4.076 -0.2776  0.2991  0.5417
   75GLOH   H06 9227   2.458   5.016   4.166  2.1442  0.1217 -0.4418
   75GLOH   H07 9228   2.488   4.891   4.049  0.6475  1.6891 -1.1650
   75GLOH    O3 9229   2.290   4.902   4.113 -0.0080  0.2864 -0.2999
   75GLOH   H01 9230   2.315   4.850   4.192  0.6249  0.2080 -0.5498
   76GLOH   H03 9231   7.808   6.410   3.895  0.1684 -2.6405 -1.0313
   76GLOH    O1 9232   7.713   6.403   3.872 -0.2474 -0.1392 -0.2034
   76GLOH    C1 9233   7.666   6.278   3.826  0.4626  0.3200  0.2639
   76GLOH   H02 9234   7.573   6.257   3.877 -0.0654  1.1313 -0.3543
   76GLOH   H08 9235   7.740   6.203   3.855  2.0765  1.2909 -1.2356
   76GLOH    C2 9236   7.654   6.276   3.673 -0.0794 -0.2900  0.7181
   76GLOH   H04 9237   7.750   6.304   3.629 -0.8009 -0.9676 -1.3416
   76GLOH    O2 9238   7.624   6.140   3.618 -0.0207 -1.1864  0.7400
   76GLOH   H05 9239   7.655   6.071   3.680  1.9774 -0.4589  0.5685
   76GLOH    C3 9240   7.542   6.370   3.620 -0.6204  0.5301  0.0587
   76GLOH   H06 9241   7.451   6.339   3.671 -0.5195  0.9041  0.4628
   76GLOH   H07 9242   7.537   6.371   3.511  0.9633 -0.0535 -0.0414
   76GLOH    O3 9243   7.583   6.500   3.661 -0.3791  0.5567 -0.5212
   76GLOH   H01 9244   7.640   6.484   3.739 -1.2601 -2.1824 -0.3921
   77GLOH   H03 9245   1.120   8.499   2.304 -1.2265  0.6616  0.6865
   77GLOH    O1 9246   1.140   8.592   2.325 -0.1786  0.6137 -0.0610
   77GLOH    C1 9247   1.280   8.593   2.283 -0.6244 -0.5182 -0.2692
   77GLOH   H02 9248   1.273   8.611   2.175 -3.1868 -0.4635 -0.1287
   77GLOH   H08 9249   1.341   8.506   2.306 -0.2715  0.1827  1.4510
   77GLOH    C2 9250   1.364   8.709   2.340  1.1289  0.2536 -0.1110
   77GLOH   H04 9251   1.449   8.716   2.270 -1.0137  3.2680 -2.5530
   77GLOH    O2 9252   1.294   8.840   2.330 -0.9397 -0.3778  0.3217
   77GLOH   H05 9253   1.207   8.839   2.373 -1.9424 -1.0807 -1.6464
   77GLOH    C3 9254   1.395   8.695   2.485  0.5495  0.8936 -0.5230
   77GLOH   H06 9255   1.413   8.793   2.530 -0.4243  0.2625  1.3139
   77GLOH   H07 9256   1.482   8.630   2.488  0.6644  1.0845  0.6443
   77GLOH    O3 9257   1.288   8.641   2.563 -0.2933  0.0328 -0.2272
   77GLOH   H01 9258   1.222   8.711   2.581 -1.9052 -2.0208  2.2884
   78GLOH   H03 9259   8.712   9.706   2.957 -0.4109  1.0245 -0.0124
   78GLOH    O1 9260   8.734   9.751   2.874 -0.0070 -0.3038 -0.6410
   78GLOH    C1 9261   8.822   9.662   2.801 -0.0662 -0.1877 -0.3217
   78GLOH   H02 9262   8.784   9.646   2.700  0.3989  1.8902 -0.8544
   78GLOH   H08 9263   8.821   9.567   2.854 -0.4514 -0.6216 -1.0956
   78GLOH    C2 9264   8.969   9.713   2.817  0.4189 -0.2619 -0.3929
   78GLOH   H04 9265   8.986   9.724   2.925  1.3548 -1.6744 -0.3763
   78GLOH    O2 9266   9.072   9.624   2.768  0.9309  0.4190  0.5539
   78GLOH   H05 9267   9.038   9.570   2.695  0.4197  1.6061 -0.0988
   78GLOH    C3 9268   9.002   9.854   2.770  0.0863 -0.4781 -0.4411
   78GLOH   H06 9269   9.104   9.887   2.785  0.4431 -1.3471 -0.8923
   78GLOH   H07 9270   8.940   9.926   2.824 -0.2279 -2.3485  1.7685
   78GLOH    O3 9271   8.977   9.869   2.632  0.2487 -0.6601  0.1484
   78GLOH   H01 9272   9.013   9.953   2.599  2.1241 -0.5270  2.4053
   79GLOH   H03 9273   1.865   3.599   2.644 -0.7210 -1.4230 -1.2458
   79GLOH    O1 9274   1.840   3.673   2.585  0.2821 -0.0002  0.0807
   79GLOH    C1 9275   1.693   3.671   2.585 -0.0956 -0.1583 -0.0972
   79GLOH   H02 9276   1.665   3.710   2.683  0.8258 -0.8008  0.4275
   79GLOH   H08 9277   1.652   3.570   2.586 -1.1540  0.2173 -2.3533
   79GLOH    C2 9278   1.624   3.749   2.469 -0.1907 -0.0939  0.4570
   79GLOH   H04 9279   1.667   3.722   2.372 -2.0634 -1.4087 -0.0274
   79GLOH    O2 9280   1.485   3.708   2.465  0.3187  0.2786  0.5298
   79GLOH   H05 9281   1.434   3.723   2.546 -2.1469  0.1971 -0.9625
   79GLOH    C3 9282   1.650   3.899   2.489  0.3537  1.0915  0.1501
   79GLOH   H06 9283   1.742   3.905   2.546  0.3631 -0.3219  0.3028
   79GLOH   H07 9284   1.569   3.941   2.549  1.8864  0.3414  2.8155
   79GLOH    O3 9285   1.651   3.969   2.359 -0.1541  0.2345 -0.5069
   79GLOH   H01 9286   1.577   4.031   2.369  0.0900  0.3149  0.8496
   80GLOH   H03 9287   7.195   1.395   6.401 -0.3825 -0.1684 -0.1958
   80GLOH    O1 9288   7.107   1.403   6.359 -0.3930  0.4005 -0.0749
   80GLOH    C1 9289   7.003   1.361   6.449 -0.6240  0.6845 -0.2844
   80GLOH   H02 9290   6.909   1.369   6.394 -0.3444  1.0058 -0.7057
   80GLOH   H08 9291   6.994   1.428   6.534 -2.1069  0.2896 -0.1031
   80GLOH    C2 9292   7.031   1.218   6.505  0.4145 -0.0018 -0.1695
   80GLOH   H04 9293   7.113   1.236   6.577  0.5223  0.2313 -0.3516
   80GLOH    O2 9294   6.923   1.164   6.581  0.5148  0.1684  0.0483
   80GLOH   H05 9295   6.939   1.070   6.600 -3.0113 -0.3901  0.6076
   80GLOH    C3 9296   7.090   1.127   6.400  0.7162 -0.4115 -0.5810
   80GLOH   H06 9297   7.188   1.167   6.374  1.7545 -2.1523  0.5349
   80GLOH   H07 9298   7.023   1.131   6.314 -1.7704 -1.4625  1.2712
   80GLOH    O3 9299   7.111   0.997   6.446 -0.7903 -0.1623 -0.3165
   80GLOH   H01 9300   7.118   0.930   6.375  0.5388 -1.7374  1.2260
   81GLOH   H03 9301   3.930   3.154   0.740 -0.3125 -2.5392  0.9336
   81GLOH    O1 9302   3.841   3.176   0.773 -0.2222 -0.2754 -0.2569
   81GLOH    C1 9303   3.848   3.161   0.909 -0.2186  0.3206 -0.1727
   81GLOH   H02 9304   3.934   3.099   0.937 -1.8474 -1.0315  2.0431
   81GLOH   H08 9305   3.760   3.105   0.943  0.4335 -0.2626  0.5927
   81GLOH    C2 9306   3.874   3.295   0.986  0.7226  0.4428 -0.3921
   81GLOH   H04 9307   3.795   3.369   0.969 -0.6730 -0.9830 -0.2051
   81GLOH    O2 9308   3.892   3.264   1.127  0.1268  0.0979  0.1308
   81GLOH   H05 9309   3.917   3.339   1.185 -1.0549  0.1743  0.5552
   81GLOH    C3 9310   4.000   3.369   0.935 -0.3339 -0.6538  0.1626
   81GLOH   H06 9311   4.014   3.454   1.002 -2.5416 -1.1618  1.3310
   81GLOH   H07 9312   3.974   3.400   0.834 -0.7475  0.6710  0.6632
   81GLOH    O3 9313   4.113   3.290   0.919  0.2779  0.0199  0.1260
   81GLOH   H01 9314   4.174   3.292   0.996  0.6961 -0.3914 -0.1899
   82GLOH   H03 9315   2.215   3.992   5.118  0.4430 -1.5060 -0.8449
   82GLOH    O1 9316   2.306   4.016   5.144 -0.2822  0.2878  0.1416
   82GLOH    C1 9317   2.392   3.906   5.095 -0.5092  0.0313  0.1414
   82GLOH   H02 9318   2.497   3.927   5.120  0.2192  1.8719 -3.9901
   82GLOH   H08 9319   2.383   3.876   4.991 -0.6155 -0.5927  0.3336
   82GLOH    C2 9320   2.361   3.785   5.175 -0.5157 -0.5693  0.7242
   82GLOH   H04 9321   2.256   3.761   5.152 -0.4795 -0.0483 -0.0159
   82GLOH    O2 9322   2.446   3.675   5.136 -0.2920 -0.6004  0.8051
   82GLOH   H05 9323   2.422   3.645   5.047  0.9794  0.0829  0.2142
   82GLOH    C3 9324   2.371   3.803   5.322  0.0490  1.0046  0.2938
   82GLOH   H06 9325   2.476   3.825   5.344 -0.7271  1.3926  3.9388
   82GLOH   H07 9326   2.351   3.715   5.383  0.0072 -0.5201 -1.8807
   82GLOH    O3 9327   2.289   3.912   5.360  0.0033  0.1308 -0.5265
   82GLOH   H01 9328   2.287   3.977   5.287 -0.3573  1.1424  0.3746
   83GLOH   H03 9329   8.939   7.068   2.863  1.5639  0.3786  3.5421
   83GLOH    O1 9330   8.971   7.159   2.852  0.4900  0.4299  0.2711
   83GLOH    C1 9331   8.973   7.219   2.980  0.9372  0.2900  0.8127
   83GLOH   H02 9332   9.058   7.184   3.038  0.6988  0.3403  1.1927
   83GLOH   H08 9333   8.887   7.178   3.033  0.3078 -0.0518 -0.4362
   83GLOH    C2 9334   8.963   7.375   2.962  0.2756 -0.3041 -0.2303
   83GLOH   H04 9335   9.045   7.420   2.904  1.4105  0.9621  2.2945
   83GLOH    O2 9336   8.836   7.416   2.903  0.7554 -0.1408  0.2252
   83GLOH   H05 9337   8.845   7.505   2.866 -3.2154  0.6386  0.9227
   83GLOH    C3 9338   8.997   7.438   3.096  0.0154  0.4218 -0.3121
   83GLOH   H06 9339   8.940   7.383   3.172  0.8938 -3.1363 -2.1098
   83GLOH   H07 9340   8.966   7.542   3.106 -0.0279  0.2079  2.1291
   83GLOH    O3 9341   9.135   7.415   3.135 -0.0040  0.2423 -0.3288
   83GLOH   H01 9342   9.194   7.430   3.059  3.3521 -2.1510  1.6879
   84GLOH   H03 9343   9.206   3.635   5.362 -0.0998  2.9013  0.4013
   84GLOH    O1 9344   9.127   3.649   5.306 -0.1717  0.1324 -0.2286
   84GLOH    C1 9345   9.123   3.784   5.257  0.2869  0.0321 -0.0330
   84GLOH   H02 9346   9.209   3.792   5.190 -0.5459 -1.5464 -1.3311
   84GLOH   H08 9347   9.145   3.850   5.340  1.5995 -0.0184 -0.3275
   84GLOH    C2 9348   8.986   3.828   5.206  0.0216  0.0015 -0.1457
   84GLOH   H04 9349   8.923   3.847   5.293  2.3471 -2.0408  2.0576
   84GLOH    O2 9350   8.992   3.948   5.125 -0.3676 -0.5391  0.3395
   84GLOH   H05 9351   8.966   4.026   5.177  0.7137  0.9810 -1.3171
   84GLOH    C3 9352   8.924   3.723   5.112 -0.0877 -0.7894 -0.4607
   84GLOH   H06 9353   8.988   3.724   5.024 -2.9116  2.4167 -2.6270
   84GLOH   H07 9354   8.823   3.753   5.081 -0.2619 -2.5809 -1.7255
   84GLOH    O3 9355   8.921   3.601   5.183  0.4273  0.6358  0.4101
   84GLOH   H01 9356   8.992   3.598   5.251 -0.6715 -0.3208  1.5485
   85GLOH   H03 9357   6.726   0.859   5.843  4.1470  0.4506 -0.7895
   85GLOH    O1 9358   6.744   0.772   5.882 -0.5692 -0.4210 -0.3000
   85GLOH    C1 9359   6.699   0.782   6.017  0.2586 -0.3462 -0.0790
   85GLOH   H02 9360   6.714   0.683   6.060  1.5301  0.4403  1.3435
   85GLOH   H08 9361   6.591   0.797   6.027  0.4885  1.5341 -0.2306
   85GLOH    C2 9362   6.776   0.895   6.088  0.1245  0.2715 -0.7297
   85GLOH   H04 9363   6.880   0.864   6.104 -0.5083 -2.3600 -1.3256
   85GLOH    O2 9364   6.771   1.023   6.016  0.1557  0.0168  0.3102
   85GLOH   H05 9365   6.863   1.045   5.992  0.7166 -1.7609  0.7619
   85GLOH    C3 9366   6.720   0.907   6.231 -0.2580 -0.2923  0.8724
   85GLOH   H06 9367   6.616   0.929   6.209 -0.0914 -0.1114  0.2581
   85GLOH   H07 9368   6.769   0.990   6.282 -0.4176  0.8119 -0.7505
   85GLOH    O3 9369   6.724   0.782   6.304 -0.0305  0.2055 -0.6764
   85GLOH   H01 9370   6.807   0.732   6.297 -0.5323 -0.6011 -0.9817
   86GLOH   H03 9371   6.444   1.333   4.972 -1.5802 -1.1294  1.2765
   86GLOH    O1 9372   6.528   1.290   4.993 -0.5422  0.0944 -0.2140
   86GLOH    C1 9373   6.594   1.239   4.870 -0.1561 -0.0595  0.2669
   86GLOH   H02 9374   6.667   1.159   4.880  0.3424  0.4771  0.9605
   86GLOH   H08 9375   6.649   1.326   4.835 -1.5409  1.2516  1.2433
   86GLOH    C2 9376   6.486   1.184   4.769 -0.7612 -0.3470 -0.2870
   86GLOH   H04 9377   6.435   1.097   4.811 -0.0249 -1.1531 -1.0483
   86GLOH    O2 9378   6.391   1.282   4.736  0.5148 -0.1876  0.9549
   86GLOH   H05 9379   6.377   1.347   4.806 -0.4485 -0.0691  0.6570
   86GLOH    C3 9380   6.566   1.127   4.652 -0.3068  0.1744  0.4526
   86GLOH   H06 9381   6.645   1.199   4.630 -1.3729  1.7534  1.6110
   86GLOH   H07 9382   6.508   1.109   4.562  0.1515 -0.4311  0.2769
   86GLOH    O3 9383   6.640   1.011   4.691  0.3105  0.8756  0.0008
   86GLOH   H01 9384   6.582   0.959   4.751  0.0611  0.3111 -0.7190
   87GLOH   H03 9385   7.509   3.147   2.634 -0.5126  0.7810  0.1302
   87GLOH    O1 9386   7.511   3.198   2.550 -0.7145 -0.0732 -0.3984
   87GLOH    C1 9387   7.580   3.325   2.572 -0.5703  0.4350  0.7575
   87GLOH   H02 9388   7.558   3.364   2.671 -0.3677  0.4763  0.7867
   87GLOH   H08 9389   7.555   3.403   2.501 -0.1695  0.3868  0.5612
   87GLOH    C2 9390   7.738   3.324   2.569  0.0236 -0.7176  0.0166
   87GLOH   H04 9391   7.771   3.276   2.662 -0.2586  1.8201  1.4835
   87GLOH    O2 9392   7.768   3.231   2.465 -0.2945 -0.1353 -0.5433
   87GLOH   H05 9393   7.683   3.214   2.423 -0.5427  0.5217 -0.3163
   87GLOH    C3 9394   7.817   3.460   2.551  0.0054  0.2635 -0.0854
   87GLOH   H06 9395   7.833   3.494   2.449 -1.6677  0.3353 -0.3442
   87GLOH   H07 9396   7.919   3.452   2.587  0.3342  0.6859 -0.9310
   87GLOH    O3 9397   7.745   3.560   2.619 -0.6257  0.3019 -0.5942
   87GLOH   H01 9398   7.801   3.640   2.610  1.2145 -0.8092  0.7666
   88GLOH   H03 9399   9.239   8.360   3.665  0.0080 -1.8879  1.6313
   88GLOH    O1 9400   9.304   8.305   3.618  0.2859 -0.1264 -0.1578
   88GLOH    C1 9401   9.403   8.273   3.716 -0.0329  0.7643 -0.4089
   88GLOH   H02 9402   9.457   8.185   3.682 -0.5318 -0.3749  1.7033
   88GLOH   H08 9403   9.348   8.246   3.806 -0.6861 -1.0220 -1.3354
   88GLOH    C2 9404   9.502   8.386   3.757 -0.4924  0.5563  0.0391
   88GLOH   H04 9405   9.437   8.462   3.803 -0.1950  0.1326  1.1574
   88GLOH    O2 9406   9.590   8.336   3.854  0.6094  0.4057 -0.3440
   88GLOH   H05 9407   9.543   8.326   3.939  0.2492 -3.6941 -0.9712
   88GLOH    C3 9408   9.578   8.443   3.640  0.2278  0.5275  0.0195
   88GLOH   H06 9409   9.669   8.386   3.620  1.2858  2.5027 -0.8261
   88GLOH   H07 9410   9.623   8.535   3.677  0.2197  0.2619  0.7022
   88GLOH    O3 9411   9.497   8.448   3.523 -0.2419 -0.4058 -0.1380
   88GLOH   H01 9412   9.415   8.399   3.540  0.1184 -0.3777  1.7825
   89GLOH   H03 9413   8.557   8.110   1.380 -0.0577  0.1260 -0.2315
   89GLOH    O1 9414   8.471   8.071   1.405 -0.3763  0.8667 -0.1511
   89GLOH    C1 9415   8.401   8.162   1.491  0.4485 -0.5730 -0.0728
   89GLOH   H02 9416   8.396   8.110   1.587 -1.6005  0.6166  0.5161
   89GLOH   H08 9417   8.302   8.173   1.447  0.9438 -1.0167 -1.3159
   89GLOH    C2 9418   8.456   8.307   1.510  0.1425 -0.2717 -0.9123
   89GLOH   H04 9419   8.442   8.362   1.415  0.4197 -0.9326 -1.3409
   89GLOH    O2 9420   8.388   8.386   1.604 -0.1908  0.6286 -0.5336
   89GLOH   H05 9421   8.407   8.475   1.570  2.0479  0.2407 -0.4127
   89GLOH    C3 9422   8.606   8.293   1.554 -0.1716  0.3007 -0.0581
   89GLOH   H06 9423   8.612   8.244   1.651  1.2966 -1.4289 -1.0110
   89GLOH   H07 9424   8.638   8.396   1.572 -0.7610  0.8759 -2.1637
   89GLOH    O3 9425   8.688   8.233   1.453  0.1179 -0.1143 -0.4029
   89GLOH   H01 9426   8.781   8.227   1.482  0.1643 -2.5308 -0.8965
   90GLOH   H03 9427   9.880   3.143   2.047  0.8148 -0.7896  0.5337
   90GLOH    O1 9428   9.899   3.113   1.956 -0.1415  0.0846  0.0311
   90GLOH    C1 9429  10.043   3.122   1.937  0.2735  0.2119  0.1445
   90GLOH   H02 9430  10.089   3.074   2.023 -2.0643  0.4238  1.5591
   90GLOH   H08 9431  10.092   3.220   1.936  0.8806 -0.0872 -1.5696
   90GLOH    C2 9432  10.079   3.061   1.806  0.0191  0.8819 -0.4673
   90GLOH   H04 9433  10.055   3.134   1.727  0.5285  1.2224 -0.3100
   90GLOH    O2 9434  10.223   3.042   1.804  0.0448  0.3176 -0.0300
   90GLOH   H05 9435  10.269   3.119   1.767  1.0721  0.2005  0.9533
   90GLOH    C3 9436  10.004   2.926   1.784  0.3516 -0.4259 -0.1154
   90GLOH   H06 9437   9.897   2.948   1.787  0.4314 -0.0475 -0.0318
   90GLOH   H07 9438  10.014   2.866   1.874 -1.0883  0.7366  0.8493
   90GLOH    O3 9439  10.041   2.852   1.666 -0.8672 -0.4530  0.3271
   90GLOH   H01 9440   9.972   2.794   1.627  0.3063 -1.6372 -0.0142
   91GLOH   H03 9441   7.866   2.862   4.184 -1.5150  0.5852 -0.0210
   91GLOH    O1 9442   7.831   2.774   4.209 -0.2696  0.0965  0.0349
   91GLOH    C1 9443   7.691   2.779   4.249 -0.1780  0.1722  0.0067
   91GLOH   H02 9444   7.652   2.677   4.259  1.2864 -0.1971  2.2425
   91GLOH   H08 9445   7.628   2.832   4.178  0.5811  0.2273 -0.6334
   91GLOH    C2 9446   7.673   2.845   4.392  0.3488 -0.1414  0.1192
   91GLOH   H04 9447   7.744   2.803   4.465 -0.3736 -1.2475  0.2085
   91GLOH    O2 9448   7.689   2.985   4.387  0.0694 -0.3336  0.8414
   91GLOH   H05 9449   7.762   3.009   4.446  0.4709  2.7889 -0.8490
   91GLOH    C3 9450   7.541   2.807   4.454 -0.3466 -0.3075 -0.1644
   91GLOH   H06 9451   7.470   2.840   4.379 -0.5457  0.0625  0.1885
   91GLOH   H07 9452   7.528   2.857   4.550 -0.9242 -0.4798 -0.1539
   91GLOH    O3 9453   7.530   2.664   4.471  0.2349 -0.2668  0.1985
   91GLOH   H01 9454   7.458   2.632   4.413  0.8502  0.2971 -0.8804
   92GLOH   H03 9455   0.710   9.228   3.412  4.3338 -1.9867 -0.6552
   92GLOH    O1 9456   0.741   9.317   3.435 -0.0681 -0.3788 -0.5208
   92GLOH    C1 9457   0.632   9.414   3.439 -0.4748 -0.1821  0.1296
   92GLOH   H02 9458   0.561   9.395   3.519  0.6088 -3.1739  0.4384
   92GLOH   H08 9459   0.579   9.420   3.343  1.1088  1.3208 -0.6934
   92GLOH    C2 9460   0.690   9.553   3.464 -0.0328 -0.1569  0.3441
   92GLOH   H04 9461   0.771   9.578   3.393 -1.0991  0.0165 -0.8356
   92GLOH    O2 9462   0.588   9.648   3.445  0.1268  0.0884  0.0130
   92GLOH   H05 9463   0.502   9.640   3.489  1.1519 -0.7291  1.8971
   92GLOH    C3 9464   0.747   9.560   3.608  0.6949 -0.1412 -0.2725
   92GLOH   H06 9465   0.813   9.645   3.622 -0.1268  0.2972  1.0425
   92GLOH   H07 9466   0.819   9.484   3.639  0.7254  0.9803  2.4748
   92GLOH    O3 9467   0.650   9.535   3.711  0.0738  0.1913  0.9212
   92GLOH   H01 9468   0.653   9.615   3.768  1.6013  0.7672  0.0699
   93GLOH   H03 9469   0.803   7.322   5.483  0.3972  1.2350  0.2278
   93GLOH    O1 9470   0.870   7.270   5.435 -0.5786  0.0550  0.1094
   93GLOH    C1 9471   0.970   7.248   5.541  0.3957  0.5133  0.2415
   93GLOH   H02 9472   0.923   7.188   5.619 -1.4514  0.8833 -0.5649
   93GLOH   H08 9473   1.011   7.339   5.585 -0.0651  0.8696 -0.0605
   93GLOH    C2 9474   1.091   7.173   5.487  0.8777 -0.3753 -0.4845
   93GLOH   H04 9475   1.056   7.102   5.410 -0.7626  0.1352 -0.2316
   93GLOH    O2 9476   1.168   7.273   5.428 -0.3289 -0.2747 -1.0095
   93GLOH   H05 9477   1.115   7.290   5.348  0.2963  0.0101 -1.3641
   93GLOH    C3 9478   1.172   7.096   5.589  0.2295  0.7642 -1.3216
   93GLOH   H06 9479   1.231   7.165   5.649 -2.2209  0.5587  1.4589
   93GLOH   H07 9480   1.235   7.033   5.525  1.7782  0.2140  0.7065
   93GLOH    O3 9481   1.097   7.010   5.671  0.7701  0.0421 -0.4354
   93GLOH   H01 9482   1.075   6.925   5.629  2.3548 -0.2195 -0.7604
   94GLOH   H03 9483   7.612   4.276   1.511  0.4130 -0.3026 -1.4152
   94GLOH    O1 9484   7.602   4.371   1.531 -0.0663 -0.4563 -0.9056
   94GLOH    C1 9485   7.470   4.411   1.480 -0.0058  0.5049  0.5805
   94GLOH   H02 9486   7.463   4.514   1.517  0.8737  0.9745 -0.5298
   94GLOH   H08 9487   7.394   4.341   1.514 -0.7284  0.9173 -0.1743
   94GLOH    C2 9488   7.463   4.402   1.328  0.0771 -1.0736  0.5919
   94GLOH   H04 9489   7.489   4.300   1.300  0.6730 -1.3779  2.1879
   94GLOH    O2 9490   7.327   4.439   1.285  0.1390 -0.1169 -0.3369
   94GLOH   H05 9491   7.291   4.369   1.228  1.6753 -2.7571  1.8306
   94GLOH    C3 9492   7.562   4.500   1.274 -0.2876 -0.2432  0.0043
   94GLOH   H06 9493   7.653   4.500   1.333 -1.3172  2.8492  1.7286
   94GLOH   H07 9494   7.521   4.600   1.289  0.6579 -0.0428  1.3076
   94GLOH    O3 9495   7.597   4.490   1.130 -0.4632 -0.3667 -0.0626
   94GLOH   H01 9496   7.520   4.452   1.083 -0.0568  0.1802 -1.1921
   95GLOH   H03 9497   7.127   1.879   1.849  0.6511 -0.8693  1.1761
   95GLOH    O1 9498   7.148   1.970   1.879  0.1701 -0.2563 -0.2982
   95GLOH    C1 9499   7.021   2.028   1.880  0.1912 -1.1727  0.0221
   95GLOH   H02 9500   6.956   1.985   1.804  0.5183  1.4083 -1.8113
   95GLOH   H08 9501   7.026   2.137   1.871 -1.1234 -1.0119  1.0991
   95GLOH    C2 9502   6.951   1.999   2.015 -0.0025  0.3908  0.6361
   95GLOH   H04 9503   7.032   2.002   2.089 -0.0765  0.8060  0.7020
   95GLOH    O2 9504   6.845   2.081   2.061  0.2391  0.3385  0.1263
   95GLOH   H05 9505   6.884   2.170   2.066 -0.5586  0.6107  1.5202
   95GLOH    C3 9506   6.905   1.850   2.004  0.8336 -0.7544 -0.0797
   95GLOH   H06 9507   6.828   1.842   1.927 -0.1741 -0.3061  0.8663
   95GLOH   H07 9508   6.856   1.826   2.098 -0.2444 -0.6896 -0.6082
   95GLOH    O3 9509   7.006   1.752   1.984 -0.0776 -0.0918  0.4093
   95GLOH   H01 9510   7.078   1.756   2.050  2.1159  0.0092 -1.9405
   96GLOH   H03 9511   8.897   8.729   0.699 -1.0232  1.0639  0.4179
   96GLOH    O1 9512   8.951   8.808   0.677  0.4145  0.0447  0.1830
   96GLOH    C1 9513   8.880   8.883   0.580 -0.9799 -1.0270  0.4296
   96GLOH   H02 9514   8.775   8.887   0.611 -0.5602  2.6191  1.6440
   96GLOH   H08 9515   8.884   8.848   0.476 -0.3095  2.9561 -0.9628
   96GLOH    C2 9516   8.936   9.026   0.575  0.5796  0.4402  0.4723
   96GLOH   H04 9517   9.041   9.015   0.544  0.2379  0.4355 -0.6835
   96GLOH    O2 9518   8.876   9.100   0.467 -0.0768 -0.4716 -0.7022
   96GLOH   H05 9519   8.779   9.095   0.477 -0.0860  0.5657 -0.2298
   96GLOH    C3 9520   8.922   9.102   0.707 -0.0795 -0.1195  0.4398
   96GLOH   H06 9521   8.820   9.094   0.744 -0.1014  0.8193  0.5958
   96GLOH   H07 9522   8.950   9.207   0.704 -2.9586  0.7246  1.4972
   96GLOH    O3 9523   9.007   9.043   0.808  0.2704 -0.1212 -0.1657
   96GLOH   H01 9524   9.006   8.946   0.803  3.1689 -0.2039 -0.3113
   97GLOH   H03 9525   1.630   5.231   2.815 -0.5012 -0.7123 -1.9081
   97GLOH    O1 9526   1.704   5.290   2.794  0.0010 -0.7632 -0.3234
   97GLOH    C1 9527   1.746   5.277   2.652 -0.1986 -0.9738 -0.0026
   97GLOH   H02 9528   1.661   5.245   2.591 -0.2066 -0.5375 -0.2252
   97GLOH   H08 9529   1.826   5.206   2.635  0.1063 -0.6904  0.2375
   97GLOH    C2 9530   1.788   5.413   2.594  0.6214  0.3111 -0.3722
   97GLOH   H04 9531   1.881   5.448   2.642  1.5438 -2.7869  0.1826
   97GLOH    O2 9532   1.829   5.378   2.463 -0.2642  0.2269  0.2823
   97GLOH   H05 9533   1.835   5.453   2.401 -0.6312 -0.5151 -0.6657
   97GLOH    C3 9534   1.674   5.520   2.601  0.2805 -0.0222  0.0279
   97GLOH   H06 9535   1.641   5.542   2.703 -0.9792 -0.7180 -0.2189
   97GLOH   H07 9536   1.589   5.489   2.539 -0.9801  2.0932  0.6278
   97GLOH    O3 9537   1.721   5.649   2.548 -0.2485  0.5276 -0.1855
   97GLOH   H01 9538   1.763   5.626   2.463  2.4898  0.9092  1.0171
   98GLOH   H03 9539   2.694   6.900   5.968 -2.1651  0.1207  1.3019
   98GLOH    O1 9540   2.689   6.808   5.934  0.2750  0.3006  0.3162
   98GLOH    C1 9541   2.554   6.785   5.889  0.3013  0.7126  0.0860
   98GLOH   H02 9542   2.531   6.681   5.910  2.6950  0.5813  2.3096
   98GLOH   H08 9543   2.538   6.800   5.783 -1.5763 -1.8680 -0.0430
   98GLOH    C2 9544   2.445   6.873   5.955  0.0185  0.2714  0.7988
   98GLOH   H04 9545   2.456   6.860   6.064 -0.9217 -3.4890  0.4982
   98GLOH    O2 9546   2.484   7.005   5.930  0.0453  0.0632 -0.1274
   98GLOH   H05 9547   2.521   7.028   5.843 -1.8156  2.0178 -0.4378
   98GLOH    C3 9548   2.305   6.836   5.910 -0.4347  1.0296  0.0189
   98GLOH   H06 9549   2.302   6.862   5.804 -1.8231 -1.4388 -0.5979
   98GLOH   H07 9550   2.227   6.897   5.957 -0.3678  0.5031  0.8253
   98GLOH    O3 9551   2.275   6.700   5.940  0.2417 -0.6137  0.5783
   98GLOH   H01 9552   2.308   6.653   5.862  1.1177  1.6780 -0.4935
   99GLOH   H03 9553   2.645   7.168   0.278 -0.7355  1.0172  1.3400
   99GLOH    O1 9554   2.627   7.078   0.312 -0.0495  0.2433 -0.2657
   99GLOH    C1 9555   2.729   7.040   0.401  0.9185  0.2364 -0.3979
   99GLOH   H02 9556   2.714   7.082   0.501  1.0368  0.6903 -0.5685
   99GLOH   H08 9557   2.825   7.070   0.361  2.1449  0.0693  2.3272
   99GLOH    C2 9558   2.724   6.886   0.418  0.1875 -0.1231 -1.2501
   99GLOH   H04 9559   2.712   6.857   0.313  0.8109  1.9158 -1.9076
   99GLOH    O2 9560   2.850   6.835   0.468 -0.4537 -0.1095 -0.6690
   99GLOH   H05 9561   2.831   6.744   0.497 -0.9917 -0.0866 -0.9522
   99GLOH    C3 9562   2.612   6.848   0.509  0.7802  0.2736 -0.2925
   99GLOH   H06 9563   2.629   6.897   0.605 -0.2119  0.4626 -0.2143
   99GLOH   H07 9564   2.608   6.740   0.520  0.7131  0.0605 -2.1965
   99GLOH    O3 9565   2.487   6.898   0.456  0.6320  0.2434 -0.2170
   99GLOH   H01 9566   2.486   6.975   0.396  1.5344  0.7442  0.3973
  100GLOH   H03 9567   3.949   8.963   3.867  0.5764 -1.1570  0.4095
  100GLOH    O1 9568   3.890   8.961   3.945  0.0151 -1.0260 -0.0069
  100GLOH    C1 9569   3.855   8.822   3.962 -0.7348 -0.2314  0.2103
  100GLOH   H02 9570   3.945   8.760   3.961  1.3035  2.6495 -0.8244
  100GLOH   H08 9571   3.805   8.786   3.872 -1.3955  0.2402  0.3812
  100GLOH    C2 9572   3.770   8.789   4.083 -0.1026 -0.4299 -0.6776
  100GLOH   H04 9573   3.672   8.835   4.065 -0.4454 -0.6284  0.6142
  100GLOH    O2 9574   3.742   8.645   4.081 -0.3276 -0.0803  0.2505
  100GLOH   H05 9575   3.651   8.629   4.053 -0.4237 -1.1740  1.1237
  100GLOH    C3 9576   3.835   8.846   4.213 -0.4375 -0.0377 -0.4594
  100GLOH   H06 9577   3.937   8.808   4.219  0.0050  1.4621  2.0367
  100GLOH   H07 9578   3.776   8.816   4.299 -2.2816  1.4705 -1.1541
  100GLOH    O3 9579   3.830   8.983   4.193  0.4809 -0.2890 -0.0965
  100GLOH   H01 9580   3.839   8.994   4.096 -0.2782 -1.7003 -0.3346
  101GLOH   H03 9581   2.000   8.760   2.974  0.0756  0.0433  0.0246
  101GLOH    O1 9582   2.069   8.708   2.929 -0.0196 -0.2356  0.2009
  101GLOH    C1 9583   2.170   8.793   2.860  0.2847  0.0067 -0.3348
  101GLOH   H02 9584   2.147   8.789   2.753 -0.8762  0.6435 -0.1204
  101GLOH   H08 9585   2.261   8.735   2.870  0.6956  0.8608  1.0062
  101GLOH    C2 9586   2.213   8.933   2.920  0.7275  0.0263 -0.2929
  101GLOH   H04 9587   2.128   9.000   2.905  0.6978  0.0110 -0.1844
  101GLOH    O2 9588   2.263   8.926   3.054 -0.4466  0.4156 -0.0499
  101GLOH   H05 9589   2.327   8.853   3.053  0.3569  1.1023  0.5977
  101GLOH    C3 9590   2.314   9.004   2.834 -0.9190  0.8737 -0.2078
  101GLOH   H06 9591   2.413   8.961   2.850 -1.3004 -0.1785 -0.6751
  101GLOH   H07 9592   2.318   9.106   2.872 -1.1318  0.8864 -0.2202
  101GLOH    O3 9593   2.273   9.005   2.694 -0.1398 -0.1892  0.4529
  101GLOH   H01 9594   2.203   9.070   2.674  0.8248  0.6528 -0.2616
  102GLOH   H03 9595   7.841   2.114   5.252  3.2869  0.7234 -1.5202
  102GLOH    O1 9596   7.871   2.026   5.278 -0.2193 -0.0235  0.2568
  102GLOH    C1 9597   7.821   1.918   5.195  0.2871 -0.0813 -0.0724
  102GLOH   H02 9598   7.898   1.877   5.130  0.7477  2.1116 -0.9580
  102GLOH   H08 9599   7.742   1.953   5.130  0.8194  1.1845 -0.0557
  102GLOH    C2 9600   7.761   1.813   5.294 -0.1915  0.5724  0.2689
  102GLOH   H04 9601   7.697   1.862   5.369 -1.7233 -0.3687 -0.3946
  102GLOH    O2 9602   7.694   1.714   5.211 -0.0159 -0.3417 -0.0158
  102GLOH   H05 9603   7.649   1.763   5.140  1.9612  2.1428  0.3686
  102GLOH    C3 9604   7.879   1.743   5.367  0.5840  0.6734 -0.2040
  102GLOH   H06 9605   7.923   1.820   5.431  1.3137 -0.5092  0.7294
  102GLOH   H07 9606   7.948   1.714   5.287  1.3062 -1.5745  1.1947
  102GLOH    O3 9607   7.844   1.628   5.451  0.5375 -0.4037  0.6287
  102GLOH   H01 9608   7.918   1.564   5.448 -0.0006 -1.0755  1.5189
  103GLOH   H03 9609   0.562   3.084   1.286  0.2307 -0.5750 -0.1615
  103GLOH    O1 9610   0.548   3.160   1.227  0.1297 -0.1934  0.3534
  103GLOH    C1 9611   0.492   3.271   1.293  1.1737  0.6333  0.5571
  103GLOH   H02 9612   0.558   3.358   1.293  2.5775 -0.4147 -0.2050
  103GLOH   H08 9613   0.466   3.256   1.398  0.9561 -0.3847  0.3589
  103GLOH    C2 9614   0.369   3.320   1.226 -0.3181  0.0404  0.5198
  103GLOH   H04 9615   0.287   3.250   1.247 -0.4828 -0.6460 -2.2842
  103GLOH    O2 9616   0.340   3.449   1.290  0.1588 -0.1171 -0.5474
  103GLOH   H05 9617   0.340   3.528   1.233 -2.7039 -0.7539 -1.5351
  103GLOH    C3 9618   0.400   3.337   1.073  0.2820 -0.2094  0.7152
  103GLOH   H06 9619   0.503   3.363   1.049 -0.3542  1.7937 -0.0078
  103GLOH   H07 9620   0.343   3.422   1.035  1.8601  0.1538 -0.8780
  103GLOH    O3 9621   0.357   3.216   1.009  0.1582  0.3340 -0.3841
  103GLOH   H01 9622   0.435   3.158   1.019 -0.0649 -0.0907 -1.1414
  104GLOH   H03 9623   5.020   7.478   4.674  0.9539  1.7739 -0.1098
  104GLOH    O1 9624   5.050   7.437   4.591 -0.2941  0.1646  0.2018
  104GLOH    C1 9625   4.958   7.477   4.486  0.2925  0.0272  0.2904
  104GLOH   H02 9626   4.951   7.585   4.480  1.9148  0.1418  0.1152
  104GLOH   H08 9627   4.861   7.432   4.506  0.3988  0.1854  1.1771
  104GLOH    C2 9628   5.006   7.419   4.350  0.2165  0.4705 -0.3514
  104GLOH   H04 9629   5.014   7.310   4.360 -1.2850  0.2379 -1.4038
  104GLOH    O2 9630   4.914   7.442   4.238  0.0188 -0.2760 -0.5549
  104GLOH   H05 9631   4.862   7.361   4.234 -1.2051  0.4612  0.1704
  104GLOH    C3 9632   5.135   7.494   4.311  0.5134 -0.4692 -0.1205
  104GLOH   H06 9633   5.117   7.601   4.319  1.0672 -0.4152  0.3873
  104GLOH   H07 9634   5.175   7.470   4.213 -0.2893  0.0656 -0.5866
  104GLOH    O3 9635   5.232   7.466   4.408  0.3486  0.1431  0.1928
  104GLOH   H01 9636   5.178   7.464   4.489 -2.8722  2.3969 -1.7623
  105GLOH   H03 9637   1.671   3.968   5.934  0.8714  0.9929  1.7290
  105GLOH    O1 9638   1.607   4.041   5.928  0.0867  0.1368 -0.5726
  105GLOH    C1 9639   1.680   4.155   5.979 -0.3442  0.4217 -0.5529
  105GLOH   H02 9640   1.778   4.167   5.934  0.2187  0.5208  0.6865
  105GLOH   H08 9641   1.699   4.147   6.086  0.4123 -0.7809 -0.7631
  105GLOH    C2 9642   1.606   4.280   5.940  0.3538  0.7924 -0.8878
  105GLOH   H04 9643   1.504   4.265   5.978  0.4008  1.7152 -0.3821
  105GLOH    O2 9644   1.654   4.407   5.991 -0.7977 -0.7448  0.2728
  105GLOH   H05 9645   1.737   4.430   5.947 -0.6690 -0.7605  0.5073
  105GLOH    C3 9646   1.608   4.295   5.786 -0.4680  0.1494 -0.6087
  105GLOH   H06 9647   1.710   4.300   5.749  0.0107  1.4175  0.8051
  105GLOH   H07 9648   1.551   4.384   5.761 -0.5212  0.3614  0.2381
  105GLOH    O3 9649   1.544   4.179   5.728  0.0521  0.0091 -0.7101
  105GLOH   H01 9650   1.563   4.106   5.790  1.2295  0.0454 -1.0235
  106GLOH   H03 9651   2.500   3.060   1.954  1.1228  2.7386  0.8832
  106GLOH    O1 9652   2.579   3.013   1.921 -0.7360 -0.0386  0.1687
  106GLOH    C1 9653   2.689   3.020   2.018 -0.4944  0.2733 -0.0433
  106GLOH   H02 9654   2.775   3.069   1.971 -1.9796  0.6497 -2.4642
  106GLOH   H08 9655   2.726   2.921   2.045 -2.3801 -0.1132  1.2175
  106GLOH    C2 9656   2.653   3.096   2.147 -0.7397  0.3997 -0.5869
  106GLOH   H04 9657   2.564   3.053   2.195  0.3718 -1.4496 -0.0978
  106GLOH    O2 9658   2.757   3.071   2.245 -0.1767 -0.1615 -0.2768
  106GLOH   H05 9659   2.709   3.029   2.319  3.4101 -3.9490  0.0915
  106GLOH    C3 9660   2.635   3.246   2.124  0.1147 -0.1639  0.6031
  106GLOH   H06 9661   2.737   3.285   2.122  0.5682 -1.4246 -2.6403
  106GLOH   H07 9662   2.577   3.291   2.204 -1.3727  0.0374 -0.5792
  106GLOH    O3 9663   2.567   3.279   2.005 -0.0943  0.0490 -0.1690
  106GLOH   H01 9664   2.472   3.262   2.016  0.1289  0.3307  2.8665
  107GLOH   H03 9665   8.056   2.307   3.319  1.3456  0.3443  1.0979
  107GLOH    O1 9666   8.058   2.396   3.279  0.1971 -0.2500 -0.3076
  107GLOH    C1 9667   8.194   2.426   3.239  0.7401 -0.3436  0.8119
  107GLOH   H02 9668   8.197   2.450   3.133  1.2677  0.3201  0.9715
  107GLOH   H08 9669   8.265   2.346   3.263  1.1253 -0.0242  0.7384
  107GLOH    C2 9670   8.239   2.553   3.313  0.1822 -0.2849 -0.2246
  107GLOH   H04 9671   8.247   2.528   3.419  0.9023 -0.0302 -0.2163
  107GLOH    O2 9672   8.374   2.580   3.272  0.7239  0.0064  0.1800
  107GLOH   H05 9673   8.373   2.639   3.195  0.6825 -0.0009  0.1748
  107GLOH    C3 9674   8.154   2.673   3.277  0.3182  1.0342 -0.6202
  107GLOH   H06 9675   8.160   2.677   3.168 -0.5527 -1.0120 -0.7736
  107GLOH   H07 9676   8.184   2.767   3.323  0.1376  0.7356  0.1002
  107GLOH    O3 9677   8.011   2.652   3.309  0.4156 -0.7231  0.2485
  107GLOH   H01 9678   7.983   2.561   3.290  0.3342 -0.5372 -0.5399
  108GLOH   H03 9679   5.005   3.909   3.913 -3.1175  0.8589 -0.2060
  108GLOH    O1 9680   5.025   3.987   3.970 -0.3332 -0.1412  0.2644
  108GLOH    C1 9681   5.168   3.969   4.002  0.8146 -0.0258 -0.3796
  108GLOH   H02 9682   5.217   4.062   4.030  0.7145 -0.2986  0.7052
  108GLOH   H08 9683   5.224   3.937   3.914  1.3488  0.8068 -0.3458
  108GLOH    C2 9684   5.196   3.877   4.125  0.2056  0.0136  0.0718
  108GLOH   H04 9685   5.189   3.774   4.087 -0.3297  0.5177 -1.2429
  108GLOH    O2 9686   5.334   3.898   4.167  0.1465  0.4079  0.4765
  108GLOH   H05 9687   5.353   3.985   4.204 -1.2780 -0.0355  2.2728
  108GLOH    C3 9688   5.101   3.905   4.234  0.5083  0.1739  0.0313
  108GLOH   H06 9689   5.107   4.013   4.243 -0.0124  0.0268  2.3679
  108GLOH   H07 9690   5.128   3.865   4.332 -0.7284  0.2999  0.4377
  108GLOH    O3 9691   4.967   3.874   4.198 -0.0645 -0.3220 -0.0492
  108GLOH   H01 9692   4.947   3.901   4.107 -0.4427  0.0743  0.1520
  109GLOH   H03 9693   5.127   3.318   0.554 -1.6976 -1.1967 -0.1838
  109GLOH    O1 9694   5.088   3.377   0.486  0.0248 -0.0150 -0.1846
  109GLOH    C1 9695   5.184   3.455   0.406 -0.9286  0.1987  0.2791
  109GLOH   H02 9696   5.260   3.512   0.460  1.2746 -1.0443 -1.3985
  109GLOH   H08 9697   5.126   3.523   0.344  1.0337  1.8671  0.2320
  109GLOH    C2 9698   5.267   3.363   0.306 -0.5156  0.2318  0.2015
  109GLOH   H04 9699   5.309   3.287   0.375 -1.2330  1.2731  1.8157
  109GLOH    O2 9700   5.192   3.300   0.199 -0.6745 -0.6202 -0.2564
  109GLOH   H05 9701   5.135   3.367   0.157 -1.7613 -0.9960  0.6095
  109GLOH    C3 9702   5.381   3.444   0.246 -0.0338 -0.0866 -0.2982
  109GLOH   H06 9703   5.332   3.521   0.186  1.0418 -0.5923 -1.8597
  109GLOH   H07 9704   5.443   3.387   0.176  2.5038 -0.9793  2.5821
  109GLOH    O3 9705   5.469   3.507   0.343  0.2483 -0.8993  0.0272
  109GLOH   H01 9706   5.439   3.600   0.338 -0.0055 -0.8907  1.5298
  110GLOH   H03 9707   7.459   0.177   6.507  0.8539  0.6348 -0.8052
  110GLOH    O1 9708   7.518   0.184   6.585 -0.1601 -0.1366  0.0403
  110GLOH    C1 9709   7.435   0.226   6.696  0.0337  0.1344  0.2211
  110GLOH   H02 9710   7.501   0.243   6.781 -0.1192  0.8186  0.2059
  110GLOH   H08 9711   7.369   0.140   6.710 -0.3426  0.6160  1.4329
  110GLOH    C2 9712   7.351   0.349   6.654  0.8217  0.0932 -0.1053
  110GLOH   H04 9713   7.266   0.320   6.589  0.7121  1.5388 -0.6386
  110GLOH    O2 9714   7.289   0.398   6.771  0.0406 -0.2007  0.3879
  110GLOH   H05 9715   7.353   0.410   6.843  0.9123 -0.4409 -0.3289
  110GLOH    C3 9716   7.435   0.457   6.580  0.2589  0.3980 -0.0393
  110GLOH   H06 9717   7.534   0.422   6.609  0.4711 -0.4470 -1.6837
  110GLOH   H07 9718   7.419   0.556   6.622  1.7528  0.6386 -0.0135
  110GLOH    O3 9719   7.423   0.459   6.436  0.5917  0.0948  1.0091
  110GLOH   H01 9720   7.468   0.540   6.406  0.2425 -0.4392 -1.0284
  111GLOH   H03 9721   5.774   5.209   0.650  0.9047 -0.6805  2.3135
  111GLOH    O1 9722   5.821   5.294   0.662 -0.2412  0.3101  0.1572
  111GLOH    C1 9723   5.961   5.270   0.652  0.3687 -0.3923  0.2350
  111GLOH   H02 9724   6.004   5.175   0.682 -0.4872 -1.1380 -0.8748
  111GLOH   H08 9725   6.009   5.344   0.717 -0.7833 -0.7803  1.5403
  111GLOH    C2 9726   6.016   5.288   0.509 -0.1884 -0.4011 -0.3591
  111GLOH   H04 9727   5.992   5.391   0.479  0.2005 -0.1908  0.0322
  111GLOH    O2 9728   6.159   5.270   0.504  0.3182  0.3988  0.2943
  111GLOH   H05 9729   6.176   5.175   0.516  0.2657  0.5113  1.2452
  111GLOH    C3 9730   5.936   5.202   0.406 -0.2826  0.1510  0.5308
  111GLOH   H06 9731   5.984   5.211   0.308  0.1367 -0.7591  0.6442
  111GLOH   H07 9732   5.836   5.243   0.394 -0.6669 -1.1999 -1.2276
  111GLOH    O3 9733   5.932   5.063   0.448 -0.1097  0.1656 -0.4864
  111GLOH   H01 9734   6.023   5.041   0.475 -0.0552 -0.1722 -0.9229
  112GLOH   H03 9735   9.651   0.655   4.500  0.0805 -0.8902  3.1871
  112GLOH    O1 9736   9.602   0.572   4.487 -0.2392 -0.2181 -0.2566
  112GLOH    C1 9737   9.473   0.578   4.538  0.4716 -0.3363 -0.1938
  112GLOH   H02 9738   9.486   0.607   4.643  2.7107  0.2921 -0.6090
  112GLOH   H08 9739   9.425   0.481   4.541 -2.7649  1.2513  2.8192
  112GLOH    C2 9740   9.386   0.682   4.466  0.3546 -0.3536  0.3727
  112GLOH   H04 9741   9.400   0.662   4.359 -1.2365  0.5850 -0.0313
  112GLOH    O2 9742   9.244   0.667   4.498  0.0592 -0.4794  0.0485
  112GLOH   H05 9743   9.195   0.748   4.473 -0.1068 -0.3846  0.6558
  112GLOH    C3 9744   9.429   0.826   4.508 -0.1891 -1.0827 -0.0264
  112GLOH   H06 9745   9.408   0.834   4.615 -1.8135  1.0000 -0.4598
  112GLOH   H07 9746   9.367   0.899   4.455  0.6429 -1.8353 -2.0601
  112GLOH    O3 9747   9.568   0.853   4.473  0.3228 -0.0263  0.1379
  112GLOH   H01 9748   9.584   0.879   4.381 -0.1962 -1.4203 -0.3543
  113GLOH   H03 9749   8.275   1.722   3.436  4.9974 -2.2296 -1.5240
  113GLOH    O1 9750   8.256   1.753   3.345 -0.5675 -0.5099  0.0472
  113GLOH    C1 9751   8.124   1.732   3.296 -0.5725 -0.1455  0.9622
  113GLOH   H02 9752   8.077   1.812   3.239  0.9706 -0.3428 -0.6272
  113GLOH   H08 9753   8.054   1.715   3.377 -4.4267  0.1891 -2.1438
  113GLOH    C2 9754   8.105   1.620   3.185 -0.2757  0.2264 -0.3655
  113GLOH   H04 9755   7.997   1.605   3.180 -0.3129  0.6298 -0.7845
  113GLOH    O2 9756   8.139   1.665   3.053 -0.4524 -0.3826 -0.4764
  113GLOH   H05 9757   8.231   1.697   3.058 -0.3704 -0.3553 -2.0591
  113GLOH    C3 9758   8.165   1.482   3.211  0.4400  0.1175 -0.0804
  113GLOH   H06 9759   8.270   1.493   3.238  1.3900  1.0265 -3.8630
  113GLOH   H07 9760   8.160   1.411   3.128  1.5877  1.4107 -1.2849
  113GLOH    O3 9761   8.104   1.416   3.323  0.2205 -0.1229  0.1813
  113GLOH   H01 9762   8.012   1.397   3.297  0.6426 -0.4986 -1.0821
  114GLOH   H03 9763   5.021   8.319   1.587  0.3386  0.4904  0.5905
  114GLOH    O1 9764   5.065   8.232   1.596 -0.4729  0.0546  0.4344
  114GLOH    C1 9765   5.013   8.149   1.493  0.2834 -0.5041  0.4652
  114GLOH   H02 9766   5.052   8.048   1.494  1.2293 -0.1640 -0.5813
  114GLOH   H08 9767   5.030   8.188   1.393 -2.2508  1.1400  0.6264
  114GLOH    C2 9768   4.856   8.138   1.501 -0.1660 -0.4272  0.4770
  114GLOH   H04 9769   4.816   8.238   1.477  0.5832 -0.0794  0.6596
  114GLOH    O2 9770   4.811   8.061   1.390 -0.2682  0.2705 -0.2145
  114GLOH   H05 9771   4.888   8.035   1.336 -0.5181  1.3317 -1.1092
  114GLOH    C3 9772   4.807   8.098   1.646 -0.3160 -0.7761 -0.2117
  114GLOH   H06 9773   4.847   8.169   1.719 -1.9804  0.4000 -0.4060
  114GLOH   H07 9774   4.867   8.010   1.667  0.7189 -0.1769 -0.5850
  114GLOH    O3 9775   4.670   8.066   1.665 -0.6487  0.4251 -0.8354
  114GLOH   H01 9776   4.640   8.004   1.596 -0.0097  0.0910 -0.8206
  115GLOH   H03 9777   6.437   8.802   1.859  1.8909 -0.1610 -0.5075
  115GLOH    O1 9778   6.432   8.707   1.879  0.1521  0.0979  0.3653
  115GLOH    C1 9779   6.303   8.650   1.820  0.0991  0.1778  0.0162
  115GLOH   H02 9780   6.276   8.681   1.719 -0.3223 -1.3937 -0.3693
  115GLOH   H08 9781   6.219   8.683   1.880 -0.1890 -1.1372  0.3587
  115GLOH    C2 9782   6.308   8.500   1.815  0.5344 -0.0978  0.0115
  115GLOH   H04 9783   6.317   8.460   1.917 -1.5559  0.3331  0.3879
  115GLOH    O2 9784   6.189   8.443   1.753  0.2744  0.0917  0.8453
  115GLOH   H05 9785   6.126   8.423   1.824 -0.1958 -1.1042  0.1090
  115GLOH    C3 9786   6.436   8.463   1.742  0.0578  0.5314  0.7865
  115GLOH   H06 9787   6.410   8.494   1.641 -1.7532 -1.7141  0.5035
  115GLOH   H07 9788   6.437   8.354   1.732  0.5262  0.2453  3.5118
  115GLOH    O3 9789   6.556   8.520   1.791 -0.1279 -0.3059 -0.1075
  115GLOH   H01 9790   6.526   8.605   1.829 -3.9219 -0.9124 -1.4564
  116GLOH   H03 9791   1.151   6.396   6.349 -1.2535 -0.5131 -2.0434
  116GLOH    O1 9792   1.118   6.486   6.363  0.4529 -0.1616  0.0191
  116GLOH    C1 9793   1.068   6.494   6.500  0.2834 -0.1603 -0.4377
  116GLOH   H02 9794   0.994   6.414   6.509 -0.2944  0.5141  0.9055
  116GLOH   H08 9795   1.010   6.583   6.522  1.6448 -0.0793  3.2284
  116GLOH    C2 9796   1.176   6.478   6.611 -0.0158 -0.3309 -0.0537
  116GLOH   H04 9797   1.123   6.471   6.707  0.6592  0.4202  0.3768
  116GLOH    O2 9798   1.243   6.348   6.604 -0.6098  0.4820  0.3023
  116GLOH   H05 9799   1.188   6.281   6.649 -2.9667  0.3954 -2.5605
  116GLOH    C3 9800   1.279   6.596   6.606 -0.5924 -0.0140 -0.1001
  116GLOH   H06 9801   1.310   6.625   6.506  0.7316  0.9067  0.5679
  116GLOH   H07 9802   1.375   6.572   6.652  1.1681 -2.5017 -4.7108
  116GLOH    O3 9803   1.232   6.718   6.679  0.9143  0.3752  0.5524
  116GLOH   H01 9804   1.261   6.696   6.770  2.0291 -3.8052 -0.7064
  117GLOH   H03 9805   0.049   9.385   4.624  1.4322  0.3061  0.2288
  117GLOH    O1 9806   0.051   9.401   4.528  0.3781  0.1609  0.1760
  117GLOH    C1 9807  -0.085   9.428   4.485  0.1304 -0.4755 -0.4347
  117GLOH   H02 9808  -0.148   9.385   4.563 -0.2988 -0.7611 -0.9311
  117GLOH   H08 9809  -0.122   9.372   4.399 -2.2652 -0.9478  0.8568
  117GLOH    C2 9810  -0.119   9.574   4.471 -0.0116  0.1385 -0.2552
  117GLOH   H04 9811  -0.224   9.583   4.441  0.0144 -0.7554 -0.6244
  117GLOH    O2 9812  -0.102   9.635   4.595  0.4014 -0.2798 -0.2801
  117GLOH   H05 9813  -0.112   9.732   4.588 -0.1362 -0.2958  0.1646
  117GLOH    C3 9814  -0.024   9.632   4.361 -0.7499  0.2265 -0.2376
  117GLOH   H06 9815   0.068   9.574   4.369  0.6386  2.2455 -1.0960
  117GLOH   H07 9816  -0.001   9.738   4.373 -3.0532  0.5431  1.7697
  117GLOH    O3 9817  -0.080   9.599   4.231 -0.1353  0.9475  0.0590
  117GLOH   H01 9818  -0.033   9.650   4.162  0.6269 -1.1491 -1.0188
  118GLOH   H03 9819   5.063   4.700   0.438 -1.7702 -0.2750 -0.9973
  118GLOH    O1 9820   5.022   4.771   0.491  0.1188 -0.1178  0.3062
  118GLOH    C1 9821   5.049   4.893   0.421  0.1828  0.0202  0.2835
  118GLOH   H02 9822   5.156   4.911   0.424  0.4780 -1.8846  2.2443
  118GLOH   H08 9823   4.994   4.972   0.472 -0.5640  0.0721 -0.5968
  118GLOH    C2 9824   5.005   4.892   0.274  0.3038 -0.0744 -0.3116
  118GLOH   H04 9825   5.062   4.809   0.228  1.7676  1.5468 -1.5166
  118GLOH    O2 9826   4.858   4.887   0.258 -0.4155  0.1133  0.3363
  118GLOH   H05 9827   4.825   4.802   0.292  1.2579 -0.5807  0.2463
  118GLOH    C3 9828   5.054   5.020   0.198 -0.0248 -0.1166 -0.0838
  118GLOH   H06 9829   5.001   5.105   0.240 -0.8643 -0.5848 -0.1867
  118GLOH   H07 9830   5.018   5.022   0.095  3.4818  2.1664 -1.3437
  118GLOH    O3 9831   5.197   5.032   0.201 -0.6646 -0.6681 -0.0789
  118GLOH   H01 9832   5.240   4.982   0.129 -0.9686 -2.4711  0.9645
  119GLOH   H03 9833   5.537   8.686   3.859  1.4619 -3.8444  0.5165
  119GLOH    O1 9834   5.570   8.697   3.950  1.0624 -0.6530  0.3510
  119GLOH    C1 9835   5.685   8.617   3.970  0.1754 -0.0481  0.6467
  119GLOH   H02 9836   5.762   8.651   3.902 -0.2786 -0.7991 -0.2619
  119GLOH   H08 9837   5.665   8.515   3.935 -0.6012  0.1009  0.6402
  119GLOH    C2 9838   5.715   8.604   4.118 -0.4918  0.5387  0.2900
  119GLOH   H04 9839   5.773   8.510   4.114 -1.8100 -0.2987  0.6211
  119GLOH    O2 9840   5.807   8.708   4.156  0.2235 -0.4011 -0.1318
  119GLOH   H05 9841   5.833   8.685   4.247 -0.9510  0.5476  0.4620
  119GLOH    C3 9842   5.591   8.598   4.203 -0.0554  0.4055 -0.5107
  119GLOH   H06 9843   5.529   8.519   4.160 -1.2974  1.6571 -1.0585
  119GLOH   H07 9844   5.543   8.696   4.201 -1.8468 -0.4756 -2.8773
  119GLOH    O3 9845   5.609   8.566   4.344  0.1318 -0.4855 -0.0912
  119GLOH   H01 9846   5.599   8.471   4.363  1.8256 -0.7796 -0.5567
  120GLOH   H03 9847   2.003   4.100   0.478  0.1412 -0.6894 -0.5992
  120GLOH    O1 9848   2.040   4.133   0.393  0.3966 -0.0646 -0.2519
  120GLOH    C1 9849   2.124   4.021   0.347  0.6480 -0.1821 -0.1700
  120GLOH   H02 9850   2.124   4.018   0.238 -2.6955  1.0717 -0.2643
  120GLOH   H08 9851   2.079   3.928   0.382 -0.1661  0.6558  1.0360
  120GLOH    C2 9852   2.271   4.030   0.401  0.4130  0.0776 -0.4253
  120GLOH   H04 9853   2.317   3.936   0.365 -1.1323 -0.2987 -1.4439
  120GLOH    O2 9854   2.350   4.132   0.342  0.5611  0.5390 -0.0046
  120GLOH   H05 9855   2.293   4.160   0.268  0.5702  1.1403  0.2135
  120GLOH    C3 9856   2.272   4.027   0.557 -0.3205 -0.0429 -0.3839
  120GLOH   H06 9857   2.224   4.119   0.592 -0.8732 -0.7485  0.7621
  120GLOH   H07 9858   2.377   4.036   0.586 -0.8798 -0.5177  1.9105
  120GLOH    O3 9859   2.194   3.915   0.604 -0.1774 -0.8476 -0.0735
  120GLOH   H01 9860   2.244   3.881   0.680  0.0587  0.3150  0.3071
  121ACOH    H4 9861   5.575   1.107   2.938 -2.2011  0.5117 -1.4134
  121ACOH    O2 9862   5.589   1.037   2.873 -0.3882 -0.0372 -0.4840
  121ACOH    C2 9863   5.497   1.070   2.781 -0.1776  0.3808  0.7190
  121ACOH    O1 9864   5.438   1.179   2.776 -0.5415 -0.1073 -0.5563
  121ACOH    C1 9865   5.481   0.967   2.685 -0.1386  0.1606  0.0230
  121ACOH    H1 9866   5.579   0.938   2.648 -0.0482  0.5629 -0.0501
  121ACOH    H2 9867   5.423   0.994   2.597  0.9755  0.3972 -0.6571
  121ACOH    H3 9868   5.440   0.882   2.739  0.4076  0.7948  1.4612
  122ACOH    H4 9869   3.772   6.376   5.129  1.3362 -0.8866  0.1681
  122ACOH    O2 9870   3.814   6.463   5.138 -0.4488  0.0471 -0.5029
  122ACOH    C2 9871   3.842   6.494   5.009 -0.4216 -0.5194 -0.1820
  122ACOH    O1 9872   3.838   6.415   4.919  0.0670  0.3300  0.4827
  122ACOH    C1 9873   3.883   6.633   4.996  0.1293 -0.5565  0.0937
  122ACOH    H1 9874   3.983   6.650   5.036 -0.2324  0.3907  0.6097
  122ACOH    H2 9875   3.811   6.695   5.049 -0.7656 -1.1327 -0.4540
  122ACOH    H3 9876   3.887   6.665   4.892 -0.0760 -1.8721 -0.3242
  123ACOH    H4 9877   5.805   7.033   4.781  0.5993  1.6764 -1.0763
  123ACOH    O2 9878   5.810   6.957   4.721 -0.0462  0.1388  0.7738
  123ACOH    C2 9879   5.941   6.961   4.686 -1.0752 -0.1092  0.4405
  123ACOH    O1 9880   6.025   7.042   4.704 -0.1514 -0.2916  0.0291
  123ACOH    C1 9881   5.965   6.846   4.598  0.2572  0.2606 -0.4442
  123ACOH    H1 9882   5.892   6.842   4.518 -2.2189  0.4829  1.7388
  123ACOH    H2 9883   5.934   6.772   4.672 -0.4228 -0.7400 -1.7202
  123ACOH    H3 9884   6.065   6.837   4.556  0.9899  3.5515  0.4392
  124ACOH    H4 9885   5.584   5.897   2.037 -1.6197 -1.1217  0.8782
  124ACOH    O2 9886   5.657   5.836   2.059  0.0258  0.3273 -0.4350
  124ACOH    C2 9887   5.761   5.866   1.985 -0.0069 -0.9526  0.8906
  124ACOH    O1 9888   5.781   5.975   1.928  0.1713 -0.6294  0.1355
  124ACOH    C1 9889   5.872   5.776   2.002 -0.3502  0.3279  0.2608
  124ACOH    H1 9890   5.824   5.680   2.025  0.8457 -0.0843  1.0466
  124ACOH    H2 9891   5.936   5.798   2.087  0.0057 -0.8510  0.3010
  124ACOH    H3 9892   5.915   5.760   1.903 -2.1766 -1.7055 -0.2398
  125ACOH    H4 9893   0.127   9.022   4.940 -0.7442  0.2982 -0.2932
  125ACOH    O2 9894   0.082   9.002   5.024 -0.5195  0.0332 -0.2397
  125ACOH    C2 9895  -0.031   9.069   5.037 -0.3575  0.4015 -0.2880
  125ACOH    O1 9896  -0.084   9.135   4.948 -0.2160  0.2102 -0.0576
  125ACOH    C1 9897  -0.081   9.051   5.175 -0.8129  0.3566 -0.2374
  125ACOH    H1 9898  -0.167   9.116   5.190 -1.8396 -1.2425  0.9115
  125ACOH    H2 9899  -0.003   9.085   5.244 -0.8479 -0.7887  0.3723
  125ACOH    H3 9900  -0.103   8.949   5.206 -1.0153  0.3267 -0.4897
  126ACOH    H4 9901   5.137   5.752   0.480  0.2721  0.2093 -0.0035
  126ACOH    O2 9902   5.063   5.803   0.442  0.0544 -0.1171 -0.0194
  126ACOH    C2 9903   4.983   5.735   0.360  0.2281  1.0996  0.4545
  126ACOH    O1 9904   4.967   5.613   0.358  0.1832  0.2564  0.1377
  126ACOH    C1 9905   4.913   5.820   0.257  0.6797 -0.1418 -0.0643
  126ACOH    H1 9906   4.970   5.905   0.221  2.2251 -0.4956  1.4526
  126ACOH    H2 9907   4.829   5.866   0.310 -1.0154 -1.3580 -1.6411
  126ACOH    H3 9908   4.877   5.754   0.178  0.3361 -2.1750  1.7217
  127ACOH    H4 9909   8.718   3.196   1.168  0.2128  0.2920 -1.3892
  127ACOH    O2 9910   8.701   3.291   1.176 -0.3165  0.1275 -0.3333
  127ACOH    C2 9911   8.569   3.310   1.169  1.5699  0.3100  0.3398
  127ACOH    O1 9912   8.484   3.224   1.143 -0.2761  0.1419 -0.0859
  127ACOH    C1 9913   8.544   3.456   1.145 -0.1407  0.0980  0.2640
  127ACOH    H1 9914   8.624   3.502   1.087  0.4141  0.5933  1.3893
  127ACOH    H2 9915   8.545   3.509   1.241  0.1020 -0.5203  0.6073
  127ACOH    H3 9916   8.447   3.478   1.101 -0.6676  0.0368  1.3919
  128ACOH    H4 9917   0.442   8.052   0.303 -0.7746 -0.5358 -0.1430
  128ACOH    O2 9918   0.361   8.053   0.249 -0.8352  0.2456 -0.0372
  128ACOH    C2 9919   0.392   8.105   0.131  0.9180 -0.6114 -0.2233
  128ACOH    O1 9920   0.498   8.153   0.108 -0.0631  0.3792 -1.0393
  128ACOH    C1 9921   0.283   8.094   0.029 -0.0699  0.4638  0.2135
  128ACOH    H1 9922   0.193   8.153   0.046  1.3499  2.5764  0.4437
  128ACOH    H2 9923   0.247   7.991   0.024  2.7837 -0.7065  2.1976
  128ACOH    H3 9924   0.327   8.112  -0.069 -2.3013 -0.2837 -0.9777
  129ACOH    H4 9925   6.629   4.979   0.137 -0.5989 -0.8060 -0.7763
  129ACOH    O2 9926   6.649   4.933   0.054  0.2232 -0.5818 -0.7077
  129ACOH    C2 9927   6.676   5.032  -0.034 -1.0015  0.3795 -0.5295
  129ACOH    O1 9928   6.670   5.155  -0.018  0.0035  0.6691 -0.0281
  129ACOH    C1 9929   6.737   4.964  -0.151 -0.8675 -0.2888 -0.1081
  129ACOH    H1 9930   6.844   4.973  -0.135 -1.0237  0.4044  0.6147
  129ACOH    H2 9931   6.707   5.015  -0.243 -0.8101 -1.2565 -0.6678
  129ACOH    H3 9932   6.709   4.860  -0.166  0.6669 -0.3563 -2.6312
  130ACOH    H4 9933   1.051   2.605   1.548  0.1162 -0.4321 -0.2734
  130ACOH    O2 9934   1.042   2.654   1.632  0.9777 -0.3033 -0.2481
  130ACOH    C2 9935   1.160   2.699   1.680  0.4664 -0.3106 -0.5784
  130ACOH    O1 9936   1.269   2.656   1.649  0.2027 -0.4605 -0.0133
  130ACOH    C1 9937   1.142   2.771   1.804 -1.2379  0.3394 -0.7498
  130ACOH    H1 9938   1.058   2.726   1.856 -0.9384 -0.8840 -1.3064
  130ACOH    H2 9939   1.117   2.875   1.780  2.8430  1.8888  1.2512
  130ACOH    H3 9940   1.231   2.769   1.867  0.1523 -1.1904 -2.7075
  131ACOH    H4 9941   5.339   8.019   1.576 -0.9994 -0.2988 -1.0621
  131ACOH    O2 9942   5.404   7.979   1.515  0.1646  0.3746 -0.2821
  131ACOH    C2 9943   5.529   8.036   1.535  0.6168 -0.2412  0.5514
  131ACOH    O1 9944   5.554   8.111   1.624 -0.0078 -0.5360 -0.1141
  131ACOH    C1 9945   5.641   7.963   1.461  0.4069 -0.1564  0.2560
  131ACOH    H1 9946   5.632   7.857   1.480 -0.6616  0.0607  1.0323
  131ACOH    H2 9947   5.740   8.005   1.476  1.3282 -1.6585 -1.4999
  131ACOH    H3 9948   5.614   7.973   1.356  1.4099 -1.3314 -0.1174
  132ACOH    H4 9949   3.397   6.694   6.663  0.7287  0.9996  0.3622
  132ACOH    O2 9950   3.369   6.747   6.587 -0.1445 -0.2491 -0.2199
  132ACOH    C2 9951   3.349   6.866   6.645  0.0928  0.1600 -0.2655
  132ACOH    O1 9952   3.330   6.883   6.763 -0.3497 -0.3052 -0.4870
  132ACOH    C1 9953   3.316   6.968   6.543 -0.1601 -0.2171 -0.0081
  132ACOH    H1 9954   3.405   6.970   6.481 -0.9333 -1.8684 -1.2120
  132ACOH    H2 9955   3.292   7.066   6.585  1.4803 -0.0652  0.6071
  132ACOH    H3 9956   3.232   6.929   6.485 -0.8673 -1.1430  1.5964
  133ACOH    H4 9957   4.421   6.328   3.795 -1.1356 -0.5265  0.9549
  133ACOH    O2 9958   4.419   6.402   3.857  0.4838  0.2166  0.1498
  133ACOH    C2 9959   4.413   6.520   3.785 -0.1402 -0.0541  0.1312
  133ACOH    O1 9960   4.352   6.518   3.679 -0.0062 -0.5649 -0.2903
  133ACOH    C1 9961   4.448   6.634   3.870  0.1274  0.0854 -0.0091
  133ACOH    H1 9962   4.440   6.720   3.804  1.5646 -1.2418 -1.9497
  133ACOH    H2 9963   4.545   6.628   3.919 -0.0793  0.4413  0.4483
  133ACOH    H3 9964   4.362   6.640   3.936  0.8258  1.0227  0.8179
  134ACOH    H4 9965   8.363   5.566   4.354  1.4937 -1.7605  0.1225
  134ACOH    O2 9966   8.335   5.518   4.275 -0.0790 -0.5544 -0.0737
  134ACOH    C2 9967   8.210   5.477   4.287  0.1076  0.0333 -0.4117
  134ACOH    O1 9968   8.144   5.478   4.392 -0.0898 -0.0041 -0.0247
  134ACOH    C1 9969   8.170   5.416   4.161 -0.0862  0.3011  0.3895
  134ACOH    H1 9970   8.076   5.363   4.176 -0.6269  0.3147 -2.7381
  134ACOH    H2 9971   8.250   5.347   4.131 -0.2697  0.8494 -1.3589
  134ACOH    H3 9972   8.159   5.492   4.084 -0.1319  1.1329  1.2143
  135ACOH    H4 9973   6.490   5.296   0.296  0.5656 -3.8102 -1.0292
  135ACOH    O2 9974   6.582   5.321   0.316 -0.3430 -1.0823 -0.1082
  135ACOH    C2 9975   6.650   5.207   0.313 -0.3875 -0.5068 -0.0763
  135ACOH    O1 9976   6.608   5.093   0.309  0.0733  0.4935 -0.5768
  135ACOH    C1 9977   6.796   5.227   0.346 -0.8336  0.3327 -0.0640
  135ACOH    H1 9978   6.841   5.298   0.276  2.4539  0.8997  2.4808
  135ACOH    H2 9979   6.848   5.131   0.352  0.8130  1.2724  0.8358
  135ACOH    H3 9980   6.806   5.273   0.444 -1.6208 -0.8207  0.5765
  136ACOH    H4 9981   6.477   1.560   3.256  0.0453 -1.1414 -1.3152
  136ACOH    O2 9982   6.452   1.642   3.211  0.0364 -0.0510  0.6019
  136ACOH    C2 9983   6.553   1.659   3.126  0.2063  0.5626  0.1017
  136ACOH    O1 9984   6.648   1.586   3.099 -0.3763 -0.1007  0.2795
  136ACOH    C1 9985   6.524   1.779   3.042 -0.5977 -0.3467  0.1641
  136ACOH    H1 9986   6.615   1.838   3.050 -0.2911 -1.1732  3.4382
  136ACOH    H2 9987   6.428   1.823   3.067 -0.7298  0.9416 -2.3643
  136ACOH    H3 9988   6.517   1.746   2.938  0.4866  0.3122 -0.1311
  137ACOH    H4 9989   7.531   9.862   0.126 -0.4337 -1.3163  1.3970
  137ACOH    O2 9990   7.535   9.802   0.050 -0.1275  0.5682 -0.1211
  137ACOH    C2 9991   7.549   9.684   0.111 -0.2246  0.3317  0.5128
  137ACOH    O1 9992   7.530   9.652   0.225 -0.0915 -0.3172  0.3828
  137ACOH    C1 9993   7.566   9.584   0.000  0.1451 -0.1866 -0.3430
  137ACOH    H1 9994   7.656   9.608  -0.056  0.6964  0.8744  0.9746
  137ACOH    H2 9995   7.479   9.591  -0.066 -0.9947  1.0015  1.2303
  137ACOH    H3 9996   7.583   9.482   0.037  1.3602 -0.0647 -0.5562
  138ACOH    H4 9997   5.235   6.073   1.166  2.4709  2.6818  2.7539
  138ACOH    O2 9998   5.282   6.117   1.093  0.1596  0.3509 -0.2926
  138ACOH    C2 9999   5.288   6.022   1.004 -0.6608 -0.3539 -0.2628
  138ACOH    O110000   5.211   5.930   0.985 -0.8798 -0.2412 -0.2853
  138ACOH    C110001   5.378   6.072   0.896 -0.1027 -0.0378  0.3262
  138ACOH    H110002   5.360   6.176   0.869  0.4213  0.2149  0.9295
  138ACOH    H210003   5.380   6.013   0.805 -1.0345  1.1577 -0.4824
  138ACOH    H310004   5.482   6.064   0.927 -0.0967  4.1613  1.7208
  139ACOH    H410005   7.860   6.820   1.055 -0.8947  0.2973  0.4835
  139ACOH    O210006   7.816   6.794   0.972  0.0523 -0.3598  0.1686
  139ACOH    C210007   7.895   6.729   0.883 -0.1613 -0.8802 -0.3910
  139ACOH    O110008   8.015   6.729   0.889 -0.2518  0.1498 -0.7504
  139ACOH    C110009   7.822   6.680   0.765 -0.2664  0.0460  0.0259
  139ACOH    H110010   7.887   6.621   0.701 -0.0610  1.0194 -0.6862
  139ACOH    H210011   7.766   6.758   0.713 -0.1848 -0.6399 -1.1028
  139ACOH    H310012   7.746   6.612   0.803  0.2318 -0.3530  0.3098
  140ACOH    H410013   8.516   2.148   6.305 -1.2927 -0.8414  0.0187
  140ACOH    O210014   8.491   2.192   6.387 -0.6228  0.1270 -0.2857
  140ACOH    C210015   8.360   2.226   6.372  0.0196  0.0675  1.2484
  140ACOH    O110016   8.276   2.171   6.301  0.0150  0.3339 -0.1224
  140ACOH    C110017   8.315   2.302   6.490  0.9638 -0.9622 -0.6838
  140ACOH    H110018   8.208   2.294   6.510  1.1797 -1.2102  0.4377
  140ACOH    H210019   8.325   2.410   6.477  0.2963 -0.7994  0.1309
  140ACOH    H310020   8.366   2.273   6.582  1.0411 -0.7060 -0.6448
  141ACOH    H410021   4.672   6.160   0.385  0.5207  0.2881 -0.1089
  141ACOH    O210022   4.718   6.232   0.431  0.2439  0.4449 -0.0788
  141ACOH    C210023   4.662   6.253   0.553  0.1519  0.0687  0.5507
  141ACOH    O110024   4.563   6.194   0.605 -0.3158  0.1458 -0.2299
  141ACOH    C110025   4.746   6.359   0.614  0.1618  0.4223  0.0992
  141ACOH    H110026   4.843   6.361   0.563  0.8788 -1.9819  1.2655
  141ACOH    H210027   4.772   6.335   0.717  0.4226 -0.8061 -0.2426
  141ACOH    H310028   4.692   6.453   0.615 -1.2844 -0.3837 -0.7012
  142ACOH    H410029   9.211   7.549   6.069 -0.4761  2.7861  1.3174
  142ACOH    O210030   9.162   7.508   6.143  0.0331 -0.0467  0.1639
  142ACOH    C210031   9.132   7.381   6.119  0.3531 -0.5390  0.9115
  142ACOH    O110032   9.143   7.322   6.009 -0.1974 -0.2759 -0.4069
  142ACOH    C110033   9.059   7.329   6.228 -0.2756  0.3442 -0.6742
  142ACOH    H110034   8.972   7.388   6.257 -0.2508 -0.2969  0.7756
  142ACOH    H210035   9.120   7.326   6.318 -0.5053 -1.4911 -0.5620
  142ACOH    H310036   9.023   7.227   6.213 -0.6866  0.6110 -1.4909
  143ACOH    H410037   5.250   3.016   3.908 -1.0740  1.4594  2.4996
  143ACOH    O210038   5.325   3.076   3.895 -0.2953  0.0443 -0.0046
  143ACOH    C210039   5.371   3.086   4.019 -0.0498  0.2226 -0.0509
  143ACOH    O110040   5.368   3.003   4.112 -0.5898  0.1310 -0.0776
  143ACOH    C110041   5.431   3.220   4.041  0.0134 -0.2400 -0.3173
  143ACOH    H110042   5.380   3.263   4.128  0.7594 -0.3613  0.1835
  143ACOH    H210043   5.421   3.283   3.953 -3.5120  1.0274  0.8954
  143ACOH    H310044   5.538   3.218   4.063 -0.3746  1.1824  1.8896
  144ACOH    H410045   0.207   6.500   0.181 -1.6626 -2.5405  0.0577
  144ACOH    O210046   0.138   6.569   0.186  0.6829 -0.1466  0.3673
  144ACOH    C210047   0.045   6.535   0.090  0.7254 -0.2890 -1.0179
  144ACOH    O110048   0.032   6.423   0.034  0.2020  0.3256 -0.2507
  144ACOH    C110049  -0.058   6.645   0.097  0.4291  0.3411 -0.3431
  144ACOH    H110050  -0.089   6.652   0.201  1.9627  0.1888  0.1500
  144ACOH    H210051  -0.143   6.625   0.032 -1.6086 -0.9024  2.6147
  144ACOH    H310052  -0.020   6.743   0.068 -1.6266  0.6856 -1.9785
  145ACOH    H410053   1.245   2.675   4.557  0.6142 -2.0891 -1.9646
  145ACOH    O210054   1.314   2.729   4.515  0.0181  0.0383 -0.3025
  145ACOH    C210055   1.422   2.653   4.511 -0.0264  0.4568  0.3314
  145ACOH    O110056   1.453   2.565   4.586 -0.5663 -0.3741 -0.3016
  145ACOH    C110057   1.525   2.735   4.442  0.2414  0.8887 -0.3201
  145ACOH    H110058   1.620   2.735   4.495  0.2122  1.1351 -0.2676
  145ACOH    H210059   1.484   2.835   4.426 -1.7335 -0.3417 -3.5680
  145ACOH    H310060   1.550   2.694   4.344  0.3814  0.5147 -0.1269
  146ACOH    H410061   9.205   3.923   5.946 -0.1829 -0.0654 -0.1398
  146ACOH    O210062   9.111   3.909   5.964 -0.1778  0.3620  0.2206
  146ACOH    C210063   9.045   4.010   5.903 -0.2308  0.5943 -0.9184
  146ACOH    O110064   9.087   4.115   5.857 -0.1691 -0.0228  0.1889
  146ACOH    C110065   8.905   3.995   5.936 -0.7799 -0.1066  0.8357
  146ACOH    H110066   8.892   3.996   6.044 -2.3433  1.8041  0.6524
  146ACOH    H210067   8.871   3.902   5.890 -1.3366 -0.0505  1.1363
  146ACOH    H310068   8.843   4.081   5.908 -0.1126  0.4205  0.9701
  147ACOH    H410069   3.067   7.559   4.656  0.5823  0.0127 -0.5425
  147ACOH    O210070   3.149   7.563   4.708  0.2443  0.7061 -0.0516
  147ACOH    C210071   3.249   7.518   4.625 -0.1315 -0.1285  0.4461
  147ACOH    O110072   3.234   7.488   4.507  0.1051  0.0820  0.4134
  147ACOH    C110073   3.383   7.517   4.687 -0.3086 -0.2104  0.1600
  147ACOH    H110074   3.389   7.588   4.770  1.3559 -3.2247  2.7607
  147ACOH    H210075   3.458   7.527   4.608 -1.0088 -0.8734 -0.5863
  147ACOH    H310076   3.401   7.423   4.739  2.4461  0.1723 -0.0375
  148ACOH    H410077   6.527   1.024   5.862  0.1814  0.6183 -0.1912
  148ACOH    O210078   6.439   1.038   5.901  0.0903 -0.0983 -0.1284
  148ACOH    C210079   6.359   0.972   5.818 -0.0745 -0.3578 -0.3555
  148ACOH    O110080   6.385   0.943   5.699 -0.3676 -0.4927 -0.3818
  148ACOH    C110081   6.219   0.983   5.867  0.0414  0.0640  0.0042
  148ACOH    H110082   6.189   1.083   5.897 -2.6236 -0.6417 -0.2142
  148ACOH    H210083   6.203   0.904   5.940  1.1420  0.7186  0.9602
  148ACOH    H310084   6.157   0.958   5.780 -0.3659  1.1366 -0.0154
  149ACOH    H410085   7.034   3.510   1.065 -0.5740 -0.4247 -0.7727
  149ACOH    O210086   6.958   3.551   1.108 -0.1414 -0.0250 -0.3818
  149ACOH    C210087   6.969   3.515   1.233  0.3478  0.1373  0.4313
  149ACOH    O110088   7.069   3.483   1.281  0.0454 -0.8953  0.3101
  149ACOH    C110089   6.841   3.492   1.308 -0.2529 -0.6700 -0.6942
  149ACOH    H110090   6.828   3.574   1.379  2.0606 -0.1675 -0.8077
  149ACOH    H210091   6.827   3.397   1.359  0.1481  1.9401  4.5916
  149ACOH    H310092   6.759   3.502   1.236  0.0420 -1.2663 -1.1125
  150ACOH    H410093   8.710   1.670   1.777 -3.1388 -1.9207  0.3914
  150ACOH    O210094   8.737   1.626   1.695  0.1234  0.2097  0.2122
  150ACOH    C210095   8.639   1.638   1.602  0.0122 -0.0351 -0.3619
  150ACOH    O110096   8.580   1.746   1.585  0.1452 -0.0519  0.2025
  150ACOH    C110097   8.633   1.532   1.502  0.2135  0.0699  0.3412
  150ACOH    H110098   8.668   1.564   1.404 -0.4708  0.9911  0.3913
  150ACOH    H210099   8.530   1.500   1.490 -0.6351  2.2763  1.3636
  150ACOH    H310100   8.697   1.451   1.535  1.5404  0.6441 -0.7472
  151ACOH    H410101   6.283   0.312   5.882 -0.4587 -1.3534  1.5276
  151ACOH    O210102   6.291   0.381   5.950  0.4113  0.0492  0.0520
  151ACOH    C210103   6.419   0.389   6.001 -0.4647 -1.0199  0.2757
  151ACOH    O110104   6.507   0.309   5.977  0.0998 -0.6957  0.3111
  151ACOH    C110105   6.448   0.493   6.104  0.3794  0.1926  0.1883
  151ACOH    H110106   6.377   0.576   6.098  0.3917  0.2320  0.6097
  151ACOH    H210107   6.550   0.530   6.095  0.9615 -0.4861  3.4869
  151ACOH    H310108   6.435   0.448   6.202  0.3545 -0.3969 -0.0822
  152ACOH    H410109   2.487   6.559   3.732 -1.1889 -0.8242 -0.0142
  152ACOH    O210110   2.439   6.619   3.791 -0.9853 -0.1515 -0.5224
  152ACOH    C210111   2.327   6.643   3.716 -0.2593  0.7027  0.6293
  152ACOH    O110112   2.304   6.621   3.597  0.5143 -0.1351  0.5520
  152ACOH    C110113   2.236   6.730   3.785 -0.0109 -0.6456  0.0782
  152ACOH    H110114   2.248   6.832   3.748 -2.1417 -0.4318 -0.0714
  152ACOH    H210115   2.252   6.724   3.893  0.1425  1.1139  0.1702
  152ACOH    H310116   2.136   6.696   3.759  1.2885 -2.1150 -3.2106
  153ACOH    H410117   9.265   9.773   2.049 -1.1277 -0.8102  1.6424
  153ACOH    O210118   9.321   9.797   2.124  0.2872 -0.4461  0.4897
  153ACOH    C210119   9.238   9.864   2.203 -0.0607 -0.0357 -0.5060
  153ACOH    O110120   9.117   9.864   2.197  0.0826  0.4303  0.3181
  153ACOH    C110121   9.312   9.927   2.319 -0.3657  0.5072  0.0991
  153ACOH    H110122   9.365  10.016   2.284  0.3030 -0.6174 -1.8020
  153ACOH    H210123   9.372   9.850   2.369  1.6869  2.0532  0.0869
  153ACOH    H310124   9.242   9.953   2.398 -0.1082 -0.0844  0.5308
  154ACOH    H410125   4.303   4.427   2.269 -0.0454  0.2402  0.0153
  154ACOH    O210126   4.325   4.503   2.327 -0.2691  0.1982  0.1552
  154ACOH    C210127   4.450   4.474   2.369  0.4990  0.2033  0.3117
  154ACOH    O110128   4.539   4.399   2.328 -0.3736 -0.6686  0.0911
  154ACOH    C110129   4.487   4.577   2.478 -0.1809 -0.3538  0.1211
  154ACOH    H110130   4.391   4.622   2.506 -0.7208 -1.7952  0.6452
  154ACOH    H210131   4.544   4.660   2.436  0.9248 -0.3987  1.5039
  154ACOH    H310132   4.542   4.536   2.562  3.3626  3.3063 -0.2616
  155ACOH    H410133   6.453   2.422   3.818 -0.6185  2.6633  0.8899
  155ACOH    O210134   6.542   2.451   3.843  0.7754 -0.3550 -0.2665
  155ACOH    C210135   6.599   2.349   3.903  0.8686  0.4482 -0.3649
  155ACOH    O110136   6.562   2.232   3.913  0.5425 -0.6577  0.2557
  155ACOH    C110137   6.730   2.386   3.953 -0.3327  0.6924 -0.4357
  155ACOH    H110138   6.729   2.394   4.061  1.6813 -0.4570 -0.3093
  155ACOH    H210139   6.762   2.483   3.915  3.6692 -0.3669  0.0699
  155ACOH    H310140   6.801   2.314   3.912 -0.2629 -0.9761  2.4776
  156ACOH    H410141   5.533   4.707   4.300 -0.3354  0.7284  0.3782
  156ACOH    O210142   5.615   4.758   4.291 -0.2622  0.4318 -0.6943
  156ACOH    C210143   5.581   4.864   4.358  0.0702 -0.7100 -0.2600
  156ACOH    O110144   5.471   4.901   4.402 -0.3213  0.4744  0.1931
  156ACOH    C110145   5.704   4.948   4.389 -0.3177  0.4782 -0.1315
  156ACOH    H110146   5.771   4.882   4.443 -1.7674 -0.6944  0.2859
  156ACOH    H210147   5.678   5.036   4.447  0.5583  0.2466  0.6090
  156ACOH    H310148   5.751   4.984   4.298 -0.2331  0.4399 -0.1026
  157ACOH    H410149   5.118   4.528   3.658 -0.1774  0.3461  0.6956
  157ACOH    O210150   5.106   4.612   3.610 -0.2699  0.0921  0.2665
  157ACOH    C210151   5.112   4.592   3.477  0.4433  1.1796  0.2036
  157ACOH    O110152   5.101   4.484   3.427 -0.0924 -0.2854  0.7829
  157ACOH    C110153   5.113   4.720   3.401 -0.3242  0.3942  0.4613
  157ACOH    H110154   5.037   4.732   3.324 -0.2295  1.9331  0.5991
  157ACOH    H210155   5.213   4.720   3.357 -0.9983 -1.0412 -1.1420
  157ACOH    H310156   5.113   4.805   3.469  3.1204  0.2106  0.7923
  158ACOH    H410157   7.387   2.696   0.591  1.6884  0.1282 -0.7593
  158ACOH    O210158   7.342   2.710   0.506  0.1840  0.0679  0.0052
  158ACOH    C210159   7.436   2.756   0.422  0.4454 -0.6708  0.4256
  158ACOH    O110160   7.554   2.758   0.441  0.5931 -0.1193  0.0198
  158ACOH    C110161   7.376   2.798   0.298 -0.2945 -0.8375  0.2292
  158ACOH    H110162   7.267   2.803   0.304 -0.3851 -0.4690 -1.5334
  158ACOH    H210163   7.406   2.724   0.224 -1.7993  1.3425 -2.6460
  158ACOH    H310164   7.415   2.896   0.273 -1.9504 -0.5441 -1.2601
  159ACOH    H410165   7.800   3.776   2.395  1.6808  1.9459 -0.7050
  159ACOH    O210166   7.728   3.784   2.329 -0.3030 -1.0509  0.9658
  159ACOH    C210167   7.770   3.850   2.221  0.1765 -0.1860  0.6764
  159ACOH    O110168   7.886   3.880   2.191  0.4184  0.3038  0.3184
  159ACOH    C110169   7.650   3.857   2.134 -0.2960  0.5499  0.7766
  159ACOH    H110170   7.674   3.922   2.049  1.4919  0.5599  1.2698
  159ACOH    H210171   7.573   3.898   2.199 -2.3799  0.2524 -1.4059
  159ACOH    H310172   7.612   3.762   2.095 -0.5745  0.7875  0.4651
  160ACOH    H410173   9.703   3.721   5.981 -1.5290 -0.4037 -3.2567
  160ACOH    O210174   9.753   3.643   5.953  0.5096 -0.3406  0.0495
  160ACOH    C210175   9.775   3.654   5.821 -0.0880 -0.0463 -0.1529
  160ACOH    O110176   9.769   3.761   5.759  0.2642 -0.8973  0.0332
  160ACOH    C110177   9.836   3.530   5.766  0.2267 -0.1749 -0.0543
  160ACOH    H110178   9.815   3.521   5.659 -0.1347 -0.5852  0.0474
  160ACOH    H210179   9.796   3.446   5.823 -1.4575  1.2050  0.8563
  160ACOH    H310180   9.943   3.530   5.783  0.3524  0.7450 -0.7669
  161ACOH    H410181   5.938   2.048   2.809 -0.0791  0.1354  0.6504
  161ACOH    O210182   5.976   2.130   2.847  0.4390  0.3546 -0.3280
  161ACOH    C210183   5.923   2.235   2.787 -0.0722 -0.2123  0.3301
  161ACOH    O110184   5.901   2.246   2.669  0.2521  0.1935  0.4073
  161ACOH    C110185   5.930   2.352   2.874 -0.1333  0.7268  0.4602
  161ACOH    H110186   5.931   2.328   2.980  0.7964  0.7705  0.4684
  161ACOH    H210187   5.845   2.416   2.852 -1.3864 -0.4581  1.7457
  161ACOH    H310188   6.026   2.400   2.854  1.4665 -1.8076  1.7930
  162ACOH    H410189   6.188   0.983   0.345 -0.3762  3.1440  1.0167
  162ACOH    O210190   6.092   0.965   0.347  0.0776  0.2927 -0.5348
  162ACOH    C210191   6.066   0.838   0.326  0.5298  0.4911  0.3373
  162ACOH    O110192   6.150   0.755   0.306  0.0193 -0.6934 -0.4420
  162ACOH    C110193   5.921   0.805   0.308  0.4206 -0.3565 -0.2174
  162ACOH    H110194   5.907   0.738   0.224  0.1624 -0.3302 -0.1951
  162ACOH    H210195   5.865   0.897   0.293 -0.3587 -0.6143  1.0160
  162ACOH    H310196   5.890   0.749   0.397 -3.9860  1.1584 -0.7097
  163ACOH    H410197   7.874   4.209   4.612 -1.6075  0.2542 -1.2724
  163ACOH    O210198   7.865   4.296   4.654  0.2233 -0.3772  0.4637
  163ACOH    C210199   7.888   4.390   4.562 -0.5438  0.3479 -0.4139
  163ACOH    O110200   7.956   4.369   4.465  0.3380 -0.1516  0.3434
  163ACOH    C110201   7.866   4.532   4.617  0.1874  0.5653 -0.0434
  163ACOH    H110202   7.955   4.568   4.667 -0.4002  0.8650  0.7949
  163ACOH    H210203   7.781   4.532   4.686 -0.2645  1.0259 -0.5904
  163ACOH    H310204   7.848   4.606   4.539  2.9113  0.6467 -0.6436
  164ACOH    H410205   2.015   1.270   4.423 -1.4132  0.8464 -0.3313
  164ACOH    O210206   1.996   1.177   4.403  0.6804  0.2939  0.1379
  164ACOH    C210207   1.895   1.173   4.310  0.1381  0.6318  0.0632
  164ACOH    O110208   1.880   1.254   4.223  0.4446  0.5406 -0.1311
  164ACOH    C110209   1.840   1.033   4.308  0.0586  0.3110 -0.1404
  164ACOH    H110210   1.783   1.009   4.218  2.3161  1.1353 -1.8473
  164ACOH    H210211   1.796   1.007   4.404  1.7767 -0.0352  0.5745
  164ACOH    H310212   1.929   0.969   4.306  0.8770  1.4312 -0.1416
  165ACOH    H410213   8.111   4.762   3.902 -0.4858 -1.2978 -0.5165
  165ACOH    O210214   8.115   4.803   3.814  0.3887  0.3260  0.2696
  165ACOH    C210215   8.217   4.762   3.734  0.1168  0.1232  0.1201
  165ACOH    O110216   8.295   4.671   3.762 -0.0070 -0.0642 -0.7662
  165ACOH    C110217   8.239   4.829   3.604 -0.4322  0.0059 -0.4094
  165ACOH    H110218   8.283   4.925   3.633 -2.1361  1.0702 -1.2868
  165ACOH    H210219   8.138   4.842   3.565 -1.2228 -0.4527  1.4156
  165ACOH    H310220   8.300   4.777   3.530 -0.7817  0.4009 -0.9801
  166ACOH    H410221   6.813   8.423   2.458 -1.7703  3.5138 -0.9611
  166ACOH    O210222   6.736   8.383   2.413 -0.4432 -0.6932  0.2512
  166ACOH    C210223   6.745   8.255   2.439 -0.0632  0.5902  0.1733
  166ACOH    O110224   6.846   8.193   2.472  0.2987  0.1692  0.4404
  166ACOH    C110225   6.617   8.191   2.400  0.4177  0.7545 -0.6909
  166ACOH    H110226   6.543   8.203   2.479  1.2353  2.2308 -0.1267
  166ACOH    H210227   6.633   8.083   2.402 -1.7694  0.4177 -0.1009
  166ACOH    H310228   6.585   8.222   2.301  1.9440 -0.3528 -1.5492
  167ACOH    H410229   5.630   9.237   1.310 -1.0501 -1.2166 -0.4517
  167ACOH    O210230   5.648   9.266   1.220  0.4756  0.4426  0.3595
  167ACOH    C210231   5.579   9.194   1.127  0.5474  0.2254 -0.0876
  167ACOH    O110232   5.466   9.151   1.152  0.7860  0.2331 -0.1927
  167ACOH    C110233   5.637   9.213   0.994  0.4185 -0.3880 -0.4445
  167ACOH    H110234   5.636   9.122   0.935 -1.4451 -1.2942  0.9186
  167ACOH    H210235   5.742   9.230   1.019 -0.1385  0.1213  1.6979
  167ACOH    H310236   5.605   9.302   0.940 -1.1831 -0.8253 -0.2400
  168ACOH    H410237   4.492   7.200   4.973 -1.4719 -0.3206 -2.1536
  168ACOH    O210238   4.409   7.204   5.024 -0.1671  0.3433 -0.0159
  168ACOH    C210239   4.325   7.303   4.978  0.1043  0.5426 -0.1501
  168ACOH    O110240   4.355   7.374   4.880  0.7819  0.2835 -0.1329
  168ACOH    C110241   4.207   7.324   5.064  0.5694 -0.3872 -0.0489
  168ACOH    H110242   4.194   7.432   5.069  0.8760 -0.3595  0.1567
  168ACOH    H210243   4.233   7.294   5.166 -1.7083 -1.0188  0.3669
  168ACOH    H310244   4.111   7.283   5.032 -0.7035  2.1887  0.3656
  169ACOH    H410245   7.352   2.810   1.766 -3.4118 -3.1127 -0.0951
  169ACOH    O210246   7.369   2.792   1.860 -0.1093 -0.0389 -0.0174
  169ACOH    C210247   7.300   2.676   1.879  0.0012 -0.9931 -0.4677
  169ACOH    O110248   7.225   2.624   1.799  0.1689 -0.2406  0.3051
  169ACOH    C110249   7.306   2.639   2.026 -0.3437  0.7958 -0.3155
  169ACOH    H110250   7.202   2.642   2.058 -0.1089 -1.4524  0.7626
  169ACOH    H210251   7.369   2.698   2.091 -1.3434 -1.1051  2.4706
  169ACOH    H310252   7.334   2.534   2.038  0.8147  1.1496  0.0815
  170ACOH    H410253   5.635   2.135   4.294 -1.7755  2.5089  0.0066
  170ACOH    O210254   5.707   2.173   4.240 -0.4248  0.3916  0.2646
  170ACOH    C210255   5.656   2.285   4.181  0.5873 -0.1134 -0.3671
  170ACOH    O110256   5.551   2.342   4.217 -0.0730 -0.3287 -0.1208
  170ACOH    C110257   5.760   2.369   4.116  0.2806 -0.6110 -0.0068
  170ACOH    H110258   5.719   2.407   4.022  0.5400 -2.0014 -0.6897
  170ACOH    H210259   5.849   2.307   4.106  0.4169 -0.2933 -0.8438
  170ACOH    H310260   5.785   2.458   4.174 -0.6420  0.8876 -1.8811
  171ACOH    H410261   4.740   1.929   3.251 -2.3116  0.4071 -0.4830
  171ACOH    O210262   4.731   2.014   3.204  0.0502  0.8379 -0.2245
  171ACOH    C210263   4.800   2.007   3.088  0.2540  0.1525 -0.2284
  171ACOH    O110264   4.820   1.901   3.027 -0.2147  1.1307 -0.5700
  171ACOH    C110265   4.823   2.139   3.023 -0.4280  0.2956  0.3063
  171ACOH    H110266   4.903   2.137   2.949 -0.1408 -0.7085  0.6387
  171ACOH    H210267   4.828   2.218   3.098 -1.0890  0.9865 -0.3678
  171ACOH    H310268   4.733   2.158   2.965 -0.2360 -4.1464 -1.6729
  172ACOH    H410269   7.996   2.696   5.406 -1.8829  1.9908  1.4793
  172ACOH    O210270   7.981   2.739   5.320  0.5555 -0.1404 -0.0857
  172ACOH    C210271   7.909   2.658   5.255 -0.6728 -0.2747 -0.2361
  172ACOH    O110272   7.889   2.538   5.272 -0.5438 -0.0914  1.0546
  172ACOH    C110273   7.864   2.730   5.129  0.5603 -0.3299  0.0805
  172ACOH    H110274   7.790   2.673   5.072  1.2419 -0.5504 -0.5870
  172ACOH    H210275   7.944   2.754   5.059 -0.3780  1.3256 -0.4453
  172ACOH    H310276   7.824   2.828   5.152 -2.0617 -0.9763 -1.4775
  173ACOH    H410277   0.638   2.534   4.821  1.2287 -1.9532 -2.2137
  173ACOH    O210278   0.682   2.480   4.888  0.4643  0.0226 -0.0609
  173ACOH    C210279   0.813   2.515   4.877 -0.2318 -0.2015  0.0871
  173ACOH    O110280   0.853   2.611   4.818  0.6371 -0.3570  0.9365
  173ACOH    C110281   0.901   2.438   4.963 -0.0985  0.4935 -0.6771
  173ACOH    H110282   1.001   2.458   4.923  0.1271 -0.0409 -0.3734
  173ACOH    H210283   0.887   2.331   4.951 -0.6426  0.5166 -0.2699
  173ACOH    H310284   0.885   2.466   5.067 -3.9902 -1.1515 -0.7627
  174ACOH    H410285   5.219   3.338   1.948 -1.6725 -0.0814  0.7593
  174ACOH    O210286   5.210   3.367   1.855  0.0107  0.0228  0.6172
  174ACOH    C210287   5.200   3.495   1.864 -0.1502  0.0304 -0.0022
  174ACOH    O110288   5.167   3.559   1.964  0.2910  0.5128  0.1777
  174ACOH    C110289   5.216   3.553   1.728  0.1649  0.2683  0.0826
  174ACOH    H110290   5.213   3.662   1.727  0.1182  0.2663  0.0161
  174ACOH    H210291   5.135   3.522   1.662  0.4863 -1.0768  0.3056
  174ACOH    H310292   5.306   3.515   1.680 -0.3112 -0.7667 -0.0081
  175ACOH    H410293   5.418   6.573   1.808 -0.1218  0.1293 -1.2847
  175ACOH    O210294   5.512   6.560   1.827 -0.5111 -0.2031  0.4245
  175ACOH    C210295   5.583   6.678   1.820 -0.1193  0.3038  0.4661
  175ACOH    O110296   5.548   6.782   1.770  0.6972 -0.2022 -0.6933
  175ACOH    C110297   5.718   6.662   1.863  0.2552  0.3974  0.5145
  175ACOH    H110298   5.791   6.684   1.785 -1.7834 -0.4878 -1.7131
  175ACOH    H210299   5.737   6.561   1.898 -2.4878 -0.0628  0.7660
  175ACOH    H310300   5.738   6.735   1.941 -0.4995  0.7468  0.3816
  176ACOH    H410301   7.997   7.751   1.266  0.2993  0.0313 -1.8282
  176ACOH    O210302   7.901   7.767   1.266  0.3157  0.1928 -0.3794
  176ACOH    C210303   7.852   7.678   1.177  0.6741 -0.2360  0.1419
  176ACOH    O110304   7.908   7.589   1.118  0.0440  0.8280 -0.4015
  176ACOH    C110305   7.703   7.706   1.165 -0.0320 -0.1437 -0.0968
  176ACOH    H110306   7.661   7.635   1.093 -1.7174  1.2779 -0.5587
  176ACOH    H210307   7.691   7.808   1.129 -0.0224 -0.2652 -0.4486
  176ACOH    H310308   7.648   7.698   1.258  1.3135 -0.3320  0.6863
  177ACOH    H410309   0.705   5.007   5.351 -0.4696 -1.4767  1.7000
  177ACOH    O210310   0.626   5.054   5.384 -0.4092  0.0713 -0.2202
  177ACOH    C210311   0.535   4.953   5.389 -0.5457 -0.1517  0.0846
  177ACOH    O110312   0.558   4.832   5.393 -0.2850 -0.6573  0.0130
  177ACOH    C110313   0.401   5.007   5.424 -0.3909 -0.2087 -0.0220
  177ACOH    H110314   0.328   4.939   5.468 -0.9823  0.3285 -0.1607
  177ACOH    H210315   0.352   5.047   5.335 -0.9379 -0.6789  0.0664
  177ACOH    H310316   0.414   5.086   5.498  2.0246 -0.9752  0.3917
  178ACOH    H410317   5.131   3.700   0.601 -0.3522  1.4955 -0.6037
  178ACOH    O210318   5.217   3.743   0.592  0.0758  0.8595  0.3096
  178ACOH    C210319   5.296   3.702   0.694  0.5929  0.0988  0.7878
  178ACOH    O110320   5.258   3.652   0.796  0.3637 -0.2844 -0.3553
  178ACOH    C110321   5.423   3.762   0.670  0.0767  0.0931 -0.4482
  178ACOH    H110322   5.404   3.865   0.638 -0.2865 -0.3644 -1.7267
  178ACOH    H210323   5.483   3.698   0.606  2.4443  0.0181  1.7646
  178ACOH    H310324   5.479   3.775   0.763  2.7854 -1.4977 -1.8064
  179ACOH    H410325   0.564   0.017   0.655  1.2175  0.5053 -1.3675
  179ACOH    O210326   0.611   0.073   0.718 -0.5935  0.1534  0.3713
  179ACOH    C210327   0.631   0.193   0.655  0.2318 -0.1526  0.2892
  179ACOH    O110328   0.554   0.230   0.566 -1.2314  0.2672  0.6418
  179ACOH    C110329   0.729   0.281   0.716 -0.3286 -0.3414  1.0606
  179ACOH    H110330   0.809   0.220   0.757  0.3972  0.0825  0.2894
  179ACOH    H210331   0.683   0.346   0.789  0.0436  0.9523  0.1561
  179ACOH    H310332   0.767   0.345   0.636 -1.0004  0.6417  1.5254
  180ACOH    H410333   4.518   4.922   1.271  0.5696 -1.9739 -0.5462
  180ACOH    O210334   4.602   4.913   1.319  0.3510  0.3874  0.3122
  180ACOH    C210335   4.640   5.032   1.369 -0.1241  0.4753  0.0160
  180ACOH    O110336   4.582   5.133   1.344 -0.1717  1.0532  0.3284
  180ACOH    C110337   4.758   5.027   1.458  0.0591 -0.2653 -0.2091
  180ACOH    H110338   4.762   4.926   1.498  0.6164 -0.9035 -1.8199
  180ACOH    H210339   4.746   5.090   1.546  2.9973 -2.4037  1.8031
  180ACOH    H310340   4.855   5.042   1.411  0.0226  0.6531 -0.0090
  181ACOH    H410341   7.501   8.563   1.471  1.4432  2.3009  0.5542
  181ACOH    O210342   7.583   8.539   1.424  0.3903 -0.3470  0.0059
  181ACOH    C210343   7.661   8.458   1.500 -0.1692  0.1263 -0.2643
  181ACOH    O110344   7.631   8.405   1.605  0.0696  0.2567 -0.4899
  181ACOH    C110345   7.788   8.431   1.431 -0.4157 -0.0645  0.2121
  181ACOH    H110346   7.843   8.360   1.493  0.8687  0.6325 -0.1025
  181ACOH    H210347   7.850   8.518   1.410 -0.3028 -1.0371 -4.0036
  181ACOH    H310348   7.770   8.380   1.337  0.6345  1.2495 -0.7273
  182ACOH    H410349   7.615   1.022   4.556  0.4209  1.4454 -0.1207
  182ACOH    O210350   7.655   0.990   4.473 -0.2835 -0.1957  0.1403
  182ACOH    C210351   7.730   1.091   4.419 -0.5491 -0.0117  0.5755
  182ACOH    O110352   7.747   1.199   4.469 -0.2527 -0.3879 -0.0218
  182ACOH    C110353   7.784   1.055   4.283  0.1424 -0.3108 -1.4196
  182ACOH    H110354   7.889   1.081   4.293  0.2080 -0.4758 -1.6830
  182ACOH    H210355   7.746   1.122   4.205 -0.7843  0.5948 -0.2138
  182ACOH    H310356   7.763   0.950   4.265 -2.1221 -0.4010  1.4011
  183ACOH    H410357   7.404   3.215   2.441  1.3808  0.8024 -1.5560
  183ACOH    O210358   7.345   3.251   2.372 -0.1856  0.4744 -0.4292
  183ACOH    C210359   7.396   3.198   2.258  0.3800 -0.0540  0.3996
  183ACOH    O110360   7.518   3.178   2.235 -0.0825  0.5443  0.4406
  183ACOH    C110361   7.304   3.222   2.141 -0.7380 -0.0546  0.3298
  183ACOH    H110362   7.320   3.151   2.060 -0.0559  1.3320 -0.7779
  183ACOH    H210363   7.321   3.322   2.101 -1.2309 -0.8372 -1.9141
  183ACOH    H310364   7.196   3.225   2.156 -1.1804 -1.3770 -2.3945
  184ACOH    H410365   6.257   4.657   0.959 -0.1927 -2.5258  2.6286
  184ACOH    O210366   6.325   4.702   1.012  0.4838  0.3469 -0.4929
  184ACOH    C210367   6.438   4.639   0.996 -0.1741  0.1997 -0.9768
  184ACOH    O110368   6.472   4.571   0.902  0.3098  0.0802  0.1920
  184ACOH    C110369   6.526   4.688   1.102  0.0441  0.9539 -0.4080
  184ACOH    H110370   6.614   4.735   1.059  1.0490 -0.0667  0.4784
  184ACOH    H210371   6.569   4.602   1.154  0.9069  2.5328  1.5690
  184ACOH    H310372   6.477   4.747   1.179 -1.2235  0.7763 -1.0671
  185ACOH    H410373   9.903   0.253   3.834  0.5902  1.6378  0.7773
  185ACOH    O210374   9.980   0.282   3.783  0.1110  0.3072 -0.7294
  185ACOH    C210375  10.066   0.179   3.798 -0.2011  0.4956  0.3929
  185ACOH    O110376  10.043   0.065   3.835 -0.0936 -0.4285 -0.0144
  185ACOH    C110377  10.203   0.213   3.749 -0.7680 -0.0752  0.1722
  185ACOH    H110378  10.201   0.244   3.645 -2.7409 -0.0637  0.2006
  185ACOH    H210379  10.264   0.123   3.761 -1.1945 -0.3528  0.2673
  185ACOH    H310380  10.245   0.283   3.821  1.1873 -1.9221  0.8762
  186ACOH    H410381   4.196   5.294   3.365 -1.6337  1.4777  0.0350
  186ACOH    O210382   4.263   5.359   3.392  0.0858 -0.2567  0.0655
  186ACOH    C210383   4.370   5.277   3.418  0.0416 -0.2635 -0.4066
  186ACOH    O110384   4.385   5.157   3.408  0.1032 -0.1963  0.2142
  186ACOH    C110385   4.469   5.371   3.470 -0.4642  0.4855  0.3180
  186ACOH    H110386   4.559   5.311   3.483  0.6188  1.8524 -0.6706
  186ACOH    H210387   4.422   5.400   3.564  0.8184  2.3556  0.4029
  186ACOH    H310388   4.488   5.458   3.407 -1.1193 -0.5349 -1.3376
  187ACOH    H410389   7.065   2.508   0.667 -2.3981 -0.8956  0.2503
  187ACOH    O210390   7.060   2.595   0.624  0.1279 -0.7612  0.1801
  187ACOH    C210391   7.049   2.689   0.719 -0.6567 -0.3187  0.1253
  187ACOH    O110392   7.117   2.676   0.819 -0.5636  0.5039  0.3206
  187ACOH    C110393   7.025   2.823   0.666  0.1651  0.5651 -0.5357
  187ACOH    H110394   6.916   2.831   0.661  0.1061 -0.3533 -0.9479
  187ACOH    H210395   7.063   2.834   0.564 -0.4121  1.9422 -0.6181
  187ACOH    H310396   7.066   2.900   0.731 -1.3598  1.9536 -1.1940
  188ACOH    H410397   5.782   2.183   1.972 -0.3191 -0.5888  1.2704
  188ACOH    O210398   5.863   2.235   1.958 -0.5018 -0.4079  0.8940
  188ACOH    C210399   5.971   2.163   2.007  0.3886  0.3299 -0.2369
  188ACOH    O110400   5.964   2.092   2.101 -0.0464 -0.0086 -0.4712
  188ACOH    C110401   6.102   2.211   1.961 -0.0856 -0.4770 -0.6500
  188ACOH    H110402   6.158   2.254   2.045 -0.2053  0.6644 -1.1494
  188ACOH    H210403   6.093   2.271   1.871 -0.3642 -0.5915 -0.6979
  188ACOH    H310404   6.158   2.123   1.928  1.7900  0.7449 -0.8442
  189ACOH    H410405   4.797   5.548   2.796 -0.4420  1.0417 -1.4864
  189ACOH    O210406   4.810   5.636   2.836  0.1850  0.1875  0.2681
  189ACOH    C210407   4.918   5.690   2.775 -0.8068  0.4449 -0.7386
  189ACOH    O110408   5.005   5.635   2.712  0.6233 -0.1915  0.1626
  189ACOH    C110409   4.938   5.832   2.812 -0.7791 -0.2988 -0.6630
  189ACOH    H110410   4.853   5.890   2.774 -0.3662  0.0902 -0.9988
  189ACOH    H210411   5.023   5.876   2.760 -1.9952  1.4761 -1.2334
  189ACOH    H310412   4.958   5.850   2.918  0.6154  1.5505 -1.2111
  190ACOH    H410413   8.442   7.992   0.257  1.0287  1.3006 -0.0119
  190ACOH    O210414   8.365   8.040   0.223  0.4146 -0.0589 -0.5791
  190ACOH    C210415   8.291   8.066   0.331  0.1966  0.2287  0.2793
  190ACOH    O110416   8.328   8.088   0.446 -0.6043  0.3366  0.0945
  190ACOH    C110417   8.158   8.117   0.289  0.5927 -0.1574 -0.0228
  190ACOH    H110418   8.088   8.090   0.368  1.7694  0.8852  1.4322
  190ACOH    H210419   8.140   8.068   0.194 -0.6848  0.9169 -0.3502
  190ACOH    H310420   8.163   8.226   0.281  1.1504 -0.1493  0.3606
  191ACOH    H410421   4.576   5.559   3.127 -0.1794 -3.1749  0.4086
  191ACOH    O210422   4.633   5.558   3.205 -0.0721 -0.0463  0.4487
  191ACOH    C210423   4.751   5.620   3.173  0.2066  0.4485  0.1164
  191ACOH    O110424   4.753   5.708   3.096 -0.4091  0.3999  0.5548
  191ACOH    C110425   4.862   5.583   3.272  0.0055  0.8800 -0.2661
  191ACOH    H110426   4.827   5.572   3.374 -0.0731  0.5719 -0.3253
  191ACOH    H210427   4.944   5.654   3.266  0.2378  0.6015 -0.4168
  191ACOH    H310428   4.896   5.482   3.249 -1.5397 -0.1792  1.9380
  192ACOH    H410429   7.297   1.091   0.676 -0.5453 -0.6016  0.9534
  192ACOH    O210430   7.240   1.088   0.597  0.7762 -0.0884 -0.0455
  192ACOH    C210431   7.318   1.114   0.492  0.3405 -0.2769 -0.2086
  192ACOH    O110432   7.437   1.119   0.483 -0.6307 -0.0880 -0.2122
  192ACOH    C110433   7.236   1.119   0.368 -0.7706 -0.3548  0.1933
  192ACOH    H110434   7.159   1.042   0.374 -1.7030  0.3364 -2.4526
  192ACOH    H210435   7.298   1.108   0.280  2.6184 -0.2659  2.4736
  192ACOH    H310436   7.176   1.210   0.359 -1.4719 -0.8347 -0.0263
  193ACOH    H410437   2.743   7.811   6.091  0.3047  1.2037 -1.0611
  193ACOH    O210438   2.740   7.858   6.176 -0.4499 -0.1866 -0.2984
  193ACOH    C210439   2.635   7.829   6.250  0.3011 -0.4528 -0.0237
  193ACOH    O110440   2.573   7.722   6.251 -0.4153  0.3599  0.3554
  193ACOH    C110441   2.609   7.941   6.342  0.0677 -0.3913 -0.0170
  193ACOH    H110442   2.533   7.899   6.409 -0.0565 -0.9036 -0.4758
  193ACOH    H210443   2.573   8.025   6.283  0.9286 -0.4898 -0.6874
  193ACOH    H310444   2.698   7.976   6.395 -0.4391 -0.5873  0.9896
  194ACOH    H410445   5.594   6.186   1.659  0.5971 -0.6346  0.6886
  194ACOH    O210446   5.612   6.173   1.565 -0.3888  0.5879  0.3247
  194ACOH    C210447   5.501   6.203   1.498 -0.7170  0.1602  0.2168
  194ACOH    O110448   5.405   6.246   1.553 -0.1215 -0.0860  0.0404
  194ACOH    C110449   5.504   6.180   1.351  0.1396 -0.5783 -0.3941
  194ACOH    H110450   5.604   6.195   1.311 -0.8567  1.5326 -2.2416
  194ACOH    H210451   5.436   6.247   1.299  0.7794  0.9147  0.6725
  194ACOH    H310452   5.471   6.079   1.324 -0.3340 -0.4614 -0.2517
  195ACOH    H410453   8.014   3.278   3.617  0.4319 -0.3413 -1.5091
  195ACOH    O210454   7.987   3.368   3.594  0.0124 -0.1432 -0.2968
  195ACOH    C210455   7.916   3.358   3.483  0.4222  0.0953 -0.4238
  195ACOH    O110456   7.822   3.286   3.455  0.4232  0.2756  0.0086
  195ACOH    C110457   7.939   3.473   3.399 -0.4949  0.6470 -0.3297
  195ACOH    H110458   7.946   3.423   3.303 -1.3728  0.2251 -0.1749
  195ACOH    H210459   8.032   3.527   3.422 -1.2327  1.2025  1.4489
  195ACOH    H310460   7.857   3.545   3.399  0.9103  2.2866 -0.6319
  196ACOH    H410461   9.602   0.350   0.452 -0.5151 -1.5671 -0.1424
  196ACOH    O210462   9.563   0.344   0.363 -0.8751  0.5121 -0.1452
  196ACOH    C210463   9.444   0.286   0.378 -0.4753  0.0903  0.2764
  196ACOH    O110464   9.416   0.215   0.469 -0.0764  0.6225 -0.0672
  196ACOH    C110465   9.348   0.304   0.261  0.4407  0.1037  0.4746
  196ACOH    H110466   9.307   0.213   0.217 -0.4922 -0.2977  2.1470
  196ACOH    H210467   9.408   0.359   0.188 -1.0689  0.7965 -0.2740
  196ACOH    H310468   9.266   0.372   0.285  0.4374  0.8760 -1.5912
  197ACOH    H410469   8.594   2.940   5.537 -0.8217  1.8607  1.5568
  197ACOH    O210470   8.572   2.878   5.608 -0.6369 -0.1185 -0.0547
  197ACOH    C210471   8.559   2.753   5.560 -0.7420 -0.1470  0.1224
  197ACOH    O110472   8.613   2.707   5.462  0.0212  0.6456  0.2211
  197ACOH    C110473   8.492   2.663   5.653  0.2551 -0.0817 -0.0559
  197ACOH    H110474   8.563   2.616   5.720  0.3685  0.9472  0.5572
  197ACOH    H210475   8.436   2.586   5.600  0.8997 -0.0203 -0.8329
  197ACOH    H310476   8.421   2.726   5.707 -1.6792 -2.6512  0.5102
  198ACOH    H410477   5.207   7.211   1.517 -0.1389 -0.3642 -1.2378
  198ACOH    O210478   5.226   7.301   1.486 -0.2151  0.1354  0.0946
  198ACOH    C210479   5.156   7.304   1.368 -0.5446  0.3803 -0.3577
  198ACOH    O110480   5.094   7.208   1.330  0.1283  0.0057 -0.0042
  198ACOH    C110481   5.149   7.445   1.310  0.2007 -0.7100  0.1217
  198ACOH    H110482   5.236   7.503   1.342 -0.8865  1.3757 -0.6352
  198ACOH    H210483   5.057   7.491   1.345  0.3196 -0.1359 -0.3022
  198ACOH    H310484   5.137   7.437   1.202  0.2310  2.8848 -0.1920
  199ACOH    H410485   1.546   9.008   1.936 -0.8701  0.5908  1.6569
  199ACOH    O210486   1.478   8.940   1.920 -0.4426  0.5629 -0.1116
  199ACOH    C210487   1.378   8.950   2.005  0.6139 -0.4841 -0.3575
  199ACOH    O110488   1.377   9.020   2.103 -0.4648 -0.5007 -0.0443
  199ACOH    C110489   1.261   8.866   1.971 -0.5163  0.8577  0.2203
  199ACOH    H110490   1.212   8.915   1.886  0.2603  0.4449 -0.4784
  199ACOH    H210491   1.187   8.857   2.050 -1.0402 -0.7873 -0.4529
  199ACOH    H310492   1.289   8.764   1.947 -1.7960  0.6266 -0.3187
  200ACOH    H410493   4.859   4.652   4.672 -2.3062  1.2335  1.6236
  200ACOH    O210494   4.900   4.638   4.759  0.3253  0.8409  0.3737
  200ACOH    C210495   5.018   4.697   4.747  0.4604 -0.2764  0.3608
  200ACOH    O110496   5.070   4.748   4.650  0.4964 -0.2918  0.3897
  200ACOH    C110497   5.083   4.690   4.874  0.2043 -0.9887  0.1064
  200ACOH    H110498   5.046   4.770   4.938  1.5201 -0.2891 -0.0014
  200ACOH    H210499   5.190   4.700   4.859  0.0378 -0.3387 -0.7211
  200ACOH    H310500   5.067   4.595   4.924  0.4292  0.1693  2.4583
  201ACOH    H410501   7.433   9.296   0.817 -0.4491  0.3283  0.5557
  201ACOH    O210502   7.413   9.246   0.898 -0.4387 -0.3094  0.1682
  201ACOH    C210503   7.365   9.331   0.991  0.6946 -0.4133 -0.2272
  201ACOH    O110504   7.325   9.447   0.977 -0.2070 -0.5370 -0.6247
  201ACOH    C110505   7.341   9.255   1.117  0.5244  0.1694 -0.2086
  201ACOH    H110506   7.435   9.211   1.153  0.7787  0.7782 -0.1200
  201ACOH    H210507   7.262   9.181   1.105  1.5215 -0.9553  0.0648
  201ACOH    H310508   7.315   9.327   1.194  2.7072 -0.0464  0.7894
  202ACOH    H410509   8.051   5.079   4.212  0.0256 -0.6069  1.5114
  202ACOH    O210510   7.973   5.134   4.227  0.1249 -0.0357  0.0443
  202ACOH    C210511   7.953   5.150   4.366  0.6087  0.9126 -0.1855
  202ACOH    O110512   8.006   5.100   4.462 -0.2010  0.1345  0.0161
  202ACOH    C110513   7.847   5.252   4.385  0.2986  0.2208 -0.6229
  202ACOH    H110514   7.886   5.330   4.450 -1.1022  0.1650  0.2998
  202ACOH    H210515   7.757   5.210   4.430 -0.1523  0.1983 -1.5235
  202ACOH    H310516   7.818   5.302   4.292  1.6831  0.2154 -1.0730
  203ACOH    H410517   8.172   2.803   0.030  0.3101  0.9675  1.9456
  203ACOH    O210518   8.268   2.802   0.013  0.0303 -0.2759  0.3659
  203ACOH    C210519   8.307   2.927   0.025 -0.3273  0.0517 -0.0123
  203ACOH    O110520   8.237   3.023   0.037 -0.7300 -0.2474  0.1725
  203ACOH    C110521   8.453   2.941   0.016 -0.1947 -0.5993  0.4184
  203ACOH    H110522   8.494   2.840   0.022  0.3284 -0.4082  0.1051
  203ACOH    H210523   8.492   2.993   0.103 -1.6603 -0.8065  1.2195
  203ACOH    H310524   8.470   2.998  -0.076 -1.1684 -0.9487  0.0092
  204ACOH    H410525   5.019   9.552   0.712 -0.4746 -0.5320  0.9330
  204ACOH    O210526   5.010   9.516   0.622  0.2307  0.8160  0.3173
  204ACOH    C210527   4.995   9.620   0.542 -0.5786 -0.4276 -0.2011
  204ACOH    O110528   5.003   9.737   0.572  0.2163 -0.0613 -0.1161
  204ACOH    C110529   4.912   9.588   0.425  0.7056  0.7072 -0.2590
  204ACOH    H110530   4.978   9.601   0.340 -0.9947  1.7816 -1.4526
  204ACOH    H210531   4.829   9.658   0.416  1.0406  1.4255  1.9570
  204ACOH    H310532   4.863   9.491   0.435  0.4714  1.0536  2.3227
  205ACOH    H410533   8.237   4.816   4.691 -0.9618  1.2950 -0.8119
  205ACOH    O210534   8.196   4.751   4.632 -0.2282 -0.1615  0.2674
  205ACOH    C210535   8.249   4.762   4.508 -0.1323  1.7449  0.3696
  205ACOH    O110536   8.307   4.863   4.475  0.0971 -0.3262  0.4245
  205ACOH    C110537   8.211   4.645   4.427 -0.9481  0.4643  0.3426
  205ACOH    H110538   8.108   4.635   4.393  0.0700 -0.5642 -2.6155
  205ACOH    H210539   8.246   4.553   4.474  0.8070 -0.0073 -1.7738
  205ACOH    H310540   8.265   4.651   4.332 -0.8555 -0.1546  0.3534
  206ACOH    H410541   7.574   3.080   4.362 -0.4866 -0.8682  0.9462
  206ACOH    O210542   7.490   3.126   4.347  0.0526 -0.0341  0.4663
  206ACOH    C210543   7.480   3.159   4.217 -0.0194  0.4622  0.3476
  206ACOH    O110544   7.534   3.114   4.120 -0.0751 -0.5262 -0.4216
  206ACOH    C110545   7.368   3.256   4.208 -0.6255  0.1981  0.8799
  206ACOH    H110546   7.344   3.268   4.103  0.9444  0.2661  0.5073
  206ACOH    H210547   7.398   3.350   4.254 -0.0125 -0.7910  2.5532
  206ACOH    H310548   7.282   3.222   4.266 -0.7809 -2.1663 -0.6675
  207ACOH    H410549   7.300   4.587   1.237  1.3438  0.2157 -0.6369
  207ACOH    O210550   7.268   4.677   1.220 -0.3415 -0.3247 -0.3891
  207ACOH    C210551   7.138   4.666   1.185 -0.2707 -0.3752  0.5515
  207ACOH    O110552   7.075   4.564   1.173 -0.2027  0.1088 -0.1772
  207ACOH    C110553   7.069   4.796   1.214 -0.9855  0.4611 -0.4900
  207ACOH    H110554   6.965   4.770   1.232 -0.3574 -2.2000 -0.4572
  207ACOH    H210555   7.078   4.862   1.127 -1.0457  0.2986 -0.6202
  207ACOH    H310556   7.109   4.838   1.306  1.7788 -2.6697 -0.1709
  208ACOH    H410557   6.152   1.455   0.665  0.4914 -0.3613 -0.0806
  208ACOH    O210558   6.238   1.480   0.703  0.0262  0.0473  0.7265
  208ACOH    C210559   6.331   1.418   0.627  0.4793 -0.3113  0.0992
  208ACOH    O110560   6.312   1.313   0.569  0.9365 -0.2147 -0.1979
  208ACOH    C110561   6.469   1.461   0.648 -0.2252 -0.4915  0.1351
  208ACOH    H110562   6.541   1.408   0.584 -0.3571  1.2550 -1.5315
  208ACOH    H210563   6.492   1.441   0.752  2.0361  0.5583 -0.1214
  208ACOH    H310564   6.486   1.567   0.629  1.1209  0.1266  4.3618
  209ACOH    H410565   8.021   7.163   1.235  2.3023 -0.5614 -0.0666
  209ACOH    O210566   7.990   7.139   1.324  0.4606  0.2122 -0.4861
  209ACOH    C210567   7.960   7.005   1.332  0.8116 -0.1228  0.1202
  209ACOH    O110568   7.962   6.928   1.241  0.2523  0.4673  0.3307
  209ACOH    C110569   7.885   6.981   1.457  0.5997 -0.2214 -0.4009
  209ACOH    H110570   7.897   7.070   1.519  2.0648 -0.2265 -0.6434
  209ACOH    H210571   7.924   6.893   1.509 -0.2279 -0.6669 -0.5368
  209ACOH    H310572   7.781   6.963   1.430  0.0597  2.1695 -0.0040
  210ACOH    H410573   4.784   4.919   0.085 -0.0661  1.2408 -0.5250
  210ACOH    O210574   4.741   4.915  -0.002 -0.4757  0.3901 -0.2894
  210ACOH    C210575   4.625   4.982   0.020  0.0237  0.0241 -0.7983
  210ACOH    O110576   4.600   5.049   0.116 -0.8569  0.4967 -0.1209
  210ACOH    C110577   4.529   4.976  -0.094 -0.2101 -0.0724  0.0349
  210ACOH    H110578   4.592   5.002  -0.179  0.0489 -0.9616 -0.0585
  210ACOH    H210579   4.453   5.053  -0.087 -1.6375 -1.2834 -1.5337
  210ACOH    H310580   4.476   4.881  -0.105  0.5547 -0.4616 -0.4347
  211ACOH    H410581   9.288   5.612   6.283  0.3768 -0.1381 -1.5185
  211ACOH    O210582   9.200   5.623   6.242 -0.2247  0.3430 -0.1250
  211ACOH    C210583   9.189   5.756   6.237 -0.4962 -0.0290  0.0515
  211ACOH    O110584   9.274   5.844   6.245 -0.1194  0.2686  0.0842
  211ACOH    C110585   9.056   5.801   6.193  0.2903  0.5537  0.1194
  211ACOH    H110586   8.986   5.744   6.255  1.4656  0.2353  1.1626
  211ACOH    H210587   9.041   5.768   6.090  1.7354  1.5821 -0.4294
  211ACOH    H310588   9.050   5.909   6.208  1.6944  1.2811 -3.9534
  212ACOH    H410589   5.318   3.472   4.795 -0.0330  0.8474 -0.4340
  212ACOH    O210590   5.313   3.538   4.866 -0.3299  0.2046  0.1426
  212ACOH    C210591   5.283   3.471   4.975  0.2468 -0.7735 -0.1481
  212ACOH    O110592   5.283   3.351   4.984 -0.3933 -0.1295  0.0929
  212ACOH    C110593   5.270   3.572   5.081 -0.3748 -0.4210  0.1008
  212ACOH    H110594   5.369   3.614   5.102  0.0464  0.1506 -2.7469
  212ACOH    H210595   5.234   3.528   5.173  0.1041  0.1278  0.5559
  212ACOH    H310596   5.204   3.653   5.050 -0.4257  0.0824  1.4766
  213ACOH    H410597   7.502   6.250   4.800 -0.5065 -0.2222 -2.8555
  213ACOH    O210598   7.452   6.167   4.805 -1.0485  0.2313 -0.0851
  213ACOH    C210599   7.323   6.193   4.830 -0.1282 -0.5722  0.1274
  213ACOH    O110600   7.278   6.305   4.817  0.2915  0.3030 -0.4664
  213ACOH    C110601   7.245   6.067   4.849  0.4098  0.3984  0.8504
  213ACOH    H110602   7.269   6.004   4.764  3.3421 -0.2874  2.1333
  213ACOH    H210603   7.141   6.098   4.855  0.8239  2.0285 -0.0422
  213ACOH    H310604   7.277   6.014   4.938  2.2209  0.7464  0.4338
  214ACOH    H410605   7.559   2.184   5.078  0.8987  0.5527 -1.4173
  214ACOH    O210606   7.608   2.267   5.085  0.3801  0.7299  0.4770
  214ACOH    C210607   7.577   2.327   4.969  0.7939 -0.6562  0.0730
  214ACOH    O110608   7.476   2.305   4.903  0.1207 -0.0937  0.2999
  214ACOH    C110609   7.659   2.448   4.962  0.0564  0.3928 -0.5505
  214ACOH    H110610   7.760   2.428   4.995  0.0627 -0.6414 -1.1857
  214ACOH    H210611   7.608   2.529   5.015 -2.0136 -2.9393  2.8375
  214ACOH    H310612   7.668   2.481   4.859  2.2549  0.9783 -0.1818
  215ACOH    H410613   3.453   0.530   0.773 -1.1876 -0.4092 -1.4777
  215ACOH    O210614   3.544   0.554   0.745 -0.4491 -0.9415  0.4517
  215ACOH    C210615   3.594   0.434   0.708 -0.0676 -0.5195 -0.5407
  215ACOH    O110616   3.555   0.324   0.743 -0.0735  0.5097 -0.3879
  215ACOH    C110617   3.698   0.464   0.606  0.0704  0.5392 -0.6943
  215ACOH    H110618   3.707   0.374   0.545  0.4561  0.4191 -0.4648
  215ACOH    H210619   3.790   0.499   0.653 -0.5351  0.1611  0.8047
  215ACOH    H310620   3.661   0.541   0.539 -3.3433  1.2987  1.9088
  216ACOH    H410621   8.085   6.469   0.579  1.2818 -1.6886 -0.9903
  216ACOH    O210622   8.003   6.417   0.578  0.1166  0.1146 -0.3835
  216ACOH    C210623   8.008   6.338   0.685 -1.0735  0.2419  0.1681
  216ACOH    O110624   8.062   6.358   0.793 -0.0122  0.0360  0.4561
  216ACOH    C110625   7.937   6.211   0.662  0.2046  0.3090  0.0584
  216ACOH    H110626   7.899   6.211   0.559 -2.3676 -2.4396  0.9417
  216ACOH    H210627   7.862   6.202   0.741 -1.6289 -0.3662 -1.6860
  216ACOH    H310628   8.004   6.126   0.670 -0.0218  0.2223  1.0056
  217ACOH    H410629   2.330   8.360   1.890 -2.6205 -1.5494 -3.0316
  217ACOH    O210630   2.293   8.449   1.878  0.2100  0.1435 -0.0881
  217ACOH    C210631   2.159   8.434   1.869  0.5254 -0.2780  0.0811
  217ACOH    O110632   2.094   8.331   1.875  0.2456  0.1889 -0.7576
  217ACOH    C110633   2.089   8.560   1.845  0.3989 -0.1874  0.1017
  217ACOH    H110634   2.011   8.550   1.771 -1.1966 -0.7819  1.8227
  217ACOH    H210635   2.160   8.635   1.808  0.5777  0.3670  1.5259
  217ACOH    H310636   2.036   8.600   1.932 -0.5782 -0.5357 -0.3303
  218ACOH    H410637   7.133   1.871   0.272 -0.4453  2.4817  1.2303
  218ACOH    O210638   7.128   1.929   0.194  0.5548  0.1056 -0.6873
  218ACOH    C210639   7.218   2.030   0.216 -0.2141 -0.4809 -0.0961
  218ACOH    O110640   7.247   2.060   0.326 -0.0311 -0.0628  0.4354
  218ACOH    C110641   7.236   2.118   0.102 -0.2504 -0.5060 -0.4412
  218ACOH    H110642   7.147   2.180   0.092  0.9517  0.9845 -2.1854
  218ACOH    H210643   7.263   2.056   0.016 -1.2662 -1.4807 -0.0694
  218ACOH    H310644   7.319   2.187   0.115 -0.6168 -0.2980  0.9015
  219ACOH    H410645   5.225   7.346   5.665  0.4670  1.7493  1.4278
  219ACOH    O210646   5.300   7.304   5.710  0.4309 -0.1633 -0.2560
  219ACOH    C210647   5.404   7.381   5.693 -0.7510 -1.2149  0.6539
  219ACOH    O110648   5.404   7.490   5.643  0.5351  0.0936  0.8167
  219ACOH    C110649   5.526   7.322   5.756 -0.2816  0.0420  0.1064
  219ACOH    H110650   5.620   7.322   5.701 -0.9983 -0.8283 -1.1646
  219ACOH    H210651   5.505   7.216   5.773  0.8117 -0.1404  0.3630
  219ACOH    H310652   5.540   7.379   5.848 -3.1710  0.2343  0.4732
  220ACOH    H410653   9.545   9.508   1.130  0.9570  0.4497  0.6643
  220ACOH    O210654   9.521   9.601   1.118 -0.0093  0.0572 -0.5119
  220ACOH    C210655   9.531   9.641   1.246  0.1742  0.1001 -0.0248
  220ACOH    O110656   9.535   9.571   1.346 -0.1237 -0.4670 -0.1883
  220ACOH    C110657   9.491   9.785   1.253  0.9534  0.0951 -0.3337
  220ACOH    H110658   9.568   9.853   1.216  2.3735 -1.1222  0.3011
  220ACOH    H210659   9.475   9.812   1.358  0.7302 -0.2641 -0.2746
  220ACOH    H310660   9.401   9.802   1.194  0.6943  1.3564  0.4129
  221ACOH    H410661   7.223   1.672   5.261 -0.5226  2.0046 -1.0312
  221ACOH    O210662   7.280   1.707   5.331  0.0642  0.0192 -0.4959
  221ACOH    C210663   7.260   1.842   5.314  0.2476  0.6344 -0.1302
  221ACOH    O110664   7.194   1.898   5.234 -0.5809 -0.2544 -0.4312
  221ACOH    C110665   7.356   1.906   5.407  0.0190  0.1597  0.6539
  221ACOH    H110666   7.358   2.013   5.391 -1.0067 -0.2079 -2.2140
  221ACOH    H210667   7.459   1.873   5.393  0.0287  0.2807  0.4483
  221ACOH    H310668   7.330   1.886   5.511 -1.0749  0.4821  0.4536
  222ACOH    H410669   4.813   6.181   1.086 -1.5049 -2.2390  3.7004
  222ACOH    O210670   4.850   6.259   1.129  0.0097 -0.7543 -0.0743
  222ACOH    C210671   4.757   6.330   1.192 -1.0822  0.6200  0.8758
  222ACOH    O110672   4.639   6.304   1.192  0.9265  0.2551  0.2333
  222ACOH    C110673   4.825   6.428   1.280  0.0901  0.3667 -0.1651
  222ACOH    H110674   4.756   6.497   1.328  0.1947  0.6608 -0.4434
  222ACOH    H210675   4.898   6.485   1.224 -0.7286  1.7780  0.1960
  222ACOH    H310676   4.880   6.366   1.350  0.4453 -0.5151 -1.2016
  223ACOH    H410677   9.016   1.268   4.836  2.2151 -1.0168  0.7508
  223ACOH    O210678   9.031   1.339   4.900 -0.0056 -0.2493  0.4601
  223ACOH    C210679   9.087   1.284   5.005  0.2067 -0.3054  0.3093
  223ACOH    O110680   9.183   1.203   5.004 -0.2645 -0.3592 -0.5157
  223ACOH    C110681   9.054   1.361   5.123 -0.2431  0.1930 -0.2666
  223ACOH    H110682   9.061   1.468   5.106 -1.5582  0.1308 -1.2932
  223ACOH    H210683   9.126   1.337   5.201 -1.8364 -0.6344  0.9668
  223ACOH    H310684   8.951   1.338   5.150 -0.5520 -0.0647 -1.6261
  224ACOH    H410685   4.870   2.691   3.246 -0.2951  1.0592 -1.3325
  224ACOH    O210686   4.895   2.777   3.283 -0.0632  0.1707  0.6149
  224ACOH    C210687   4.900   2.762   3.413 -0.0668  0.0172 -0.6107
  224ACOH    O110688   4.915   2.659   3.478 -0.0534 -0.8633  0.1804
  224ACOH    C110689   4.945   2.881   3.487 -0.0633 -0.0495 -0.0414
  224ACOH    H110690   4.912   2.976   3.447 -0.4325  0.6172  1.8132
  224ACOH    H210691   5.054   2.883   3.499 -0.2575 -0.2796  1.8258
  224ACOH    H310692   4.907   2.891   3.588 -1.1800  2.0651 -0.6600
  225ACOH    H410693   5.436   7.337   5.280 -0.6661  0.4799  1.2287
  225ACOH    O210694   5.399   7.270   5.340  0.1406 -0.7907  0.3260
  225ACOH    C210695   5.290   7.226   5.280 -0.2237  0.3271  0.2003
  225ACOH    O110696   5.261   7.241   5.164  0.2556  0.0538  0.6972
  225ACOH    C110697   5.211   7.135   5.359 -0.2594  0.1773  0.8739
  225ACOH    H110698   5.233   7.156   5.463  0.0490  0.8372  0.6779
  225ACOH    H210699   5.238   7.035   5.327 -0.1679  0.4401  0.1163
  225ACOH    H310700   5.108   7.160   5.333  0.0654 -0.0467 -0.6693
  226ACOH    H410701   2.888   3.881   5.577 -1.4562  0.9797  0.5749
  226ACOH    O210702   2.946   3.917   5.647 -0.1013  0.4164 -0.2357
  226ACOH    C210703   2.893   3.869   5.764  0.4986  0.0982 -0.8266
  226ACOH    O110704   2.796   3.796   5.769 -0.5232 -0.3381  1.0229
  226ACOH    C110705   2.968   3.898   5.894 -0.4100  0.3840  0.4978
  226ACOH    H110706   2.895   3.915   5.973 -1.8011 -0.8081 -0.4877
  226ACOH    H210707   3.035   3.983   5.889 -0.3499  0.2613 -0.9576
  226ACOH    H310708   3.035   3.813   5.907 -0.9762 -0.5174 -2.1053
  227ACOH    H410709   6.250   6.963   3.652  0.3132  0.0130  1.3233
  227ACOH    O210710   6.210   6.875   3.645  0.4168  0.0587  0.1337
  227ACOH    C210711   6.153   6.848   3.759 -0.1911 -0.1628 -0.5450
  227ACOH    O110712   6.142   6.920   3.856 -0.2518 -0.2109  0.5952
  227ACOH    C110713   6.110   6.708   3.752 -0.3031 -0.7445  0.3198
  227ACOH    H110714   6.002   6.692   3.760 -0.7546  1.7473 -0.3675
  227ACOH    H210715   6.154   6.654   3.836 -1.0212 -0.3475  0.9530
  227ACOH    H310716   6.150   6.661   3.662  0.8356 -1.1852  1.0472
  228ACOH    H410717   9.014   6.464   4.636  0.8697 -2.1704  1.2332
  228ACOH    O210718   9.059   6.439   4.553 -0.2757 -0.4021  0.0403
  228ACOH    C210719   9.073   6.540   4.469  0.4020  0.6262 -0.3978
  228ACOH    O110720   9.059   6.657   4.490  0.1166 -0.1655 -0.1450
  228ACOH    C110721   9.108   6.483   4.336 -0.8025  0.1908 -0.0287
  228ACOH    H110722   9.207   6.438   4.337 -0.8756 -0.1021 -2.3707
  228ACOH    H210723   9.126   6.568   4.270  2.5850 -1.1431 -0.9000
  228ACOH    H310724   9.034   6.416   4.290  1.1903 -0.8977 -1.7309
  229ACOH    H410725   1.237   3.057   4.379 -2.9486 -2.0872  0.7899
  229ACOH    O210726   1.277   3.033   4.464  0.0675  0.1331  0.0636
  229ACOH    C210727   1.385   3.102   4.494  0.0953  0.2216  0.0309
  229ACOH    O110728   1.418   3.200   4.432 -0.0924 -0.7971  0.4165
  229ACOH    C110729   1.463   3.060   4.616  0.9259 -0.1167 -0.3836
  229ACOH    H110730   1.414   2.974   4.663 -0.7356  0.8176 -0.3844
  229ACOH    H210731   1.471   3.141   4.688  0.0003 -1.8781  1.7494
  229ACOH    H310732   1.564   3.034   4.586  1.8744  1.0964  1.6532
  230ACOH    H410733   0.417   4.664   3.055 -0.7520  0.6656 -0.3701
  230ACOH    O210734   0.398   4.624   2.968 -0.0618  0.0233 -0.2227
  230ACOH    C210735   0.293   4.698   2.921 -0.3794  1.0762  1.0840
  230ACOH    O110736   0.235   4.790   2.977 -0.0810  0.1176  0.6009
  230ACOH    C110737   0.291   4.666   2.775 -0.2548 -0.2259 -0.7618
  230ACOH    H110738   0.392   4.698   2.748 -1.0410  2.3734 -0.7408
  230ACOH    H210739   0.213   4.727   2.731 -0.8729  0.5492  1.3859
  230ACOH    H310740   0.271   4.559   2.774  1.9520 -0.6686 -1.6122
  231ACOH    H410741   2.006   1.364   3.020 -0.9646  1.0900 -1.2246
  231ACOH    O210742   1.981   1.447   3.064 -0.6431  0.6703 -0.2469
  231ACOH    C210743   2.077   1.464   3.162  0.2305  0.5058  0.2261
  231ACOH    O110744   2.185   1.425   3.162  0.7779 -0.6441  0.0283
  231ACOH    C110745   2.034   1.576   3.245  0.1513  0.3180 -0.1866
  231ACOH    H110746   1.930   1.566   3.277  0.7418 -1.9475  1.1423
  231ACOH    H210747   2.053   1.666   3.186  1.8535 -0.8883 -1.5292
  231ACOH    H310748   2.101   1.591   3.329 -0.6561 -1.1220  0.7299
  232ACOH    H410749   1.928   6.980   6.328 -0.7169 -2.9973  0.8394
  232ACOH    O210750   1.904   7.006   6.419 -0.1312  0.3031  0.1284
  232ACOH    C210751   1.861   7.137   6.431  0.0634  0.0043  0.3365
  232ACOH    O110752   1.854   7.223   6.349 -0.0346 -0.3050  0.2387
  232ACOH    C110753   1.766   7.140   6.547  0.8393 -0.1381  1.0972
  232ACOH    H110754   1.692   7.061   6.531  0.4173  0.1847  1.4573
  232ACOH    H210755   1.708   7.232   6.559 -3.8712 -2.6512 -0.8430
  232ACOH    H310756   1.824   7.127   6.638  1.2650 -1.2475  0.6700
  233ACOH    H410757   7.566   2.420   0.448 -0.8445  0.4564 -2.0415
  233ACOH    O210758   7.472   2.401   0.466 -0.2166 -0.6239  0.2118
  233ACOH    C210759   7.406   2.414   0.351 -0.0020 -0.4455  0.9295
  233ACOH    O110760   7.461   2.438   0.246 -0.0925 -0.3888  0.2789
  233ACOH    C110761   7.256   2.407   0.357 -0.0830 -0.2642  0.3565
  233ACOH    H110762   7.217   2.306   0.370 -1.2190  0.4114  2.2625
  233ACOH    H210763   7.226   2.445   0.259  3.4596  3.2656  0.5153
  233ACOH    H310764   7.204   2.473   0.426 -0.8646 -2.2544  1.7289
  234ACOH    H410765   4.935   4.329   2.433 -0.4007 -0.4264  1.5241
  234ACOH    O210766   4.907   4.237   2.421 -0.2476 -0.2748 -0.1015
  234ACOH    C210767   4.944   4.162   2.531 -0.5049 -0.4450 -0.0471
  234ACOH    O110768   4.989   4.214   2.628 -0.5242  0.9656 -0.0570
  234ACOH    C110769   4.886   4.026   2.526  0.7362  0.1628 -0.1359
  234ACOH    H110770   4.939   3.967   2.601 -0.0569 -0.1165  0.1994
  234ACOH    H210771   4.910   3.999   2.423  2.9982 -0.1040  0.4376
  234ACOH    H310772   4.780   4.036   2.547  0.8408 -1.3124  1.1760
  235ACOH    H410773   5.479   9.657   3.061 -0.3136  0.6647  0.8038
  235ACOH    O210774   5.477   9.562   3.081 -0.0920  0.4161 -0.2835
  235ACOH    C210775   5.532   9.507   2.971 -0.2726 -0.4290  0.9061
  235ACOH    O110776   5.521   9.548   2.853 -0.4729  0.0221  0.2259
  235ACOH    C110777   5.562   9.362   2.977 -0.2120 -0.7131  0.0856
  235ACOH    H110778   5.667   9.350   2.953  0.3098 -0.2240  2.0060
  235ACOH    H210779   5.506   9.310   2.899 -1.2559 -1.9955  1.6264
  235ACOH    H310780   5.546   9.314   3.074  0.1355 -3.2341 -1.0422
  236ACOH    H410781   5.437   3.765   4.194  1.6602  1.4472 -1.0055
  236ACOH    O210782   5.497   3.689   4.196 -0.5649 -0.3324 -0.0476
  236ACOH    C210783   5.424   3.607   4.272 -0.1580  0.6872  0.3249
  236ACOH    O110784   5.309   3.621   4.307  0.0790  0.5472 -0.0624
  236ACOH    C110785   5.507   3.492   4.309 -0.0012 -0.2277  0.5154
  236ACOH    H110786   5.439   3.412   4.336 -1.2109  0.0159 -1.7127
  236ACOH    H210787   5.564   3.515   4.399  0.2615 -1.9062  0.7989
  236ACOH    H310788   5.578   3.462   4.231  1.0818 -1.7572  2.0524
  237ACOH    H410789   5.788   5.425   0.596 -4.6318 -0.2535  1.4125
  237ACOH    O210790   5.765   5.503   0.543  0.4971  0.2971 -0.3209
  237ACOH    C210791   5.674   5.462   0.450 -0.4418  0.3046  0.6034
  237ACOH    O110792   5.595   5.371   0.459  0.1589  0.3953  0.3027
  237ACOH    C110793   5.652   5.578   0.362 -0.3015  0.4475  0.0792
  237ACOH    H110794   5.747   5.599   0.312  1.3985 -1.5337  2.2893
  237ACOH    H210795   5.621   5.665   0.420  1.5679  0.1579  1.6126
  237ACOH    H310796   5.581   5.561   0.282 -1.3521 -0.7210  1.2263
  238ACOH    H410797   6.543   9.344   1.252 -1.3220 -0.4095 -0.1895
  238ACOH    O210798   6.552   9.249   1.269  0.0393 -0.3636 -0.5898
  238ACOH    C210799   6.462   9.212   1.362 -0.2335 -0.7120  0.6698
  238ACOH    O110800   6.373   9.281   1.409 -0.5554  0.1492  0.0909
  238ACOH    C110801   6.493   9.076   1.401 -0.4328  0.8391 -0.2349
  238ACOH    H110802   6.591   9.063   1.448 -0.0402 -1.7400 -1.6552
  238ACOH    H210803   6.488   9.008   1.316 -0.0707 -0.8521  1.0513
  238ACOH    H310804   6.420   9.046   1.476 -0.5268 -0.0952 -0.6936
  239ACOH    H410805   7.485   6.463   2.743 -2.5429 -1.5612  0.2333
  239ACOH    O210806   7.522   6.386   2.695 -0.3148 -0.0275 -0.6323
  239ACOH    C210807   7.652   6.382   2.731 -0.0718  0.5830  0.1137
  239ACOH    O110808   7.709   6.472   2.793  0.6563  0.6671  0.4808
  239ACOH    C110809   7.707   6.245   2.717  0.2306  0.1357  1.2342
  239ACOH    H110810   7.795   6.244   2.783 -1.0338  0.8772  2.9759
  239ACOH    H210811   7.747   6.227   2.617  1.1982  3.1902  1.0400
  239ACOH    H310812   7.643   6.161   2.744  0.2898 -0.2588  0.1685
  240ACOH    H410813   5.131   4.227   4.345  1.5378 -0.8782 -1.9544
  240ACOH    O210814   5.204   4.252   4.404 -0.1338  0.1017 -0.2283
  240ACOH    C210815   5.319   4.224   4.350  0.0069 -0.6797  0.4728
  240ACOH    O110816   5.345   4.175   4.241  0.5922  0.5355  0.7535
  240ACOH    C110817   5.429   4.274   4.432  0.1444  0.3567  0.2890
  240ACOH    H110818   5.466   4.368   4.392  1.0639  0.4139  1.2415
  240ACOH    H210819   5.507   4.199   4.447  0.1014  0.0626 -0.9065
  240ACOH    H310820   5.385   4.307   4.526  0.6910  5.1783 -1.0475
  241ACOH    H410821   1.487   0.552   1.607  1.8684  0.4773 -2.0888
  241ACOH    O210822   1.475   0.647   1.622  0.0764  0.0724 -0.7788
  241ACOH    C210823   1.593   0.714   1.603 -0.0966  0.2998  0.3950
  241ACOH    O110824   1.699   0.659   1.567 -0.2734  0.1329  0.5298
  241ACOH    C110825   1.561   0.858   1.605 -0.3709  0.7472  0.2354
  241ACOH    H110826   1.658   0.907   1.612  0.0940 -0.0105 -0.7952
  241ACOH    H210827   1.483   0.875   1.680  0.4199 -1.3942  1.5975
  241ACOH    H310828   1.522   0.886   1.508  1.4436 -0.8946 -0.9983
  242ACOH    H410829   6.576   2.733   3.248  1.5588  0.1440  1.4422
  242ACOH    O210830   6.507   2.756   3.313  0.0419 -0.2544  0.0015
  242ACOH    C210831   6.506   2.651   3.404  0.4769 -0.5181  0.1417
  242ACOH    O110832   6.584   2.560   3.409 -0.0220 -0.1002  0.8151
  242ACOH    C110833   6.406   2.674   3.511 -0.4224  0.1612 -0.2964
  242ACOH    H110834   6.304   2.677   3.474 -1.0244 -1.5809  1.1542
  242ACOH    H210835   6.431   2.765   3.567  0.0317  0.2720 -0.6716
  242ACOH    H310836   6.401   2.587   3.576 -1.0947 -0.0442 -0.6166
  243ACOH    H410837   7.939   3.940   4.746 -2.3590 -0.4996 -0.4228
  243ACOH    O210838   7.961   3.856   4.703  0.4660  0.2018 -0.4441
  243ACOH    C210839   7.941   3.887   4.573  0.6603 -0.4564  0.4559
  243ACOH    O110840   7.900   3.993   4.527 -0.3458 -0.7407  0.1106
  243ACOH    C110841   7.971   3.777   4.476  0.7730 -0.1303 -0.5693
  243ACOH    H110842   8.012   3.689   4.524 -1.7626 -1.8511 -1.4648
  243ACOH    H210843   8.049   3.826   4.417 -0.6456  1.7242 -0.9756
  243ACOH    H310844   7.890   3.755   4.406 -0.5147  2.0548  0.1715
  244ACOH    H410845   5.734   2.028   1.361 -0.0544  3.7575  1.3502
  244ACOH    O210846   5.811   2.044   1.304 -0.3747  0.3313 -0.1732
  244ACOH    C210847   5.750   2.076   1.185 -0.0196  0.0835 -0.0677
  244ACOH    O110848   5.630   2.067   1.162 -0.0979  0.0861 -0.0376
  244ACOH    C110849   5.843   2.119   1.083 -0.3242 -0.4175  0.0772
  244ACOH    H110850   5.816   2.220   1.052  0.0353  0.1553  1.5861
  244ACOH    H210851   5.837   2.055   0.995  1.2539  1.4931 -1.4752
  244ACOH    H310852   5.948   2.116   1.113 -0.4023 -1.0579  0.2962
  245ACOH    H410853   8.240   8.328   1.655  1.3222 -1.0927  0.0643
  245ACOH    O210854   8.175   8.259   1.679  0.1172  0.4175  1.2351
  245ACOH    C210855   8.106   8.316   1.777 -0.5207  0.0104 -0.2782
  245ACOH    O110856   8.131   8.415   1.846  0.4522 -0.0971 -0.4355
  245ACOH    C110857   7.988   8.230   1.810 -0.7016 -0.2275  0.3799
  245ACOH    H110858   7.897   8.289   1.804  0.1202  0.9494 -0.5667
  245ACOH    H210859   8.008   8.203   1.914  3.9790 -0.4338 -0.4611
  245ACOH    H310860   7.987   8.146   1.741 -1.2836  1.2974 -1.4867
  246ACOH    H410861   5.113   3.666   2.820  0.0109 -1.1433  0.9310
  246ACOH    O210862   5.190   3.718   2.849  0.0933 -0.2266 -0.8946
  246ACOH    C210863   5.145   3.842   2.875 -0.1769 -0.5701  0.8325
  246ACOH    O110864   5.030   3.875   2.894 -0.0292 -0.0954  0.0333
  246ACOH    C110865   5.255   3.943   2.886 -0.0382 -0.1392 -0.2750
  246ACOH    H110866   5.258   3.994   2.982 -0.2708 -0.1380 -0.2683
  246ACOH    H210867   5.257   3.999   2.792  1.4403  1.3234  0.6094
  246ACOH    H310868   5.347   3.884   2.886  1.6164  2.3772 -1.1101
  247ACOH    H410869   6.674   8.443   1.702  0.5727 -2.7497  1.5745
  247ACOH    O210870   6.753   8.435   1.645 -0.4041 -0.5412 -0.1792
  247ACOH    C210871   6.744   8.311   1.600 -0.0047  0.3431  0.2504
  247ACOH    O110872   6.647   8.240   1.600 -0.2301 -0.0514 -0.0754
  247ACOH    C110873   6.865   8.256   1.534  0.0588 -0.0422  0.4680
  247ACOH    H110874   6.895   8.307   1.442  1.8018 -1.3722  0.2908
  247ACOH    H210875   6.847   8.151   1.510 -0.8778 -0.0658  1.2457
  247ACOH    H310876   6.946   8.278   1.603 -0.6977  1.8867  0.7645
  248ACOH    H410877   5.884   5.632   1.419  0.0052 -0.7484  1.6434
  248ACOH    O210878   5.913   5.723   1.435 -0.2546 -0.4525  0.4678
  248ACOH    C210879   5.881   5.753   1.560  0.2178 -0.4265  0.1940
  248ACOH    O110880   5.817   5.688   1.638 -0.4825  1.0221  0.0801
  248ACOH    C110881   5.912   5.892   1.589  0.0922  1.1044  0.0077
  248ACOH    H110882   5.930   5.897   1.697 -0.2939  1.2394  0.0643
  248ACOH    H210883   5.822   5.952   1.581 -0.5105  0.3966  1.3673
  248ACOH    H310884   5.995   5.924   1.526  0.3664 -0.1472 -0.2915
  249ACOH    H410885   8.089   5.235   3.364  0.9463  1.2964 -2.1842
  249ACOH    O210886   8.002   5.238   3.321 -0.0709  0.2734 -0.2478
  249ACOH    C210887   7.995   5.365   3.277 -0.2590 -0.0176  0.4928
  249ACOH    O110888   8.083   5.453   3.275 -0.2124  0.0791  0.3642
  249ACOH    C110889   7.852   5.397   3.245  0.3287 -0.1395  0.7270
  249ACOH    H110890   7.795   5.306   3.264  0.9085 -0.6212  0.2044
  249ACOH    H210891   7.850   5.429   3.140  1.2121 -1.5387  0.2617
  249ACOH    H310892   7.827   5.472   3.320  2.6780  0.7906  0.6112
  250ACOH    H410893   5.944   9.046   1.233  1.3912 -0.2716 -1.3629
  250ACOH    O210894   5.878   8.998   1.179 -0.3590  0.0011  0.4791
  250ACOH    C210895   5.827   8.907   1.257 -0.4103 -0.6925  0.2961
  250ACOH    O110896   5.857   8.876   1.372 -0.0239  1.0125 -0.1244
  250ACOH    C110897   5.700   8.865   1.202 -0.0005 -0.7367 -0.5699
  250ACOH    H110898   5.663   8.781   1.259 -0.2647 -0.7884 -0.8162
  250ACOH    H210899   5.703   8.839   1.096  2.2729 -0.9648 -0.4914
  250ACOH    H310900   5.622   8.939   1.217  1.5628  0.7933  0.2966
  251ACOH    H410901   2.468   5.012   5.275  1.3258  0.1324 -2.1348
  251ACOH    O210902   2.540   5.047   5.331 -0.4805  0.3204  0.1239
  251ACOH    C210903   2.503   5.061   5.459  0.0133  0.2711  0.5392
  251ACOH    O110904   2.394   5.044   5.507  0.0720 -0.0534  0.7916
  251ACOH    C110905   2.615   5.101   5.547 -0.4882  0.0926 -0.4421
  251ACOH    H110906   2.708   5.087   5.491  0.7870  1.2040  1.3473
  251ACOH    H210907   2.606   5.041   5.637  2.9833  2.5683  1.6756
  251ACOH    H310908   2.610   5.208   5.565  1.3824  0.0964  0.1597
  252ACOH    H410909   9.192   5.932   3.983  0.9458 -0.6761  0.2576
  252ACOH    O210910   9.203   5.906   3.890 -0.3472 -0.2155 -0.0401
  252ACOH    C210911   9.310   5.820   3.881 -0.6583  0.2743  0.5280
  252ACOH    O110912   9.309   5.718   3.947  0.4667 -0.2709  0.3243
  252ACOH    C110913   9.385   5.829   3.760 -0.4756  0.1009 -0.1414
  252ACOH    H110914   9.332   5.785   3.675  1.4809  2.7684 -2.8331
  252ACOH    H210915   9.475   5.769   3.770  0.1950  0.3851 -3.7062
  252ACOH    H310916   9.417   5.932   3.741 -0.6556  0.1358 -0.2628
  253ACOH    H410917   1.875   4.247   6.717 -0.3771 -0.6655 -0.0559
  253ACOH    O210918   1.814   4.277   6.649 -0.2526 -0.5299 -0.1082
  253ACOH    C210919   1.699   4.307   6.717 -0.1163  0.5416  0.1039
  253ACOH    O110920   1.683   4.320   6.837  0.4114  0.5406 -0.3972
  253ACOH    C110921   1.588   4.335   6.624  0.2845  0.1087  0.8726
  253ACOH    H110922   1.623   4.379   6.531  1.8215 -0.0300  1.3664
  253ACOH    H210923   1.516   4.401   6.673 -0.1185  0.1566  0.2146
  253ACOH    H310924   1.539   4.239   6.608 -3.0543  1.2238  3.7578
  254ACOH    H410925   0.567   4.585   0.384 -1.5457  0.9008  1.4081
  254ACOH    O210926   0.604   4.664   0.341 -0.1900 -0.1762  0.5543
  254ACOH    C210927   0.671   4.714   0.450 -0.1339  0.7765  0.4000
  254ACOH    O110928   0.665   4.684   0.565  0.0590 -0.5350 -0.4471
  254ACOH    C110929   0.759   4.815   0.403  0.1947  0.3402 -0.9413
  254ACOH    H110930   0.847   4.817   0.467 -0.1082  1.6334 -0.5487
  254ACOH    H210931   0.700   4.907   0.405 -0.5971 -0.1675 -0.8893
  254ACOH    H310932   0.782   4.791   0.299  0.0033  0.2328 -0.9593
  255ACOH    H410933   2.173   5.994   2.173  1.5701  2.3546 -0.8325
  255ACOH    O210934   2.090   6.025   2.131  0.4706  0.4648 -0.1314
  255ACOH    C210935   2.003   5.931   2.155 -0.4436 -0.5056 -0.1818
  255ACOH    O110936   2.016   5.830   2.213  0.1411  0.1099 -0.2344
  255ACOH    C110937   1.865   5.971   2.098 -0.5346  0.0936  0.2101
  255ACOH    H110938   1.806   6.017   2.177 -1.0906 -0.5417  0.1650
  255ACOH    H210939   1.819   5.884   2.051  2.0821 -1.4282  0.3450
  255ACOH    H310940   1.881   6.039   2.014  0.1054  0.3575  0.5455
  256ACOH    H410941   4.848   6.637   3.086 -0.4049 -0.7494  1.1902
  256ACOH    O210942   4.929   6.650   3.138  0.1948  0.3471  0.0053
  256ACOH    C210943   5.007   6.738   3.077 -0.0119  0.3838 -0.5106
  256ACOH    O110944   4.998   6.773   2.965  0.1338  0.1871 -0.2419
  256ACOH    C110945   5.145   6.746   3.138  0.5164 -0.7560  0.1569
  256ACOH    H110946   5.174   6.845   3.173 -2.5738  1.5357 -3.5245
  256ACOH    H210947   5.222   6.728   3.063 -2.0160  0.9896 -2.9934
  256ACOH    H310948   5.150   6.673   3.219 -0.9520 -1.7266 -0.6119
  257ACOH    H410949   7.767   5.395   0.926 -3.2411 -1.4349 -1.9372
  257ACOH    O210950   7.754   5.357   1.014 -0.4302  0.2877 -0.7021
  257ACOH    C210951   7.844   5.413   1.097 -0.7228  0.5255  0.4715
  257ACOH    O110952   7.885   5.527   1.096 -0.4923 -0.0834 -0.3603
  257ACOH    C110953   7.872   5.333   1.221  0.0717 -0.8514  0.3695
  257ACOH    H110954   7.966   5.355   1.272  2.6597 -4.1027 -2.6964
  257ACOH    H210955   7.866   5.227   1.196  1.0127 -0.5535 -1.1900
  257ACOH    H310956   7.782   5.359   1.276 -0.9228 -0.7332 -1.2853
  258ACOH    H410957   5.149   3.717   3.603  0.3046 -0.5440  0.7483
  258ACOH    O210958   5.216   3.785   3.623  0.1134 -0.0779 -0.1495
  258ACOH    C210959   5.224   3.874   3.523 -0.2055  0.2772  0.2826
  258ACOH    O110960   5.149   3.875   3.430  0.0447  0.5845  0.4829
  258ACOH    C110961   5.349   3.953   3.535  0.0828  0.6252  0.1153
  258ACOH    H110962   5.336   4.061   3.526 -1.2734  0.4132 -0.6680
  258ACOH    H210963   5.409   3.924   3.449 -0.5529  0.3404 -0.2347
  258ACOH    H310964   5.395   3.934   3.632 -2.7523 -1.3505  1.1307
  259ACOH    H410965   7.985   7.460   1.006  1.3744  0.3715  0.7955
  259ACOH    O210966   8.056   7.443   0.942  0.4009 -0.2291 -0.1386
  259ACOH    C210967   8.099   7.319   0.975 -0.0147  1.1902 -0.3462
  259ACOH    O110968   8.058   7.247   1.064 -0.9153  0.3153 -0.5819
  259ACOH    C110969   8.216   7.292   0.893 -0.1712 -0.0667 -0.2900
  259ACOH    H110970   8.227   7.361   0.809 -1.3611  1.1157  0.5167
  259ACOH    H210971   8.200   7.191   0.853 -2.5751 -0.0797  0.5937
  259ACOH    H310972   8.303   7.273   0.954 -0.0745 -0.6704 -0.6103
  260ACOH    H410973   4.781   7.570   1.141 -1.3617 -2.8105  2.4783
  260ACOH    O210974   4.855   7.512   1.118  0.3274  0.2510 -0.2495
  260ACOH    C210975   4.804   7.395   1.148  0.1911  0.3813 -0.3810
  260ACOH    O110976   4.734   7.371   1.245 -0.1734 -0.2946 -0.3910
  260ACOH    C110977   4.854   7.278   1.072 -0.0387  0.4860 -0.0841
  260ACOH    H110978   4.949   7.244   1.114  0.1728  2.0914  0.7511
  260ACOH    H210979   4.869   7.297   0.966 -0.4839 -2.4258 -0.7302
  260ACOH    H310980   4.783   7.196   1.089  0.9169 -0.7113 -1.7249
  261ACOH    H410981   4.447   4.717   4.696  1.5070  0.7358  2.1000
  261ACOH    O210982   4.516   4.649   4.692  0.2244 -0.5027 -0.0928
  261ACOH    C210983   4.485   4.544   4.777 -0.4725  0.2804  0.3909
  261ACOH    O110984   4.393   4.554   4.851 -0.0327  0.4699 -0.1519
  261ACOH    C110985   4.594   4.443   4.786  0.1854 -0.1664  0.0056
  261ACOH    H110986   4.596   4.381   4.696 -1.2908 -2.1550  1.3076
  261ACOH    H210987   4.588   4.368   4.865 -1.2162 -1.8341 -1.6371
  261ACOH    H310988   4.690   4.494   4.796  1.1112 -1.8435 -0.2006
  262ACOH    H410989   5.187   8.211   1.180  0.0609 -1.3168 -1.7151
  262ACOH    O210990   5.127   8.254   1.117 -0.7289  0.3698  0.0972
  262ACOH    C210991   5.033   8.160   1.099  0.0756  0.0094 -0.3767
  262ACOH    O110992   5.000   8.070   1.179 -0.4416  0.4960 -0.7740
  262ACOH    C110993   4.935   8.210   1.002 -0.3360  0.9662 -0.4504
  262ACOH    H110994   4.922   8.126   0.933  2.1136  1.1117 -1.1571
  262ACOH    H210995   4.966   8.294   0.939 -1.2239  2.2163  0.7778
  262ACOH    H310996   4.840   8.233   1.050 -0.4577  0.8095 -0.6190
  263ACOH    H410997   7.340   4.126   1.679 -1.2879  1.2616  0.6646
  263ACOH    O210998   7.406   4.163   1.740  0.5351 -0.5892 -0.1256
  263ACOH    C210999   7.367   4.286   1.769 -1.1814 -0.0413  0.8956
  263ACOH    O111000   7.250   4.323   1.762  0.0591 -0.5610  0.2111
  263ACOH    C111001   7.470   4.356   1.843 -0.1784 -0.3487 -0.3809
  263ACOH    H111002   7.558   4.293   1.850  0.3103  0.3491 -0.2725
  263ACOH    H211003   7.432   4.373   1.944  1.6177  2.9567 -0.1758
  263ACOH    H311004   7.495   4.447   1.789 -1.4051  1.2909  1.7120
  264ACOH    H411005   7.439   9.755   0.687  2.7223  0.7467  0.3223
  264ACOH    O211006   7.458   9.798   0.602 -0.5449  0.2683 -0.7340
  264ACOH    C211007   7.360   9.880   0.567  0.1238  0.2864 -0.1524
  264ACOH    O111008   7.379   9.976   0.490 -0.2261 -0.1951 -0.1876
  264ACOH    C111009   7.241   9.874   0.657  0.1927  0.6553  0.1949
  264ACOH    H111010   7.147   9.882   0.602  0.2102 -1.0990 -0.1309
  264ACOH    H211011   7.255   9.958   0.724 -0.0739  0.3958  0.5760
  264ACOH    H311012   7.241   9.779   0.711 -0.9608 -0.7362 -2.1644
  265ACOH    H411013   6.190   7.157   2.759  0.3252 -1.0844 -0.7536
  265ACOH    O211014   6.156   7.125   2.845 -0.1504  0.6158 -0.3011
  265ACOH    C211015   6.016   7.137   2.841 -0.5310  0.6066 -0.2146
  265ACOH    O111016   5.947   7.136   2.737  0.1081 -0.5953  0.6550
  265ACOH    C111017   5.961   7.096   2.971  0.0323  0.1036 -1.4994
  265ACOH    H111018   5.997   7.167   3.045  0.9424 -0.3695 -1.4804
  265ACOH    H211019   5.982   6.991   2.993 -0.1126  0.0426 -1.6508
  265ACOH    H311020   5.852   7.101   2.970  0.0066  0.2793  0.1717
  266ACOH    H411021   5.503   5.449   2.519  0.5388 -1.4233 -1.1877
  266ACOH    O211022   5.585   5.501   2.511 -0.1003 -0.2235 -0.1561
  266ACOH    C211023   5.558   5.623   2.460 -0.4317 -0.3435 -0.5089
  266ACOH    O111024   5.447   5.671   2.451 -0.1036  0.3265 -0.0124
  266ACOH    C111025   5.672   5.708   2.424  0.2572 -0.2685  0.3367
  266ACOH    H111026   5.758   5.645   2.401  1.5937  0.8389  2.1675
  266ACOH    H211027   5.701   5.772   2.508 -0.8636  2.3542 -1.2080
  266ACOH    H311028   5.647   5.764   2.334 -0.4773 -2.9011 -1.1571
  267ACOH    H411029   5.272   3.420   3.323  2.1044  0.6845  1.5568
  267ACOH    O211030   5.277   3.487   3.254  0.1136  0.0840  0.7964
  267ACOH    C211031   5.146   3.524   3.242 -0.0962  0.1655 -0.3582
  267ACOH    O111032   5.056   3.471   3.312 -0.2714 -0.0196 -0.4149
  267ACOH    C111033   5.122   3.622   3.136  0.0803 -0.3163  0.4621
  267ACOH    H111034   5.020   3.612   3.099  0.0431  1.4243  0.0646
  267ACOH    H211035   5.205   3.606   3.067  0.6798 -0.6284  1.2497
  267ACOH    H311036   5.140   3.722   3.177  2.2907 -1.3329  2.0780
  268ACOH    H411037   6.972   2.450   3.441 -0.9096 -0.6520  0.7003
  268ACOH    O211038   6.896   2.505   3.466 -0.1285  0.5697  0.4421
  268ACOH    C211039   6.913   2.523   3.592 -0.7133  0.3910 -0.0837
  268ACOH    O111040   7.009   2.494   3.661 -0.2553 -0.7947 -0.9029
  268ACOH    C111041   6.790   2.581   3.654  0.1372  0.3937  0.2318
  268ACOH    H111042   6.722   2.500   3.680  1.2846 -0.5347  0.3540
  268ACOH    H211043   6.727   2.647   3.594  0.0215 -0.9267 -1.1277
  268ACOH    H311044   6.824   2.639   3.740  2.5405  0.6579 -0.8746
  269ACOH    H411045   1.632   0.394   1.281  0.8056  0.5106  1.8604
  269ACOH    O211046   1.684   0.458   1.229  0.6021 -1.1314 -0.4421
  269ACOH    C211047   1.604   0.509   1.133 -0.5954  0.1822 -0.0154
  269ACOH    O111048   1.489   0.482   1.118 -0.6398  0.3765 -0.4543
  269ACOH    C111049   1.677   0.612   1.061 -0.1056 -0.6127  0.6794
  269ACOH    H111050   1.768   0.563   1.024  0.1499 -0.5386  1.2086
  269ACOH    H211051   1.698   0.699   1.123 -0.8989 -0.8251  1.2505
  269ACOH    H311052   1.614   0.649   0.980  1.2001 -1.1593 -0.6274
  270ACOH    H411053   8.050   5.905   0.165  0.0462  0.5221  1.8011
  270ACOH    O211054   7.967   5.862   0.192 -0.1255 -0.2521  0.1316
  270ACOH    C211055   7.938   5.889   0.320 -0.2765 -0.4426 -0.3701
  270ACOH    O111056   7.984   5.986   0.374 -0.2097 -0.5758 -0.3526
  270ACOH    C111057   7.808   5.833   0.357 -0.0300 -0.2279  0.2626
  270ACOH    H111058   7.733   5.853   0.281 -0.1019  0.4173  0.4955
  270ACOH    H211059   7.787   5.859   0.461 -0.1641  0.0418  0.1693
  270ACOH    H311060   7.821   5.725   0.356 -1.5693 -0.4585  1.5659
  271ACOH    H411061   1.263   8.034   6.455 -2.4188 -0.4128 -3.5241
  271ACOH    O211062   1.338   8.039   6.394  0.3854  0.2651 -0.1241
  271ACOH    C211063   1.385   8.163   6.416 -0.3692  0.3394  0.1791
  271ACOH    O111064   1.359   8.242   6.507 -0.4621  0.5514  0.1520
  271ACOH    C111065   1.489   8.195   6.315  0.2034  0.0562  0.1832
  271ACOH    H111066   1.585   8.148   6.332  0.9837  1.6496  0.2438
  271ACOH    H211067   1.508   8.302   6.304 -0.9997  0.3207  0.5675
  271ACOH    H311068   1.459   8.159   6.217  0.4266  0.8639 -0.1786
  272ACOH    H411069   9.301   3.368   5.187  0.3731  0.0599  0.1869
  272ACOH    O211070   9.326   3.370   5.281  0.0703 -0.3818  0.2775
  272ACOH    C211071   9.408   3.265   5.300  0.3273 -0.9222  0.2468
  272ACOH    O111072   9.452   3.204   5.207 -0.0073  0.2849 -0.9713
  272ACOH    C111073   9.441   3.248   5.449 -0.0971 -0.5566  0.9764
  272ACOH    H111074   9.353   3.255   5.512  0.3450  1.6032  1.3776
  272ACOH    H211075   9.516   3.324   5.468 -1.3175  0.1874  2.9026
  272ACOH    H311076   9.478   3.145   5.454  4.3341  0.5663 -3.8122
  273ACOH    H411077   7.889   1.272   2.035  2.2250 -0.7651 -1.9281
  273ACOH    O211078   7.851   1.339   1.976  0.3129 -0.0878  0.0222
  273ACOH    C211079   7.949   1.435   1.974  0.1937 -0.2935  0.1717
  273ACOH    O111080   8.025   1.456   2.064  0.0661  0.2790 -0.4667
  273ACOH    C111081   7.946   1.514   1.846  0.0504 -0.2027  0.4184
  273ACOH    H111082   7.843   1.549   1.836 -0.1930 -0.6195  1.3429
  273ACOH    H211083   7.973   1.448   1.763 -0.4555  0.9816 -0.7028
  273ACOH    H311084   8.022   1.592   1.852 -0.5654  0.4882 -0.5728
  274ACOH    H411085   8.125   3.860   2.880 -0.9582  0.8316  1.0164
  274ACOH    O211086   8.098   3.798   2.950  0.1719 -0.1697  0.5809
  274ACOH    C211087   8.005   3.712   2.909 -0.2318  0.0586  0.2049
  274ACOH    O111088   8.007   3.653   2.801 -0.2675 -0.1883 -0.0085
  274ACOH    C111089   7.926   3.666   3.028  0.1560 -1.2612  0.0799
  274ACOH    H111090   7.823   3.662   2.992  0.9856  0.3007 -2.5856
  274ACOH    H211091   7.929   3.736   3.111 -1.0706 -0.7109 -0.3301
  274ACOH    H311092   7.947   3.564   3.061  1.0923 -1.9905 -2.6546
  275ACOH    H411093   4.323   8.885   0.865 -0.2820  0.1179 -0.1511
  275ACOH    O211094   4.396   8.944   0.890  0.0108 -0.2529 -0.1356
  275ACOH    C211095   4.343   9.066   0.908 -0.0554  1.0349 -0.7108
  275ACOH    O111096   4.227   9.095   0.890 -0.6958  0.6735 -0.4398
  275ACOH    C111097   4.428   9.162   0.974 -0.5158  0.7252 -0.5653
  275ACOH    H111098   4.473   9.110   1.059 -0.9365  0.4950 -0.4840
  275ACOH    H211099   4.378   9.254   1.004  0.1156  1.1056 -0.6689
  275ACOH    H311100   4.516   9.194   0.918 -0.2470 -1.8280 -1.6774
  276ACOH    H411101   3.905   5.282   4.523  0.3544 -0.1536  1.7101
  276ACOH    O211102   3.905   5.378   4.539  0.3087  0.0518  0.5130
  276ACOH    C211103   3.862   5.403   4.664 -0.3009 -0.2742  0.5114
  276ACOH    O111104   3.808   5.332   4.746 -0.8148  0.2321  0.0309
  276ACOH    C111105   3.895   5.545   4.703  0.0922  0.4443 -0.4073
  276ACOH    H111106   3.821   5.614   4.663 -0.6713 -0.2175 -0.1429
  276ACOH    H211107   3.995   5.577   4.670  0.8439 -1.1380  0.2913
  276ACOH    H311108   3.886   5.556   4.811 -0.6114 -2.8894 -0.0879
  277ACOH    H411109   9.676   8.978   3.078 -1.8776 -1.4014  0.3712
  277ACOH    O211110   9.710   8.895   3.115  0.3649 -0.3582  0.7131
  277ACOH    C211111   9.631   8.792   3.088 -0.0694 -0.6111 -0.3442
  277ACOH    O111112   9.558   8.786   2.987 -0.5993  0.1508 -0.8804
  277ACOH    C111113   9.635   8.688   3.183 -0.2325 -0.1205  0.4271
  277ACOH    H111114   9.724   8.682   3.247 -0.1352  0.5328  0.3547
  277ACOH    H211115   9.627   8.588   3.140  3.2027  0.7901 -2.5762
  277ACOH    H311116   9.551   8.705   3.250 -1.7959  0.6992 -1.6965
  278ACOH    H411117   2.700   0.793   1.643 -1.8936 -0.1721 -0.8296
  278ACOH    O211118   2.682   0.763   1.734 -0.1810  0.1853 -0.3566
  278ACOH    C211119   2.603   0.652   1.718 -0.1524  0.2491 -0.5649
  278ACOH    O111120   2.589   0.591   1.615  0.2726 -0.3779  0.0676
  278ACOH    C111121   2.519   0.626   1.840  0.3137 -0.5833 -0.1326
  278ACOH    H111122   2.413   0.646   1.824  0.4826  1.1172  0.7419
  278ACOH    H211123   2.548   0.688   1.925  1.2608 -1.0505 -0.1113
  278ACOH    H311124   2.528   0.522   1.869  2.4880 -0.8359 -1.5996
  279ACOH    H411125   6.844   2.207   3.306  2.3365 -1.5173  4.3585
  279ACOH    O211126   6.759   2.209   3.353 -0.5218 -0.1528 -0.5362
  279ACOH    C211127   6.804   2.206   3.481  0.5186 -0.6129 -0.1866
  279ACOH    O111128   6.915   2.179   3.517  0.2787 -0.2740 -0.3921
  279ACOH    C111129   6.690   2.222   3.574  0.1058  0.0640 -0.0252
  279ACOH    H111130   6.720   2.274   3.665 -1.4299 -0.8343  1.0205
  279ACOH    H211131   6.642   2.129   3.604 -0.0162 -0.2199 -1.0778
  279ACOH    H311132   6.618   2.285   3.521  0.7810  2.2705  1.6074
  280ACOH    H411133   5.427   4.723   1.398 -1.5419  3.0419  1.3487
  280ACOH    O211134   5.517   4.738   1.432 -0.6125  0.3148  0.2565
  280ACOH    C211135   5.506   4.753   1.561 -0.1786 -0.0733 -0.6590
  280ACOH    O111136   5.411   4.723   1.631 -0.2436 -0.2764  0.5048
  280ACOH    C111137   5.624   4.831   1.620  1.1709  0.4193  0.1787
  280ACOH    H111138   5.586   4.931   1.640 -1.2694 -0.2766 -0.7643
  280ACOH    H211139   5.699   4.823   1.541  1.5766 -0.7209  0.6628
  280ACOH    H311140   5.658   4.779   1.710 -0.0177 -1.0621 -0.2046
  281ACOH    H411141   7.528   3.100   2.856  0.2195  1.1404 -0.5961
  281ACOH    O211142   7.475   3.097   2.775  0.0722 -0.0245 -0.4593
  281ACOH    C211143   7.391   2.999   2.791  0.6611 -0.1440 -0.0041
  281ACOH    O111144   7.379   2.942   2.899 -0.6418  0.6697  0.1213
  281ACOH    C111145   7.319   2.964   2.663 -0.2881 -1.0168 -0.6485
  281ACOH    H111146   7.243   2.888   2.679  0.6864 -1.6102  1.3197
  281ACOH    H211147   7.396   2.927   2.595  2.4800 -1.0517  2.3417
  281ACOH    H311148   7.270   3.054   2.627  0.9500  0.0243  0.2291
  282ACOH    H411149   1.823   6.827   4.635 -0.9181 -0.5899  0.5739
  282ACOH    O211150   1.902   6.796   4.683 -0.1250 -0.2449 -0.4806
  282ACOH    C211151   1.857   6.773   4.804 -0.3967  0.0513  0.0915
  282ACOH    O111152   1.746   6.791   4.851  0.7828 -0.6984 -0.1190
  282ACOH    C111153   1.970   6.713   4.883 -0.1281 -0.5200 -0.6337
  282ACOH    H111154   1.984   6.610   4.853  1.3802 -0.2120 -1.0346
  282ACOH    H211155   1.943   6.718   4.988 -0.9068 -1.7240 -0.7724
  282ACOH    H311156   2.059   6.772   4.862 -0.1552  0.2494  1.3312
  283ACOH    H411157   3.855   5.941   5.569  0.9821  0.2757  0.5305
  283ACOH    O211158   3.861   5.917   5.663  0.8162 -0.3881  0.3764
  283ACOH    C211159   3.943   5.813   5.665 -0.3561  0.0637  1.3233
  283ACOH    O111160   3.988   5.755   5.568  0.4134  0.0325 -0.7463
  283ACOH    C111161   3.967   5.778   5.806 -0.2635 -0.2772  0.2141
  283ACOH    H111162   4.011   5.868   5.849 -2.5478  0.8955  0.1732
  283ACOH    H211163   4.040   5.697   5.811 -0.8555 -0.7799  1.0331
  283ACOH    H311164   3.880   5.739   5.859  0.6178 -1.0336  1.1193
  284ACOH    H411165   5.881   4.544   6.346 -0.0849 -1.2057 -0.6224
  284ACOH    O211166   5.805   4.564   6.289 -0.1119 -0.1620 -0.2178
  284ACOH    C211167   5.727   4.665   6.335 -0.4077 -0.3949 -0.5685
  284ACOH    O111168   5.709   4.692   6.453 -0.0249  0.9037  0.1040
  284ACOH    C111169   5.624   4.681   6.228  0.8652 -0.1098  0.1740
  284ACOH    H111170   5.550   4.601   6.231  2.3009 -1.4160  1.7026
  284ACOH    H211171   5.668   4.689   6.128 -0.9055 -0.5288 -0.6659
  284ACOH    H311172   5.566   4.773   6.231  2.5098  0.9717 -0.5971
  285ACOH    H411173   8.725   7.113   6.176 -0.2012  0.3811  0.6701
  285ACOH    O211174   8.693   7.205   6.174 -0.3031  0.3330  0.1652
  285ACOH    C211175   8.709   7.246   6.048  0.0231  0.2856 -0.7275
  285ACOH    O111176   8.712   7.176   5.950 -0.0857 -0.1921  0.3438
  285ACOH    C111177   8.698   7.392   6.040  0.1214  0.0433  0.2180
  285ACOH    H111178   8.747   7.432   6.129  3.2138 -0.5458 -1.1737
  285ACOH    H211179   8.589   7.404   6.038  0.0870 -0.3750 -0.7015
  285ACOH    H311180   8.742   7.427   5.947 -2.3498 -1.4676 -1.5829
  286ACOH    H411181   1.111   9.785   1.015 -2.0307 -2.5196  2.5390
  286ACOH    O211182   1.174   9.718   0.984 -0.6623 -0.2575  0.2177
  286ACOH    C211183   1.289   9.748   1.044  0.3520  0.4752 -0.2292
  286ACOH    O111184   1.326   9.849   1.095  0.4037 -0.2660 -0.8216
  286ACOH    C111185   1.387   9.639   1.019  0.3064 -0.4637 -0.1121
  286ACOH    H111186   1.489   9.676   1.026  1.2331 -2.4278 -2.4745
  286ACOH    H211187   1.372   9.592   0.922  1.4909  2.2818 -1.6798
  286ACOH    H311188   1.372   9.563   1.096 -0.9898 -0.1107  0.0013
  287ACOH    H411189   4.618   6.498   3.117  0.6271 -0.6299  0.3766
  287ACOH    O211190   4.581   6.469   3.202 -0.4212  0.0964  0.1838
  287ACOH    C211191   4.585   6.576   3.278 -0.4500 -0.0533 -1.0577
  287ACOH    O111192   4.624   6.692   3.257  0.0779 -0.4234  0.3453
  287ACOH    C111193   4.504   6.549   3.401 -0.0246 -0.6842  0.7089
  287ACOH    H111194   4.551   6.594   3.489  0.2626  1.9240 -0.7173
  287ACOH    H211195   4.485   6.442   3.408 -2.0058 -0.3703  0.3302
  287ACOH    H311196   4.406   6.592   3.383 -0.6720 -1.2280  2.8494
  288ACOH    H411197   5.545   3.379   0.408 -0.1642 -0.2545  0.0358
  288ACOH    O211198   5.590   3.311   0.460  0.6533  0.0100 -0.3245
  288ACOH    C211199   5.716   3.331   0.419  0.7107  0.0549  1.2362
  288ACOH    O111200   5.766   3.407   0.338  0.1487 -0.1179  0.0973
  288ACOH    C111201   5.799   3.230   0.482 -0.2487 -0.5367 -0.9324
  288ACOH    H111202   5.741   3.138   0.473 -1.8136  0.3470 -0.1050
  288ACOH    H211203   5.804   3.255   0.588 -0.3468 -1.1928 -0.7715
  288ACOH    H311204   5.900   3.224   0.441  0.9745  1.0384  1.6906
  289ACOH    H411205   3.031   5.908   1.587 -0.6620 -1.4729  0.5887
  289ACOH    O211206   3.119   5.874   1.611  0.1241  0.5008  0.5468
  289ACOH    C211207   3.204   5.980   1.621  0.6634  1.2254  0.6309
  289ACOH    O111208   3.181   6.100   1.613  0.5065 -0.2324  0.6495
  289ACOH    C111209   3.340   5.928   1.605 -0.0898 -0.4026 -0.3493
  289ACOH    H111210   3.360   5.872   1.514 -3.5583 -1.5670 -0.4701
  289ACOH    H211211   3.362   5.863   1.690 -0.7782 -0.9401 -0.5697
  289ACOH    H311212   3.413   6.008   1.612 -0.0566 -0.4507 -0.1388
  290ACOH    H411213   4.733   7.717   5.233 -0.1119  0.4849 -1.0234
  290ACOH    O211214   4.704   7.624   5.244 -0.0068  0.6818  0.9929
  290ACOH    C211215   4.742   7.592   5.368  0.3484 -0.1922  0.1978
  290ACOH    O111216   4.800   7.661   5.447 -0.0362 -0.3445 -0.4292
  290ACOH    C111217   4.708   7.448   5.398 -0.7239 -0.4011  0.5406
  290ACOH    H111218   4.662   7.404   5.309 -1.0803  4.2008 -1.6643
  290ACOH    H211219   4.639   7.445   5.482 -0.0558 -2.4508  1.0506
  290ACOH    H311220   4.799   7.389   5.415 -1.0399 -0.9736  0.2581
  291ACOH    H411221   8.196   6.093   2.769  0.6279  1.5424 -0.7463
  291ACOH    O211222   8.280   6.046   2.757 -0.2253 -0.2887  0.2412
  291ACOH    C211223   8.366   6.141   2.799  1.0059  0.3169 -0.1207
  291ACOH    O111224   8.346   6.263   2.804  0.1254 -0.3328 -0.1651
  291ACOH    C111225   8.499   6.083   2.786 -0.1646 -0.6929 -0.3238
  291ACOH    H111226   8.549   6.112   2.694 -1.3317  2.1456 -0.1181
  291ACOH    H211227   8.499   5.975   2.794  1.8435 -0.6129  1.4301
  291ACOH    H311228   8.564   6.119   2.866  0.4593  1.3438 -1.6900
  292ACOH    H411229   5.543   2.139   2.017 -1.8709 -0.4801 -1.1577
  292ACOH    O211230   5.504   2.185   2.094 -0.6823 -0.9053 -0.2857
  292ACOH    C211231   5.413   2.265   2.041  0.4998  0.4192 -0.0641
  292ACOH    O111232   5.424   2.309   1.933  0.4347 -0.1412  0.2622
  292ACOH    C111233   5.347   2.348   2.147 -0.0915  0.7213 -0.1332
  292ACOH    H111234   5.406   2.419   2.205  0.1790 -0.5662  1.2015
  292ACOH    H211235   5.299   2.280   2.217  1.9678 -0.1388  0.4769
  292ACOH    H311236   5.278   2.417   2.098 -0.6462 -1.2232 -2.1878
  293ACOH    H411237   7.989   4.435   2.693  0.7497  0.8168  0.9826
  293ACOH    O211238   7.989   4.496   2.618  0.8373 -0.3566  0.0078
  293ACOH    C211239   7.941   4.428   2.510  0.3006 -0.1705  0.0325
  293ACOH    O111240   7.938   4.308   2.504 -0.1185  0.3603 -0.8243
  293ACOH    C111241   7.896   4.522   2.399 -0.4526  0.1259  0.0053
  293ACOH    H111242   7.862   4.459   2.317 -0.6002 -0.4407  0.4989
  293ACOH    H211243   7.985   4.575   2.366 -0.1316 -0.5403 -0.2034
  293ACOH    H311244   7.817   4.589   2.435  2.1961  1.7035  3.1825
  294ACOH    H411245   5.763   3.739   0.929 -1.0126 -0.5581 -1.4384
  294ACOH    O211246   5.845   3.692   0.907 -0.4077 -0.2766  0.1260
  294ACOH    C211247   5.807   3.580   0.840  0.7462 -0.2523  0.1720
  294ACOH    O111248   5.696   3.544   0.812 -0.2027  0.1650 -0.3676
  294ACOH    C111249   5.921   3.489   0.806  0.3968  0.5032  0.4400
  294ACOH    H111250   5.908   3.392   0.854  1.2167 -0.2903 -0.9264
  294ACOH    H211251   6.013   3.532   0.846  0.8164 -1.6916  1.9276
  294ACOH    H311252   5.914   3.478   0.698 -1.3238  0.6285  0.5329
  295ACOH    H411253   4.704   6.635   1.653  0.9988 -1.5421 -2.4917
  295ACOH    O211254   4.755   6.579   1.714  0.0288  0.2429  0.0274
  295ACOH    C211255   4.758   6.454   1.662 -0.5562 -0.8872  0.2972
  295ACOH    O111256   4.675   6.428   1.579  0.2480 -0.0926 -0.2331
  295ACOH    C111257   4.825   6.356   1.756 -0.3210  0.0544 -0.6857
  295ACOH    H111258   4.913   6.408   1.793 -0.9532  1.3387 -0.9846
  295ACOH    H211259   4.847   6.257   1.715  0.2777 -1.2545  2.5816
  295ACOH    H311260   4.760   6.334   1.841  1.5602  0.4175  0.9016
  296ACOH    H411261   7.225   4.442   1.428 -2.1771 -1.1744 -1.8921
  296ACOH    O211262   7.160   4.466   1.497 -0.1093  0.0367 -0.3035
  296ACOH    C211263   7.080   4.360   1.516  0.2401  0.0389 -0.1395
  296ACOH    O111264   7.091   4.251   1.461  0.0382  0.0947  0.2157
  296ACOH    C111265   6.977   4.371   1.620 -0.2676 -0.3877  0.2201
  296ACOH    H111266   6.879   4.363   1.574 -0.8229 -0.7434  1.4385
  296ACOH    H211267   6.975   4.458   1.686  0.3773 -1.2703  1.4184
  296ACOH    H311268   6.994   4.289   1.691 -0.4267  0.2573  1.0127
  297ACOH    H411269   5.439   6.963   3.301 -2.2568  0.1459 -1.0590
  297ACOH    O211270   5.455   6.894   3.234 -0.7572 -0.8620  0.2877
  297ACOH    C211271   5.461   6.967   3.120 -0.4460 -0.4349 -0.1896
  297ACOH    O111272   5.408   7.078   3.095 -0.4213  0.1041  0.0263
  297ACOH    C111273   5.515   6.881   3.014  0.9015 -0.0259  0.4368
  297ACOH    H111274   5.533   6.776   3.035  0.4229 -0.3543 -0.7224
  297ACOH    H211275   5.608   6.924   2.977  0.7834 -0.9069 -0.9461
  297ACOH    H311276   5.450   6.888   2.926 -0.4646  1.7878  1.5561
  298ACOH    H411277   5.026   4.637   2.024 -0.1501 -0.5014  0.2828
  298ACOH    O211278   4.944   4.597   1.989 -0.0939 -0.1416 -0.2735
  298ACOH    C211279   4.869   4.547   2.088 -0.0752  1.0216  0.0715
  298ACOH    O111280   4.877   4.598   2.200  0.0423 -0.3677 -0.0489
  298ACOH    C111281   4.752   4.471   2.037 -0.5547 -0.8829  0.2668
  298ACOH    H111282   4.770   4.458   1.930  0.4195  1.9972  0.0433
  298ACOH    H211283   4.650   4.505   2.055 -1.2878 -3.5632  1.4286
  298ACOH    H311284   4.760   4.373   2.084  1.4850 -0.2227  1.3407
  299ACOH    H411285   4.745   9.363   0.865 -0.1844  0.0631 -0.0426
  299ACOH    O211286   4.816   9.327   0.811  0.3534 -0.2200  0.8359
  299ACOH    C211287   4.764   9.334   0.681  0.5079  0.1097  0.3663
  299ACOH    O111288   4.658   9.388   0.655  0.3240  0.0215 -0.6408
  299ACOH    C111289   4.831   9.244   0.582  0.0797 -0.1652  0.1413
  299ACOH    H111290   4.755   9.218   0.509  0.9435  2.5863 -1.8038
  299ACOH    H211291   4.869   9.159   0.639  0.1155  0.3576  0.9071
  299ACOH    H311292   4.915   9.292   0.532  1.8695 -0.4750  2.7473
  300ACOH    H411293   5.103   4.264   3.055  0.3870  0.2052  0.0486
  300ACOH    O211294   5.172   4.294   3.116 -0.0088 -0.3516  0.7729
  300ACOH    C211295   5.204   4.416   3.064 -0.1928 -0.5477  0.0162
  300ACOH    O111296   5.168   4.461   2.953 -0.2080 -0.3164  0.2733
  300ACOH    C111297   5.285   4.496   3.160 -0.7180 -0.2437 -0.4584
  300ACOH    H111298   5.376   4.528   3.110 -1.9394  1.1544 -1.8498
  300ACOH    H211299   5.307   4.437   3.249  1.8976  1.8317  0.3486
  300ACOH    H311300   5.225   4.583   3.184  0.8696  0.4063  1.2434
  301ACOH    H411301   7.801   2.009   6.326 -2.3071  1.4722  1.1469
  301ACOH    O211302   7.817   2.088   6.272 -0.1349  0.4313  0.1744
  301ACOH    C211303   7.911   2.164   6.337  0.2034  0.2240  0.6435
  301ACOH    O111304   7.975   2.128   6.436  0.1134  0.6621 -0.0261
  301ACOH    C111305   7.942   2.288   6.258  0.0586  0.5233 -0.4879
  301ACOH    H111306   7.856   2.355   6.260 -0.1422  0.2424  1.6979
  301ACOH    H211307   7.957   2.249   6.158 -2.1787 -2.6119  0.3306
  301ACOH    H311308   8.031   2.338   6.296  0.5872  0.4226 -1.5955
  302ACOH    H411309   9.872   1.734   3.013 -0.1630  0.3145  0.3558
  302ACOH    O211310   9.909   1.687   2.936  0.3787  1.1073  0.1362
  302ACOH    C211311  10.031   1.744   2.901 -0.6066  0.0686 -0.3943
  302ACOH    O111312  10.078   1.839   2.956  0.1837 -0.4335 -0.0869
  302ACOH    C111313  10.095   1.657   2.799 -0.1211 -0.0187  0.0403
  302ACOH    H111314  10.194   1.698   2.777  1.0016 -2.4105  0.4005
  302ACOH    H211315  10.035   1.658   2.708  0.5009 -1.6680 -0.4045
  302ACOH    H311316  10.098   1.554   2.835  1.7319 -0.6391 -1.7809
  303ACOH    H411317   0.203   3.186   4.872  1.8293 -2.6096 -0.9572
  303ACOH    O211318   0.280   3.243   4.854  0.3975 -0.3011  0.0199
  303ACOH    C211319   0.339   3.178   4.748 -0.5937  0.3996  0.0708
  303ACOH    O111320   0.319   3.059   4.735  0.1121  0.0569  0.2515
  303ACOH    C111321   0.459   3.248   4.690 -1.0474 -0.3008 -0.0776
  303ACOH    H111322   0.533   3.254   4.770  0.7369  0.0123 -1.7191
  303ACOH    H211323   0.425   3.347   4.661 -0.8294 -0.6234 -1.4283
  303ACOH    H311324   0.500   3.188   4.609 -0.5569  0.3621 -0.3251
  304ACOH    H411325   5.185   4.736   4.253  2.6451 -0.1330 -0.2718
  304ACOH    O211326   5.178   4.670   4.182  0.2463 -0.6800  0.4321
  304ACOH    C211327   5.309   4.634   4.155  0.2329  0.4197 -0.3422
  304ACOH    O111328   5.390   4.633   4.246 -0.1929 -0.1871  0.2372
  304ACOH    C111329   5.326   4.544   4.038  0.2651  0.3273 -0.3457
  304ACOH    H111330   5.407   4.572   3.970  2.0203 -3.9965 -0.1646
  304ACOH    H211331   5.234   4.532   3.981 -0.1511  0.7550  0.2273
  304ACOH    H311332   5.350   4.443   4.072  0.3868  1.0115  1.6566
  305ACOH    H411333   9.706   2.271   3.727  0.6795 -0.2484 -0.5166
  305ACOH    O211334   9.733   2.178   3.720 -0.1976 -0.5807  0.4169
  305ACOH    C211335   9.828   2.155   3.806 -0.2380  0.4586  0.7450
  305ACOH    O111336   9.909   2.242   3.842  0.4669 -0.0006 -0.2952
  305ACOH    C111337   9.854   2.010   3.840 -0.1024  0.5779  0.7312
  305ACOH    H111338   9.957   1.980   3.819  0.1305  1.0661  1.1531
  305ACOH    H211339   9.791   1.939   3.787 -1.1740  2.8171 -1.0998
  305ACOH    H311340   9.838   2.005   3.948  2.1697 -0.2765  1.0649
  306ACOH    H411341   7.784   3.730   3.673 -0.1664  0.2809 -0.4494
  306ACOH    O211342   7.711   3.684   3.718  0.0866  0.5963  0.2915
  306ACOH    C211343   7.776   3.572   3.769  0.0215 -0.5414  0.1993
  306ACOH    O111344   7.881   3.565   3.823 -0.0505 -0.6434  0.9552
  306ACOH    C111345   7.677   3.470   3.799 -0.5135  0.2417 -0.7310
  306ACOH    H111346   7.589   3.519   3.842 -0.1746 -0.0404  0.2982
  306ACOH    H211347   7.716   3.395   3.867  0.1069  1.6231  0.4747
  306ACOH    H311348   7.646   3.431   3.702 -2.0627  1.1824 -0.6279
  307ACOH    H411349   7.891   7.546   1.667  0.3851 -1.4727  0.7656
  307ACOH    O211350   7.811   7.513   1.712  0.0241 -0.5630  0.8083
  307ACOH    C211351   7.823   7.535   1.845  0.7047 -0.0011  0.3994
  307ACOH    O111352   7.888   7.619   1.906  0.0615 -0.5370  0.2806
  307ACOH    C111353   7.709   7.463   1.914  0.0560  0.5086 -0.4656
  307ACOH    H111354   7.654   7.535   1.975 -0.2820  0.9333 -1.2603
  307ACOH    H211355   7.764   7.389   1.973  1.7859  2.0642 -0.0908
  307ACOH    H311356   7.642   7.411   1.845 -0.9053  0.6706  0.3387
  308ACOH    H411357   4.965   5.156   3.369  0.0976 -1.7003  1.0546
  308ACOH    O211358   5.046   5.177   3.419  0.2053 -0.1651  0.2750
  308ACOH    C211359   5.151   5.155   3.336  0.1228 -0.3030 -0.5685
  308ACOH    O111360   5.156   5.060   3.257  0.1615 -0.2102  0.1863
  308ACOH    C111361   5.271   5.225   3.382  0.4055 -0.0853 -0.9296
  308ACOH    H111362   5.354   5.213   3.313  0.0443 -0.1226 -1.3588
  308ACOH    H211363   5.292   5.197   3.485 -2.9738 -2.8998 -0.9197
  308ACOH    H311364   5.247   5.331   3.388 -1.7616 -0.6546  1.3091
  309ACOH    H411365   7.260   7.630   5.424  0.1027 -0.2019 -0.2923
  309ACOH    O211366   7.205   7.583   5.489  0.1061  0.2040  0.0088
  309ACOH    C211367   7.078   7.582   5.453 -0.8089  0.0526 -0.9099
  309ACOH    O111368   7.031   7.650   5.362  0.2092 -0.7257 -0.1055
  309ACOH    C111369   6.999   7.496   5.547  0.0913  0.2704  0.0274
  309ACOH    H111370   7.006   7.389   5.526 -0.9090 -0.1865  1.9097
  309ACOH    H211371   6.892   7.515   5.537  0.0807 -0.0550 -0.5592
  309ACOH    H311372   7.022   7.528   5.648  0.3901 -3.2819  1.1459
  310ACOH    H411373   9.558   9.395   0.725  1.2313  0.0585  0.4795
  310ACOH    O211374   9.621   9.380   0.653  0.3363 -0.2496 -0.2572
  310ACOH    C211375   9.567   9.448   0.551  0.0968  0.2964 -0.4434
  310ACOH    O111376   9.495   9.549   0.560  0.3703  0.2522  0.0981
  310ACOH    C111377   9.623   9.398   0.424 -0.4162 -0.1314 -0.3569
  310ACOH    H111378   9.585   9.299   0.402 -0.2566  0.4911 -3.7736
  310ACOH    H211379   9.732   9.397   0.429 -0.3974 -0.3705 -0.7995
  310ACOH    H311380   9.591   9.460   0.340  0.1023 -0.1526 -0.5750
  311ACOH    H411381   6.341   1.854   2.403  1.1855 -0.1107  1.5188
  311ACOH    O211382   6.311   1.946   2.412  0.1770 -0.3193  0.5037
  311ACOH    C211383   6.192   1.934   2.465 -0.5496 -0.6181  0.5054
  311ACOH    O111384   6.121   1.831   2.472  0.0314  0.7066  0.1368
  311ACOH    C111385   6.135   2.072   2.492  0.1238 -0.6224  0.2838
  311ACOH    H111386   6.114   2.113   2.393 -1.8882 -3.4666 -0.5281
  311ACOH    H211387   6.211   2.125   2.550  0.1970  1.1623 -1.3698
  311ACOH    H311388   6.044   2.063   2.552 -0.8024  3.3942 -0.3610
  312ACOH    H411389   8.261   1.714   1.633 -0.9460  1.0506  0.2866
  312ACOH    O211390   8.261   1.716   1.731 -0.4135 -0.0566  0.3105
  312ACOH    C211391   8.302   1.591   1.772 -0.2203 -0.3002  0.9711
  312ACOH    O111392   8.310   1.491   1.711 -0.1384 -0.0284  0.2173
  312ACOH    C111393   8.316   1.590   1.919 -0.0479 -0.2509 -0.0941
  312ACOH    H111394   8.322   1.486   1.952  3.4890 -1.0303 -2.9290
  312ACOH    H211395   8.227   1.633   1.964 -0.1459 -1.1128  0.5671
  312ACOH    H311396   8.399   1.650   1.955 -1.6799  1.6057  0.6616
  313ACOH    H411397   5.815   0.598   5.482  0.3467 -1.2673  1.9098
  313ACOH    O211398   5.729   0.553   5.490 -0.4027 -0.1829  0.1585
  313ACOH    C211399   5.650   0.632   5.570  0.7302 -0.5575 -0.2201
  313ACOH    O111400   5.664   0.750   5.581 -0.9639 -0.0397  0.0080
  313ACOH    C111401   5.540   0.559   5.636  0.4828  0.0645  0.3041
  313ACOH    H111402   5.575   0.535   5.736  0.0118 -1.6141  0.0813
  313ACOH    H211403   5.530   0.458   5.595  0.2556 -0.4698  1.6655
  313ACOH    H311404   5.447   0.615   5.629  0.5683  0.1479 -0.2319
  314ACOH    H411405   3.290   4.447   2.788  0.9193  3.5405  1.3169
  314ACOH    O211406   3.350   4.395   2.844 -0.8427  0.2942  0.3005
  314ACOH    C211407   3.387   4.468   2.952 -0.2371  0.7246 -0.8660
  314ACOH    O111408   3.387   4.589   2.956 -0.5418  0.7138 -0.5613
  314ACOH    C111409   3.473   4.382   3.033  0.1700  0.3203  0.1687
  314ACOH    H111410   3.572   4.374   2.988 -1.1138  0.2073 -2.7309
  314ACOH    H211411   3.436   4.281   3.049  1.2952 -0.4743 -2.0564
  314ACOH    H311412   3.475   4.429   3.131  1.9069  0.0239  0.2933
  315ACOH    H411413   9.336   7.752   6.489  0.7128  1.3338 -0.6495
  315ACOH    O211414   9.256   7.790   6.448 -0.2037  0.4838  0.3088
  315ACOH    C211415   9.163   7.690   6.432  0.0864  0.3653  0.4225
  315ACOH    O111416   9.170   7.585   6.497  0.1403 -0.3412 -0.0402
  315ACOH    C111417   9.044   7.735   6.350 -0.0204  0.0657  0.1478
  315ACOH    H111418   9.058   7.835   6.308 -3.8036  0.2379 -0.8581
  315ACOH    H211419   8.955   7.732   6.413 -1.5684  1.4309 -1.9386
  315ACOH    H311420   9.024   7.666   6.269 -0.5148 -1.3665  1.4720
  316ACOH    H411421   5.103   3.183   3.152 -0.2052 -1.5927 -0.5642
  316ACOH    O211422   5.195   3.186   3.119 -0.0531 -0.2607 -0.0740
  316ACOH    C211423   5.210   3.282   3.022 -0.1913 -0.4826 -0.3334
  316ACOH    O111424   5.127   3.343   2.963 -0.0762  0.2943 -0.6114
  316ACOH    C111425   5.347   3.313   2.994 -0.1194  0.1813 -0.4140
  316ACOH    H111426   5.356   3.315   2.885 -2.5074  3.5065 -0.6195
  316ACOH    H211427   5.413   3.235   3.034 -1.4412  0.7971  3.1387
  316ACOH    H311428   5.367   3.413   3.033 -3.4723  0.9717 -0.5571
  317ACOH    H411429   5.658   3.190   2.741 -0.3184 -0.1793 -0.3404
  317ACOH    O211430   5.734   3.250   2.753 -0.4455 -0.0630 -0.0995
  317ACOH    C211431   5.696   3.362   2.811  0.2185 -1.2050 -0.1121
  317ACOH    O111432   5.587   3.421   2.794  0.0260  0.3793  0.5376
  317ACOH    C111433   5.819   3.423   2.867 -0.1145 -0.1134  0.1746
  317ACOH    H111434   5.856   3.367   2.953 -1.7106 -1.7092 -0.1401
  317ACOH    H211435   5.798   3.527   2.890 -2.0116 -0.5715  0.6131
  317ACOH    H311436   5.892   3.425   2.786 -0.4213  0.2056 -0.0966
  318ACOH    H411437   8.074   5.068   2.209  2.3663 -0.0936 -0.3239
  318ACOH    O211438   8.074   4.993   2.270  0.1528  0.0080 -0.1580
  318ACOH    C211439   8.111   5.044   2.388 -0.0956  0.4511  0.7471
  318ACOH    O111440   8.173   5.147   2.406  0.3311  0.4656 -0.1093
  318ACOH    C111441   8.112   4.939   2.486  0.1886 -0.0178 -0.3679
  318ACOH    H111442   8.183   4.859   2.467  1.1219  1.3547 -2.8654
  318ACOH    H211443   8.016   4.890   2.499  0.4480 -0.4155  0.0608
  318ACOH    H311444   8.129   4.979   2.586 -1.4895  0.8739 -0.4152
  319ACOH    H411445   3.858   6.405   2.578 -1.1117  1.1174 -0.9679
  319ACOH    O211446   3.818   6.397   2.666  0.3947 -0.1093 -0.3743
  319ACOH    C211447   3.890   6.475   2.741 -0.5952 -0.6994 -0.0511
  319ACOH    O111448   3.950   6.573   2.690 -0.3149 -0.0862  0.5187
  319ACOH    C111449   3.848   6.466   2.881 -0.0891 -0.2313  0.3189
  319ACOH    H111450   3.906   6.543   2.932  1.2735 -0.4096 -0.9272
  319ACOH    H211451   3.875   6.369   2.922  3.1353 -0.1353 -1.3707
  319ACOH    H311452   3.745   6.494   2.904 -0.3500 -0.0607 -1.0129
  320ACOH    H411453   9.533   4.051   3.552  0.1495 -0.0049  0.0893
  320ACOH    O211454   9.602   4.007   3.604 -0.2411 -0.6138  0.0925
  320ACOH    C211455   9.613   4.067   3.724 -0.4932  0.5699  0.2688
  320ACOH    O111456   9.589   4.183   3.753  0.9017  0.7502  0.4414
  320ACOH    C111457   9.655   3.964   3.824  0.3575 -0.7356  0.3048
  320ACOH    H111458   9.764   3.957   3.832  0.3787 -1.3861 -0.4971
  320ACOH    H211459   9.621   3.866   3.789 -0.5473  0.6181 -2.6942
  320ACOH    H311460   9.612   3.981   3.923  0.9420 -2.0620  0.8032
  321ACOH    H411461   6.732   6.694   5.173 -0.2330 -0.2429 -1.0976
  321ACOH    O211462   6.744   6.598   5.160 -0.1368 -0.3681 -0.1491
  321ACOH    C211463   6.829   6.595   5.048 -0.5981 -0.2009 -0.0992
  321ACOH    O111464   6.850   6.693   4.977 -0.2612  0.3785  0.5102
  321ACOH    C111465   6.907   6.467   5.041  0.1936  0.1370 -0.0250
  321ACOH    H111466   6.931   6.429   5.140 -1.4914 -0.3424  0.2187
  321ACOH    H211467   7.007   6.475   4.999  1.3232  0.0563  2.5495
  321ACOH    H311468   6.854   6.389   4.988  0.7817 -2.3679  2.9168
  322ACOH    H411469   3.949   8.678   5.048  3.3784 -0.0111 -2.3422
  322ACOH    O211470   3.978   8.766   5.078  0.0303  0.2870  0.2259
  322ACOH    C211471   4.104   8.764   5.114 -0.5016 -0.0983 -0.1262
  322ACOH    O111472   4.144   8.675   5.185 -0.2160  0.1320  0.3194
  322ACOH    C111473   4.175   8.894   5.111  0.2775  0.1751  0.4482
  322ACOH    H111474   4.239   8.900   5.023 -1.3960 -0.2182 -0.8075
  322ACOH    H211475   4.227   8.925   5.202  0.0734 -0.3089  0.7244
  322ACOH    H311476   4.100   8.972   5.096 -0.1040  0.2105  2.4336
  323ACOH    H411477   5.204   2.814   0.272  0.9641 -2.1699 -1.2018
  323ACOH    O211478   5.296   2.827   0.301  0.2610  0.1160  0.1675
  323ACOH    C211479   5.305   2.943   0.362  0.0204 -0.0474  0.1810
  323ACOH    O111480   5.211   2.990   0.424  0.0399 -0.3926  0.7464
  323ACOH    C111481   5.436   3.006   0.373 -0.9073  0.0780 -0.0573
  323ACOH    H111482   5.459   3.052   0.276 -0.5088 -0.3617 -0.1723
  323ACOH    H211483   5.515   2.935   0.395  1.0132  2.6474  1.6531
  323ACOH    H311484   5.433   3.093   0.439  1.9913  0.5356 -0.4872
  324ACOH    H411485   7.978   5.452   0.301  0.6755 -0.3208 -0.3033
  324ACOH    O211486   7.911   5.462   0.230  0.5626  0.5182 -0.0772
  324ACOH    C211487   7.973   5.515   0.122 -0.2949 -0.1669  0.7280
  324ACOH    O111488   8.089   5.499   0.107  0.4030  0.0278 -0.2139
  324ACOH    C111489   7.873   5.562   0.021 -0.7016 -0.0986  0.5916
  324ACOH    H111490   7.883   5.498  -0.067 -2.5010  2.1720 -1.3229
  324ACOH    H211491   7.908   5.659  -0.014 -1.8157 -0.4693 -1.6466
  324ACOH    H311492   7.769   5.558   0.053 -1.5798 -3.0363 -2.3322
  325ACOH    H411493   7.537   7.415   2.446  0.2325  0.2921 -0.8512
  325ACOH    O211494   7.541   7.320   2.428  0.0811 -0.0407  0.7675
  325ACOH    C211495   7.417   7.264   2.428  0.3340 -0.6895 -0.4980
  325ACOH    O111496   7.314   7.317   2.450  0.5474  0.2600 -0.0947
  325ACOH    C111497   7.432   7.114   2.419  0.2137 -0.0304 -0.6674
  325ACOH    H111498   7.524   7.079   2.464 -0.9813 -0.6168  1.3446
  325ACOH    H211499   7.443   7.084   2.315 -0.1492 -0.4867 -0.5766
  325ACOH    H311500   7.342   7.070   2.463 -0.1412  0.5881 -0.7560
  326ACOH    H411501   1.172   3.351   2.812  0.3799  0.6284  1.3036
  326ACOH    O211502   1.265   3.378   2.800  0.3770  0.0413 -0.2275
  326ACOH    C211503   1.309   3.307   2.691  0.3905 -0.3258  0.9899
  326ACOH    O111504   1.252   3.222   2.628  0.6820 -0.2122  0.2941
  326ACOH    C111505   1.434   3.375   2.639 -0.0631  0.9747  1.0637
  326ACOH    H111506   1.512   3.299   2.650  0.1102  1.3009  2.2231
  326ACOH    H211507   1.460   3.465   2.694 -0.4911  1.1032  1.0604
  326ACOH    H311508   1.401   3.400   2.539 -4.0186  0.0836  2.0338
  327ACOH    H411509   5.374   5.016   2.739 -0.2153 -2.7276 -1.2219
  327ACOH    O211510   5.385   4.970   2.823  0.3620  0.1928  0.3670
  327ACOH    C211511   5.260   4.976   2.874 -0.0994  0.0972 -0.4795
  327ACOH    O111512   5.165   5.034   2.823  0.5062 -0.1510  0.3353
  327ACOH    C111513   5.244   4.895   3.000  1.0281 -0.3192 -0.0729
  327ACOH    H111514   5.144   4.905   3.042  1.0986 -0.2211  0.0730
  327ACOH    H211515   5.313   4.931   3.077 -1.0011  1.6800  0.8704
  327ACOH    H311516   5.266   4.791   2.976 -1.1135 -0.7564 -0.2192
  328ACOH    H411517   7.808   8.837   1.476 -0.4832 -1.8667 -1.7052
  328ACOH    O211518   7.713   8.858   1.481  0.0189  0.2271 -0.1400
  328ACOH    C211519   7.686   8.858   1.349 -0.1816  0.5726 -0.0977
  328ACOH    O111520   7.757   8.899   1.259 -0.0812 -0.3361  0.5242
  328ACOH    C111521   7.542   8.839   1.333  0.1410 -0.7142  0.7894
  328ACOH    H111522   7.496   8.815   1.429 -0.7207  2.2711  1.1774
  328ACOH    H211523   7.518   8.757   1.266 -0.5909  0.6563 -0.6584
  328ACOH    H311524   7.499   8.929   1.289 -0.5220 -0.8925  1.0555
  329ACOH    H411525   9.507   4.521   3.782 -2.0657 -0.6627 -0.6617
  329ACOH    O211526   9.464   4.565   3.856 -0.1518 -0.7602  0.5482
  329ACOH    C211527   9.530   4.685   3.879  0.3629 -0.7851 -0.1550
  329ACOH    O111528   9.634   4.730   3.839 -0.3673 -0.1345  0.0651
  329ACOH    C111529   9.446   4.770   3.963  0.2718  0.7976 -0.3928
  329ACOH    H111530   9.404   4.849   3.901 -2.5372  0.9475  1.6363
  329ACOH    H211531   9.497   4.809   4.051 -1.7183  1.5522  0.4292
  329ACOH    H311532   9.358   4.719   4.003  0.9492 -0.9106 -1.0187
  330ACOH    H411533   7.530   6.065   3.286  2.0452 -2.6334 -2.1307
  330ACOH    O211534   7.452   6.010   3.271 -0.3172 -0.1992  0.5962
  330ACOH    C211535   7.429   5.991   3.139 -0.7829  0.5402  0.0323
  330ACOH    O111536   7.481   6.053   3.052  0.1472 -0.0380  0.4156
  330ACOH    C111537   7.311   5.909   3.115 -0.4799  0.3539  0.5345
  330ACOH    H111538   7.225   5.974   3.094  0.0350  0.9176  0.1689
  330ACOH    H211539   7.288   5.854   3.206  1.4659 -0.1159  0.7576
  330ACOH    H311540   7.328   5.851   3.024 -1.7119 -2.8424  2.2823
  331ACOH    H411541   6.973   4.041   0.920 -0.4778  0.6800  0.1094
  331ACOH    O211542   6.879   4.021   0.936 -0.3451  0.1326  0.2257
  331ACOH    C211543   6.867   3.905   0.988  0.3517 -0.3269  0.0491
  331ACOH    O111544   6.928   3.810   0.944 -0.3297 -0.3376  0.1156
  331ACOH    C111545   6.727   3.890   1.025  0.2576  0.7291 -0.4932
  331ACOH    H111546   6.674   3.854   0.937  0.2106 -1.8377  0.5374
  331ACOH    H211547   6.688   3.990   1.047  0.3111  0.6355  0.0424
  331ACOH    H311548   6.705   3.818   1.104 -0.1369 -0.2186 -1.4550
  332ACOH    H411549   5.362   6.098   2.439  1.1203  0.8706  0.4115
  332ACOH    O211550   5.386   6.023   2.496 -0.6039 -0.4669 -0.5703
  332ACOH    C211551   5.287   6.017   2.585 -1.2363  0.3109 -0.0365
  332ACOH    O111552   5.176   6.060   2.588 -0.1878 -0.1670 -0.0030
  332ACOH    C111553   5.330   5.927   2.701 -0.6602  0.7261 -0.0457
  332ACOH    H111554   5.266   5.939   2.788  0.5217 -1.1033  1.0993
  332ACOH    H211555   5.432   5.953   2.730 -0.7675  2.1767 -0.8837
  332ACOH    H311556   5.328   5.823   2.668  1.1877  0.7057 -0.1844
  333ACOH    H411557   5.585   5.456   1.545 -0.7684  0.6035 -1.6459
  333ACOH    O211558   5.607   5.361   1.540  0.2341  0.7230  0.0375
  333ACOH    C211559   5.709   5.357   1.451 -0.2950  0.0252  0.3917
  333ACOH    O111560   5.776   5.457   1.410 -0.2902 -0.1343  0.1672
  333ACOH    C111561   5.734   5.217   1.418 -0.0892 -0.0724  0.1833
  333ACOH    H111562   5.836   5.205   1.383 -0.4242 -2.6748 -0.0144
  333ACOH    H211563   5.670   5.174   1.341 -0.3034  0.6042 -0.0165
  333ACOH    H311564   5.732   5.162   1.513  0.0279  1.8562  1.3308
  334ACOH    H411565   6.564   0.750   6.338  0.0867  0.3296 -1.0588
  334ACOH    O211566   6.479   0.702   6.342  0.1771  0.2886  0.5203
  334ACOH    C211567   6.490   0.611   6.437  0.5905  0.2297 -1.5775
  334ACOH    O111568   6.587   0.545   6.477  0.3083 -0.0895 -0.2206
  334ACOH    C111569   6.351   0.581   6.486 -0.3549  0.4737  0.4174
  334ACOH    H111570   6.279   0.631   6.421 -0.7340  0.1227  0.5689
  334ACOH    H211571   6.346   0.608   6.591  1.4613  0.0089  0.6452
  334ACOH    H311572   6.340   0.475   6.467  1.8524  0.6543 -2.2096
  335ACOH    H411573   0.700   5.110   4.341 -1.0901  2.0106  0.7184
  335ACOH    O211574   0.719   5.125   4.247 -0.2426  0.0090  0.5341
  335ACOH    C211575   0.656   5.239   4.233 -0.2152  0.3123  0.1170
  335ACOH    O111576   0.638   5.321   4.319 -0.4939  0.2015 -0.4930
  335ACOH    C111577   0.631   5.274   4.087 -0.7248 -0.0736 -0.1949
  335ACOH    H111578   0.645   5.176   4.041 -0.3321 -0.1379  0.0549
  335ACOH    H211579   0.712   5.340   4.054  0.0901 -0.3952  1.1305
  335ACOH    H311580   0.529   5.310   4.074 -0.6092  0.4232  0.2777
  336ACOH    H411581   4.181   5.247   0.152 -1.3583  0.3289 -0.7054
  336ACOH    O211582   4.195   5.340   0.178 -0.1899 -0.0739  0.1405
  336ACOH    C211583   4.247   5.405   0.073 -0.4733 -0.2165  0.0383
  336ACOH    O111584   4.242   5.363  -0.042 -0.4628  0.4299  0.4939
  336ACOH    C111585   4.248   5.552   0.098 -0.4465 -0.1267 -1.0345
  336ACOH    H111586   4.327   5.599   0.039 -0.3880  1.5133  0.3069
  336ACOH    H211587   4.257   5.577   0.204 -0.4250 -1.9103 -0.6050
  336ACOH    H311588   4.153   5.594   0.064 -0.1911  0.5380 -0.9467
  337ACOH    H411589   5.359   4.112   6.257  0.6821  1.7692 -0.5436
  337ACOH    O211590   5.279   4.166   6.247 -0.4594  0.3125  0.6704
  337ACOH    C211591   5.305   4.293   6.273 -0.4287 -0.1657  0.5144
  337ACOH    O111592   5.412   4.348   6.299 -0.2127 -0.3336 -0.4561
  337ACOH    C111593   5.180   4.371   6.266 -0.4975 -0.3245 -0.1777
  337ACOH    H111594   5.195   4.457   6.201  1.3192  0.5767  1.3931
  337ACOH    H211595   5.151   4.410   6.364 -1.1282  2.1990 -1.3297
  337ACOH    H311596   5.098   4.314   6.221 -1.0920 -0.4906  1.0841
  338ACOH    H411597   1.719   9.073   1.309 -0.2087  0.1067  0.7292
  338ACOH    O211598   1.651   9.137   1.281 -0.0492 -0.0547 -0.0553
  338ACOH    C211599   1.552   9.116   1.373 -0.0648 -0.5291  0.3256
  338ACOH    O111600   1.555   9.027   1.461  0.6337 -0.0752 -0.3650
  338ACOH    C111601   1.441   9.195   1.332  0.4453  0.3599  0.3851
  338ACOH    H111602   1.416   9.188   1.226  0.2229  1.2125  0.3748
  338ACOH    H211603   1.481   9.296   1.347  0.6131  0.1914  1.0930
  338ACOH    H311604   1.354   9.196   1.397 -0.8803  1.9602 -1.3453
  339ACOH    H411605   5.341   9.728   1.438 -0.8272  1.0888 -1.0774
  339ACOH    O211606   5.405   9.797   1.460  0.6502 -0.7309  0.4757
  339ACOH    C211607   5.346   9.917   1.430  0.6851 -0.4806  0.1539
  339ACOH    O111608   5.228   9.941   1.403 -0.0838 -0.3909 -0.0702
  339ACOH    C111609   5.436  10.018   1.478 -0.1622 -0.2983  0.6290
  339ACOH    H111610   5.396  10.118   1.492  1.2214  0.1939  1.1696
  339ACOH    H211611   5.525  10.014   1.414  1.6815  1.5374  3.0034
  339ACOH    H311612   5.462   9.983   1.577  0.6757  1.7596  1.1529
  340ACOH    H411613   3.978   7.712   0.201 -0.7828  2.6760  0.0976
  340ACOH    O211614   3.965   7.690   0.107  0.1240  0.6286  0.4360
  340ACOH    C211615   3.833   7.704   0.085  0.5130  0.5388  0.3728
  340ACOH    O111616   3.749   7.758   0.157  0.3013 -0.3156 -0.1711
  340ACOH    C111617   3.806   7.651  -0.048 -1.1193 -0.5034 -0.4397
  340ACOH    H111618   3.716   7.591  -0.060  0.1104 -2.2531 -0.9753
  340ACOH    H211619   3.892   7.596  -0.083  1.0437  0.5539  2.9349
  340ACOH    H311620   3.793   7.739  -0.112  2.2042 -1.7268 -2.8989
  341ACOH    H411621   7.347   2.523   3.946 -2.1770  0.9719 -2.4367
  341ACOH    O211622   7.373   2.616   3.960  0.0045  0.0563 -0.1268
  341ACOH    C211623   7.259   2.692   3.988  0.5398 -0.0459 -0.1258
  341ACOH    O111624   7.155   2.638   4.018 -0.8937 -0.3766 -0.0848
  341ACOH    C111625   7.291   2.835   4.014  0.1756  0.6571 -0.0166
  341ACOH    H111626   7.378   2.830   4.080 -0.2394 -1.4579  0.4079
  341ACOH    H211627   7.210   2.881   4.070  0.0947 -2.5688  2.6152
  341ACOH    H311628   7.317   2.896   3.927  0.3667  0.3717 -0.1579
  342ACOH    H411629   4.800   2.038   2.447 -0.7403 -0.0748 -1.0089
  342ACOH    O211630   4.711   2.042   2.488 -0.3059  0.8113 -0.1224
  342ACOH    C211631   4.721   2.113   2.598 -0.3196 -0.5190 -0.2471
  342ACOH    O111632   4.821   2.132   2.666 -0.4138 -0.6750  0.8138
  342ACOH    C111633   4.587   2.151   2.651  0.7391  0.1782 -0.1118
  342ACOH    H111634   4.571   2.259   2.649 -0.8811 -0.0614 -0.3208
  342ACOH    H211635   4.576   2.115   2.753 -0.6871 -0.2874 -0.4130
  342ACOH    H311636   4.505   2.108   2.594 -0.9910 -0.7399  2.9637
  343ACOH    H411637   5.822   5.130   1.112 -0.0565 -0.3685  1.1856
  343ACOH    O211638   5.918   5.123   1.103 -0.0866  0.3563  0.1769
  343ACOH    C211639   5.959   5.018   1.181 -0.3723 -0.1417 -0.3105
  343ACOH    O111640   5.889   4.930   1.226  0.5288  0.0276 -0.1131
  343ACOH    C111641   6.105   5.020   1.202 -0.3992  0.3275 -0.1189
  343ACOH    H111642   6.149   5.104   1.148  0.2000  1.5981  2.2882
  343ACOH    H211643   6.154   4.927   1.174 -1.2345  0.2136 -1.2215
  343ACOH    H311644   6.111   5.038   1.309 -3.2816  0.2624  0.0776
  344ACOH    H411645   7.484   7.648   2.160 -0.5670  0.2564 -0.0747
  344ACOH    O211646   7.426   7.579   2.125 -0.0486 -0.0801 -0.2738
  344ACOH    C211647   7.300   7.614   2.157 -0.2253  0.8956 -0.2270
  344ACOH    O111648   7.262   7.724   2.190 -0.2535 -0.6448 -0.2021
  344ACOH    C111649   7.217   7.496   2.153  0.2134  0.2728  0.2911
  344ACOH    H111650   7.108   7.503   2.158  0.2697  0.8908  0.7023
  344ACOH    H211651   7.250   7.419   2.223 -0.0346 -0.5903 -0.5247
  344ACOH    H311652   7.240   7.448   2.058  0.5120  1.5366 -0.2798
  345ACOH    H411653   4.509   5.300   0.390 -0.8217 -1.4947  0.1609
  345ACOH    O211654   4.428   5.344   0.418  0.1199  0.4864 -0.1317
  345ACOH    C211655   4.471   5.453   0.486 -0.5069  0.4337 -0.4598
  345ACOH    O111656   4.579   5.511   0.470  0.7187  0.7306 -0.3823
  345ACOH    C111657   4.362   5.509   0.567  0.1698  0.0448  0.0846
  345ACOH    H111658   4.341   5.431   0.641  1.6887 -1.8015 -1.3711
  345ACOH    H211659   4.283   5.527   0.494  0.2184 -1.6816 -0.4289
  345ACOH    H311660   4.395   5.600   0.617 -1.7132 -0.7849  3.0046
  346ACOH    H411661   9.144   6.045   3.143 -2.5147  1.2510 -0.5142
  346ACOH    O211662   9.100   6.031   3.228  0.0911  0.3568  0.7438
  346ACOH    C211663   9.190   5.958   3.297 -0.0204 -0.4789 -0.6949
  346ACOH    O111664   9.302   5.922   3.261 -0.3011  0.1881  0.1447
  346ACOH    C111665   9.154   5.938   3.440 -0.4241 -0.2483 -0.6124
  346ACOH    H111666   9.049   5.965   3.455 -0.1046  0.8115 -0.2460
  346ACOH    H211667   9.214   5.996   3.510 -1.2426 -2.4523  2.0349
  346ACOH    H311668   9.173   5.835   3.471 -5.1954 -1.3441 -0.8312
  347ACOH    H411669   2.619   9.441   3.909  1.3372 -1.7177 -0.4466
  347ACOH    O211670   2.676   9.459   3.985 -0.2009  0.0289  0.3443
  347ACOH    C211671   2.767   9.358   3.983 -0.0901 -0.6621  0.2946
  347ACOH    O111672   2.805   9.316   3.877 -0.1797 -0.1046  0.5835
  347ACOH    C111673   2.813   9.331   4.118 -0.1761  0.1922 -0.1371
  347ACOH    H111674   2.922   9.326   4.114 -0.2875 -1.2551 -3.0551
  347ACOH    H211675   2.777   9.233   4.149 -0.2361 -0.0455 -0.9319
  347ACOH    H311676   2.785   9.409   4.189  1.3994  0.0859  0.6046
  348ACOH    H411677   6.068   7.929   1.659  0.2678  0.6221 -0.7086
  348ACOH    O211678   6.115   7.845   1.648  0.1538  0.4596  0.0635
  348ACOH    C211679   6.040   7.765   1.564  0.0876 -0.0906 -0.2625
  348ACOH    O111680   5.919   7.777   1.539 -0.3842  0.2218  0.0938
  348ACOH    C111681   6.121   7.646   1.561 -0.0363 -0.2689 -0.2520
  348ACOH    H111682   6.068   7.577   1.496 -0.7206 -0.7173  0.7655
  348ACOH    H211683   6.125   7.607   1.662 -2.6274 -1.0018 -0.4044
  348ACOH    H311684   6.211   7.676   1.506 -0.2681  0.9771  0.0230
  349ACOH    H411685   4.630   6.532   0.901  0.7884 -1.7214 -0.5864
  349ACOH    O211686   4.693   6.581   0.846  0.0968  0.3966  0.4533
  349ACOH    C211687   4.761   6.642   0.938 -0.5322  0.7604 -0.0418
  349ACOH    O111688   4.757   6.626   1.056 -0.0339 -0.4597  0.6201
  349ACOH    C111689   4.847   6.744   0.875 -0.6838  0.3844  0.2427
  349ACOH    H111690   4.916   6.692   0.809 -1.0275  0.9335 -0.5673
  349ACOH    H211691   4.915   6.796   0.943  0.2100 -1.1619  0.5379
  349ACOH    H311692   4.784   6.806   0.811 -0.9104 -0.6414 -0.5472
  350ACOH    H411693   7.078   2.012   0.768  2.9916  1.2849 -0.3274
  350ACOH    O211694   7.052   2.087   0.713  0.3598  0.6548  0.0121
  350ACOH    C211695   6.952   2.042   0.632  0.0480  0.1355  0.2866
  350ACOH    O111696   6.920   1.924   0.626  1.3414 -0.1259  0.0528
  350ACOH    C111697   6.892   2.145   0.545 -0.2133 -0.6177  0.1555
  350ACOH    H111698   6.970   2.183   0.478  0.9085  0.1652  1.8838
  350ACOH    H211699   6.864   2.230   0.606  0.2807 -0.0125 -0.4491
  350ACOH    H311700   6.815   2.112   0.475 -1.7159  1.0258  1.0104
  351ACOH    H411701   7.801   5.737   3.114 -0.2248 -1.8485  0.3394
  351ACOH    O211702   7.796   5.700   3.024  0.4395 -0.1413 -0.4341
  351ACOH    C211703   7.855   5.792   2.947 -0.7650 -0.4196  0.2557
  351ACOH    O111704   7.904   5.895   2.987  0.3495 -0.6446 -0.1700
  351ACOH    C111705   7.860   5.752   2.801  0.4733  0.5470  0.2879
  351ACOH    H111706   7.890   5.647   2.798 -0.6312  0.1700  1.8068
  351ACOH    H211707   7.943   5.805   2.754  0.3750 -1.9588 -2.8451
  351ACOH    H311708   7.772   5.767   2.738  0.0188 -0.6476  0.6142
  352ACOH    H411709   5.511   4.043   1.813  0.6507  3.5812 -2.1186
  352ACOH    O211710   5.602   4.061   1.844  0.5573  0.4004  0.3262
  352ACOH    C211711   5.620   3.980   1.955  0.0485  0.6021 -0.5807
  352ACOH    O111712   5.532   3.930   2.025  0.3535  0.2362 -0.6491
  352ACOH    C111713   5.766   3.974   1.996 -0.2091 -0.5930  0.2802
  352ACOH    H111714   5.826   3.912   1.930 -0.1483  0.8286 -1.0360
  352ACOH    H211715   5.774   3.938   2.098  1.0661 -0.4700  0.2270
  352ACOH    H311716   5.805   4.076   1.999  0.1824 -0.6892 -1.1239
  353ACOH    H411717   5.401   8.307   1.499  2.7145 -0.3246  2.5260
  353ACOH    O211718   5.466   8.307   1.427 -0.2005  0.0243 -0.1706
  353ACOH    C211719   5.416   8.383   1.328 -0.7146 -0.1878 -0.4424
  353ACOH    O111720   5.300   8.412   1.317  0.2276 -0.1730  0.0270
  353ACOH    C111721   5.525   8.404   1.237 -0.1915 -0.4948  0.4398
  353ACOH    H111722   5.609   8.341   1.266  0.3827 -0.1080 -0.3689
  353ACOH    H211723   5.547   8.511   1.239  0.0534 -0.4808 -1.4677
  353ACOH    H311724   5.494   8.371   1.138  0.9630  0.0332 -0.1131
  354ACOH    H411725   0.796   6.500   6.350 -0.5982 -1.1124  1.4111
  354ACOH    O211726   0.785   6.585   6.396 -0.1868 -0.2332 -0.0742
  354ACOH    C211727   0.818   6.675   6.307 -0.7880 -0.5039 -0.5060
  354ACOH    O111728   0.833   6.657   6.186  0.7262  0.2735 -0.0959
  354ACOH    C111729   0.824   6.805   6.376 -0.1238 -0.0673  0.3887
  354ACOH    H111730   0.749   6.869   6.329 -0.9619 -1.5849 -0.3799
  354ACOH    H211731   0.918   6.854   6.351 -0.4907  0.9044  0.8623
  354ACOH    H311732   0.810   6.806   6.484 -0.1943  0.4176  0.3766
  355ACOH    H411733   4.965   5.604   0.997 -0.2569  1.5400 -0.5667
  355ACOH    O211734   4.988   5.609   1.092 -0.0412 -0.1216 -0.5198
  355ACOH    C211735   4.891   5.677   1.154  0.8203 -0.1254 -0.0829
  355ACOH    O111736   4.804   5.747   1.106 -0.3862 -0.6257 -0.1658
  355ACOH    C111737   4.915   5.654   1.294  0.2624 -0.7859 -0.6690
  355ACOH    H111738   4.997   5.721   1.319 -0.8239  0.2196  0.2686
  355ACOH    H211739   4.932   5.548   1.312 -0.6519 -0.9861 -0.9399
  355ACOH    H311740   4.821   5.688   1.338 -0.1677 -0.4553 -1.8166
  356ACOH    H411741   6.546   1.879   4.571 -1.1932  0.1305  0.8101
  356ACOH    O211742   6.547   1.971   4.541 -0.3969 -0.0228  0.3575
  356ACOH    C211743   6.452   1.995   4.447 -0.5057  0.2537  0.1924
  356ACOH    O111744   6.373   1.915   4.416 -0.2726 -0.2429 -0.0334
  356ACOH    C111745   6.468   2.128   4.383 -0.1700 -0.6183 -0.0464
  356ACOH    H111746   6.379   2.153   4.326  1.6974  0.2202 -2.6773
  356ACOH    H211747   6.559   2.126   4.324  0.2236  2.8295  0.3381
  356ACOH    H311748   6.482   2.206   4.457 -1.9750  0.5367 -0.8934
  357ACOH    H411749   7.697   3.522   2.784  2.1459 -5.0070  0.6738
  357ACOH    O211750   7.667   3.522   2.876 -0.2131  0.6472  0.1044
  357ACOH    C211751   7.717   3.419   2.945 -0.4177  0.2182  0.8106
  357ACOH    O111752   7.827   3.367   2.923 -0.1161 -0.0384 -0.4368
  357ACOH    C111753   7.648   3.406   3.077  0.0872  0.0340 -0.4898
  357ACOH    H111754   7.614   3.504   3.108 -1.7278  0.3345 -3.2629
  357ACOH    H211755   7.704   3.361   3.160  0.5366  0.0003 -0.8079
  357ACOH    H311756   7.567   3.335   3.060 -0.3995  0.4392  0.1098
  358ACOH    H411757   8.012   7.027   1.768 -2.4268 -1.0980 -2.8630
  358ACOH    O211758   8.067   6.947   1.766  0.0019  0.4240  0.2034
  358ACOH    C211759   7.991   6.853   1.814  0.1275 -0.1267  0.0132
  358ACOH    O111760   7.888   6.870   1.877  0.7481  0.9574  0.1734
  358ACOH    C111761   8.045   6.720   1.772 -0.3679  0.3942 -0.7333
  358ACOH    H111762   8.010   6.701   1.670 -2.5824 -1.5233  0.3373
  358ACOH    H211763   8.012   6.642   1.841  0.2301 -0.9180 -1.8873
  358ACOH    H311764   8.154   6.717   1.773 -0.2724  3.1267  0.8862
  359ACOH    H411765   6.775   2.542   4.291  1.8154  0.9914  0.7057
  359ACOH    O211766   6.718   2.543   4.370  0.2857 -0.1498 -0.3692
  359ACOH    C211767   6.757   2.430   4.438  0.3942 -0.6251 -0.6213
  359ACOH    O111768   6.821   2.335   4.392 -0.1975  0.3479 -0.2435
  359ACOH    C111769   6.698   2.411   4.573  0.6010 -0.7578  0.6270
  359ACOH    H111770   6.780   2.405   4.645  0.9041 -0.9903  0.2707
  359ACOH    H211771   6.635   2.322   4.567 -1.2165  0.5458  0.0585
  359ACOH    H311772   6.620   2.483   4.593 -1.0989 -3.0032  2.3685
  360ACOH    H411773   7.690   3.025   3.750  0.8438 -1.3816 -0.2059
  360ACOH    O211774   7.660   2.987   3.666 -0.3240 -0.1602 -0.3671
  360ACOH    C211775   7.563   2.897   3.699 -0.1418 -0.1452  1.0148
  360ACOH    O111776   7.560   2.841   3.805  0.4436 -0.0213 -0.5057
  360ACOH    C111777   7.486   2.853   3.581 -0.1036 -0.4246 -0.2457
  360ACOH    H111778   7.494   2.923   3.498 -0.7868 -1.2227 -0.9986
  360ACOH    H211779   7.382   2.838   3.609 -0.9518  0.7086 -2.6793
  360ACOH    H311780   7.524   2.755   3.553 -0.0561  0.0411 -1.8657
  361ACOH    H411781   8.954   4.045   6.334  0.9517 -0.0556  1.6930
  361ACOH    O211782   8.883   4.110   6.344  0.3013 -0.4022 -0.3994
  361ACOH    C211783   8.906   4.173   6.461 -0.2189 -0.4363  0.1353
  361ACOH    O111784   8.962   4.131   6.556  0.0276 -0.1639  0.7169
  361ACOH    C111785   8.825   4.295   6.461  0.3170 -0.3153 -0.4021
  361ACOH    H111786   8.850   4.364   6.542  0.2730 -1.0798  0.2685
  361ACOH    H211787   8.721   4.265   6.475  0.6952 -2.1504 -1.4042
  361ACOH    H311788   8.818   4.348   6.366  0.0062  1.6724  0.7035
  362ACOH    H411789   8.118   5.111   1.154  0.0974  0.6193  0.2069
  362ACOH    O211790   8.197   5.143   1.107  0.0975  0.0996 -0.1464
  362ACOH    C211791   8.154   5.179   0.983 -0.1089  0.0011 -0.2107
  362ACOH    O111792   8.039   5.191   0.951  0.1225  0.2565 -0.2934
  362ACOH    C111793   8.257   5.220   0.886 -0.2640 -0.1550 -0.1483
  362ACOH    H111794   8.222   5.232   0.783 -1.6386 -1.5499  0.1361
  362ACOH    H211795   8.320   5.132   0.889 -0.0324  0.0676  2.9247
  362ACOH    H311796   8.322   5.304   0.906 -0.1862  0.2502 -1.9638
  363ACOH    H411797   8.091   3.895   3.311  0.3752 -0.5508  0.5253
  363ACOH    O211798   8.024   3.918   3.244  0.4497 -0.3040  0.5334
  363ACOH    C211799   8.064   4.037   3.193 -1.1588 -0.2804  0.3702
  363ACOH    O111800   8.181   4.081   3.193  0.8517 -0.7437 -0.1756
  363ACOH    C111801   7.950   4.121   3.143  0.0836 -0.0394  0.2004
  363ACOH    H111802   7.912   4.176   3.230  0.9870 -0.4369  0.8533
  363ACOH    H211803   7.862   4.072   3.100  0.4554 -0.0783 -0.5241
  363ACOH    H311804   7.975   4.198   3.070 -1.1407 -0.1112 -0.2985
  364ACOH    H411805   5.121   2.441   0.434 -0.3994 -0.3169  0.3239
  364ACOH    O211806   5.157   2.353   0.417 -0.0476 -0.0735 -0.1639
  364ACOH    C211807   5.115   2.254   0.496  0.1776 -0.3938  0.3811
  364ACOH    O111808   5.066   2.273   0.606  0.2578 -0.3836  0.2158
  364ACOH    C111809   5.164   2.123   0.435 -0.1247  0.0087 -0.5352
  364ACOH    H111810   5.097   2.043   0.468  2.0334 -1.9518 -0.8203
  364ACOH    H211811   5.263   2.100   0.474 -0.1599 -0.3967 -0.6857
  364ACOH    H311812   5.156   2.135   0.327 -2.0278 -3.2397 -0.8243
  365ACOH    H411813   6.220   7.062   2.975  1.9339  1.6481 -0.1390
  365ACOH    O211814   6.269   7.003   3.034 -0.8916 -0.0016  0.6378
  365ACOH    C211815   6.326   7.072   3.136 -0.0093 -0.1990 -0.5279
  365ACOH    O111816   6.330   7.196   3.135 -0.4586  0.5385  0.3935
  365ACOH    C111817   6.369   6.989   3.247  0.0841 -1.0565 -0.0934
  365ACOH    H111818   6.299   6.913   3.280 -1.4181  0.2703 -0.1598
  365ACOH    H211819   6.396   7.057   3.327 -0.2959  0.0794 -0.9089
  365ACOH    H311820   6.451   6.925   3.214 -0.4537 -1.6774 -0.2503
  366ACOH    H411821   3.189   8.461   2.898  0.7534  0.8792 -1.6437
  366ACOH    O211822   3.152   8.539   2.943 -0.2285 -0.5162  0.0436
  366ACOH    C211823   3.067   8.508   3.033  0.2362  0.0201 -0.8032
  366ACOH    O111824   3.042   8.395   3.064  0.6924 -0.0792  0.3401
  366ACOH    C111825   3.012   8.618   3.114 -0.2534  0.7394 -0.2993
  366ACOH    H111826   2.912   8.607   3.156 -0.0839 -1.0278 -0.3199
  366ACOH    H211827   3.006   8.705   3.048  2.0428  0.8472 -0.3884
  366ACOH    H311828   3.085   8.637   3.192  1.4641 -1.3226 -1.3297
  367ACOH    H411829   0.979   0.049   3.390  1.8005 -2.1501  1.2355
  367ACOH    O211830   1.012   0.086   3.473  0.4000  0.2522  0.7481
  367ACOH    C211831   0.922   0.175   3.518  0.4767 -0.0455 -0.0836
  367ACOH    O111832   0.811   0.195   3.469 -0.7127  0.5213  0.3939
  367ACOH    C111833   0.967   0.233   3.648  0.6821 -0.6667 -0.7689
  367ACOH    H111834   0.970   0.159   3.727 -1.9151  1.7160  1.6932
  367ACOH    H211835   0.911   0.322   3.678 -0.7484 -1.4499 -1.0354
  367ACOH    H311836   1.068   0.274   3.648  0.2980  0.3978  1.9226
  368ACOH    H411837   9.490   9.917   0.298 -0.3017  0.8046  0.0955
  368ACOH    O211838   9.491   9.983   0.227  0.1707  0.6044 -0.0836
  368ACOH    C211839   9.608  10.045   0.210 -0.1563 -0.6124  0.6185
  368ACOH    O111840   9.703  10.051   0.286 -0.1408 -0.1674 -0.2243
  368ACOH    C111841   9.597  10.117   0.075  0.3102 -1.1259 -0.2655
  368ACOH    H111842   9.685  10.177   0.055 -0.8731  0.5721 -0.4687
  368ACOH    H211843   9.501  10.167   0.065  0.0953 -1.5924 -0.5642
  368ACOH    H311844   9.592  10.034   0.004 -0.8827 -2.0943  0.9281
  369ACOH    H411845   6.093   8.409   1.635  1.8705 -1.7158  0.2900
  369ACOH    O211846   6.020   8.365   1.588  0.2842  0.1364  0.9410
  369ACOH    C211847   5.913   8.444   1.579  0.6535  0.2531 -0.6035
  369ACOH    O111848   5.891   8.556   1.622  0.4167 -0.2943 -0.4347
  369ACOH    C111849   5.797   8.367   1.530 -0.2879 -0.1302 -0.2732
  369ACOH    H111850   5.789   8.354   1.422 -0.3762  2.5673 -0.6193
  369ACOH    H211851   5.702   8.396   1.576 -0.7136  0.3164 -1.4249
  369ACOH    H311852   5.814   8.265   1.564  0.3379 -0.2945 -1.0894
  370ACOH    H411853   1.521   0.036   4.746  1.2491 -1.1700  1.1528
  370ACOH    O211854   1.463  -0.012   4.808 -0.2713  0.0866  0.7225
  370ACOH    C211855   1.409  -0.111   4.743 -0.1927 -0.7496  0.0580
  370ACOH    O111856   1.376  -0.112   4.627 -0.1228 -0.7301  0.9806
  370ACOH    C111857   1.338  -0.195   4.834 -0.6578  0.0688 -0.0153
  370ACOH    H111858   1.408  -0.235   4.907 -0.2603  0.8772  0.0396
  370ACOH    H211859   1.304  -0.284   4.780  0.1679 -0.4802  0.3592
  370ACOH    H311860   1.256  -0.147   4.888  0.2079  0.8936  0.5866
  371ACOH    H411861   5.888   8.373   5.321 -0.6682 -0.3646 -0.2015
  371ACOH    O211862   5.846   8.431   5.387 -0.3909  0.0817 -0.4161
  371ACOH    C211863   5.929   8.525   5.418  0.1363  0.3395  0.3415
  371ACOH    O111864   6.035   8.549   5.364  0.6162  0.0517  0.3116
  371ACOH    C111865   5.848   8.618   5.501  0.0899 -0.0888 -0.0126
  371ACOH    H111866   5.756   8.648   5.451  0.4298  2.1446  0.6192
  371ACOH    H211867   5.911   8.706   5.516  0.5884 -0.5640  0.7507
  371ACOH    H311868   5.839   8.560   5.593 -0.4130  0.3711  0.2261
  372ACOH    H411869   5.727   2.660   3.774  0.0235  0.6101 -1.1638
  372ACOH    O211870   5.699   2.694   3.861  0.4027 -0.2729 -0.6939
  372ACOH    C211871   5.598   2.621   3.910  0.3223 -0.4325  0.0312
  372ACOH    O111872   5.549   2.517   3.867 -0.4248  0.0844  0.2529
  372ACOH    C111873   5.547   2.674   4.036  0.3219 -0.0120  0.1079
  372ACOH    H111874   5.444   2.703   4.016  1.0640  1.1700 -2.1722
  372ACOH    H211875   5.594   2.770   4.058  0.2243  0.2363 -0.7514
  372ACOH    H311876   5.551   2.610   4.124 -1.1775  0.5690  0.6252
  373ACOH    H411877   7.931   6.179   1.924 -1.6581 -0.6619  0.1187
  373ACOH    O211878   7.914   6.200   1.831  0.4524  0.0125 -0.1433
  373ACOH    C211879   7.911   6.335   1.832 -0.2181  0.1128  0.2330
  373ACOH    O111880   7.911   6.402   1.932  0.6389  0.8962  0.2810
  373ACOH    C111881   7.913   6.401   1.699 -0.2681  1.0959  0.9011
  373ACOH    H111882   7.891   6.507   1.709  0.4033  1.0520  3.1948
  373ACOH    H211883   7.834   6.357   1.638  2.0092 -1.1353 -0.4950
  373ACOH    H311884   8.011   6.391   1.653 -0.8085  1.0978 -0.2701
  374ACOH    H411885   7.705   5.893   3.318  1.3541 -0.6579  0.4327
  374ACOH    O211886   7.699   5.812   3.265 -0.1914 -0.5252  0.3846
  374ACOH    C211887   7.598   5.747   3.325 -0.3827 -0.5663 -1.0327
  374ACOH    O111888   7.579   5.757   3.440 -0.1406 -0.0426  0.2319
  374ACOH    C111889   7.535   5.644   3.245 -1.1944  0.2125  0.4870
  374ACOH    H111890   7.445   5.602   3.290 -0.5040 -0.1184  1.5598
  374ACOH    H211891   7.607   5.562   3.236 -0.6613  0.7587 -0.3541
  374ACOH    H311892   7.500   5.687   3.151 -1.7062  0.0315  0.5925
  375ACOH    H411893   3.705   7.283   2.318 -1.6627  0.1316 -1.7896
  375ACOH    O211894   3.660   7.356   2.365  0.8697  0.2020  0.6287
  375ACOH    C211895   3.727   7.392   2.474  0.0725 -0.6659 -0.1375
  375ACOH    O111896   3.822   7.342   2.528 -0.0064 -0.5411 -0.1965
  375ACOH    C111897   3.646   7.498   2.532 -0.5149 -0.6805 -0.2782
  375ACOH    H111898   3.540   7.480   2.514 -0.4857 -0.5708 -0.5714
  375ACOH    H211899   3.682   7.588   2.481  1.2475 -1.2859 -0.1295
  375ACOH    H311900   3.657   7.512   2.639 -2.9818  1.1881 -0.2009
  376ACOH    H411901   6.149   4.980   0.126 -1.3469  1.3513  1.1996
  376ACOH    O211902   6.181   5.070   0.110 -0.2486  0.8155  0.3937
  376ACOH    C211903   6.265   5.068   0.004 -0.6768  0.0092  1.2695
  376ACOH    O111904   6.329   4.977  -0.041  0.6202  0.0489  0.3809
  376ACOH    C111905   6.276   5.206  -0.054  0.5295 -0.2124  0.0317
  376ACOH    H111906   6.371   5.255  -0.029  0.0549  0.0486  1.3836
  376ACOH    H211907   6.194   5.262  -0.009 -1.2686 -2.1161 -0.8091
  376ACOH    H311908   6.254   5.207  -0.160 -1.1876 -0.0265  0.3731
  377ACOH    H411909   8.169   6.328   6.723  0.8779 -0.2133  0.0239
  377ACOH    O211910   8.099   6.263   6.745  0.6702  0.2690  0.7997
  377ACOH    C211911   8.114   6.162   6.659  0.2635 -0.6394 -0.5343
  377ACOH    O111912   8.207   6.151   6.576 -0.1179  0.5471 -0.2378
  377ACOH    C111913   8.003   6.066   6.676  0.0633  0.3100  0.1131
  377ACOH    H111914   7.922   6.095   6.610 -0.6601  2.6435  1.9373
  377ACOH    H211915   7.964   6.083   6.776 -1.8888 -0.9318 -0.4206
  377ACOH    H311916   8.026   5.960   6.666  2.5553  0.6556  1.7917
  378ACOH    H411917   5.576   1.715   5.007 -0.7445  1.0948 -2.8343
  378ACOH    O211918   5.649   1.777   5.024 -0.4204 -0.0373  0.0120
  378ACOH    C211919   5.718   1.770   4.911  0.0107 -0.6334  0.0847
  378ACOH    O111920   5.669   1.744   4.804  0.1967 -0.7001 -0.5257
  378ACOH    C111921   5.855   1.827   4.928  0.3619  0.1394 -0.1978
  378ACOH    H111922   5.911   1.745   4.974 -1.4167 -1.3052 -0.5529
  378ACOH    H211923   5.864   1.911   4.997  2.7458 -1.1497  1.1526
  378ACOH    H311924   5.893   1.832   4.826  0.3070  3.4261 -0.1076
  379ACOH    H411925   5.783   1.492   5.198 -0.4172  0.4860  0.7658
  379ACOH    O211926   5.834   1.575   5.200 -0.1308  0.3516 -0.7191
  379ACOH    C211927   5.761   1.660   5.279 -0.0435 -0.0052  0.0197
  379ACOH    O111928   5.692   1.610   5.365 -0.7374  0.1952  1.0232
  379ACOH    C111929   5.812   1.800   5.287  0.1998 -0.3495 -0.2025
  379ACOH    H111930   5.731   1.873   5.294 -0.3741 -0.9209 -0.7818
  379ACOH    H211931   5.877   1.830   5.205  2.3058 -1.7296  0.9080
  379ACOH    H311932   5.866   1.806   5.382  1.4268 -0.0877 -0.9058
  380ACOH    H411933   4.971   7.085   1.331 -0.4234  0.4793 -2.6638
  380ACOH    O211934   4.903   7.015   1.321  0.3096 -0.7056  0.0804
  380ACOH    C211935   4.936   6.896   1.375 -0.0250  0.1619 -0.1548
  380ACOH    O111936   5.034   6.874   1.449 -0.1089 -0.0878  0.2880
  380ACOH    C111937   4.832   6.799   1.346  0.2081 -0.3973 -0.4294
  380ACOH    H111938   4.738   6.849   1.320  1.1033  2.0227  0.8361
  380ACOH    H211939   4.823   6.741   1.439  0.3739  1.5238  0.8072
  380ACOH    H311940   4.863   6.734   1.265  2.6522 -1.7885  1.5466
  381ACOH    H411941   9.824   2.670   1.650 -3.4064  0.5516  1.3474
  381ACOH    O211942   9.842   2.609   1.723 -0.1610  0.4745  0.5238
  381ACOH    C211943   9.742   2.639   1.817 -0.1582  0.2153  0.3247
  381ACOH    O111944   9.677   2.744   1.821 -0.4193  0.2712  0.1656
  381ACOH    C111945   9.720   2.527   1.908  0.2103 -0.3310 -0.4903
  381ACOH    H111946   9.749   2.433   1.861 -1.3924 -0.8876 -0.3925
  381ACOH    H211947   9.616   2.520   1.939  0.0832  1.8650 -0.3739
  381ACOH    H311948   9.776   2.550   1.999 -1.3585  1.1505  0.1186
  382ACOH    H411949   5.472   5.660   0.915  0.3313 -3.2495  0.2512
  382ACOH    O211950   5.569   5.669   0.907  0.0480 -0.2013 -0.0456
  382ACOH    C211951   5.606   5.712   0.784 -0.1196  0.2065 -0.1821
  382ACOH    O111952   5.531   5.741   0.695  0.0572 -0.4687  0.4941
  382ACOH    C111953   5.750   5.760   0.778 -0.0877  0.1438  0.6404
  382ACOH    H111954   5.759   5.847   0.713 -1.5493 -0.0159  0.2184
  382ACOH    H211955   5.810   5.677   0.739  0.6264  0.0057  1.9968
  382ACOH    H311956   5.791   5.781   0.877  0.2918  1.0042  0.3006
  383ACOH    H411957   5.376   0.554   0.299 -1.1585  0.1921  1.5829
  383ACOH    O211958   5.372   0.629   0.238  0.1010 -0.9271  0.0737
  383ACOH    C211959   5.450   0.731   0.286 -0.2256  0.2096  0.7323
  383ACOH    O111960   5.520   0.732   0.384 -0.2443  0.2061 -0.1838
  383ACOH    C111961   5.437   0.853   0.196  0.6485  0.3436 -0.1065
  383ACOH    H111962   5.506   0.933   0.222  2.0281 -0.3892 -1.5112
  383ACOH    H211963   5.336   0.884   0.223  1.0162  1.9803 -0.5802
  383ACOH    H311964   5.443   0.824   0.092  0.4488 -2.2014  0.5505
  384ACOH    H411965   7.096   1.224   5.337 -0.9712  0.2075  0.2536
  384ACOH    O211966   7.156   1.255   5.407  0.1669  0.0117 -0.6174
  384ACOH    C211967   7.107   1.374   5.458  0.2354  0.2853  0.3017
  384ACOH    O111968   6.998   1.426   5.430 -0.4220  0.3195  0.0714
  384ACOH    C111969   7.196   1.431   5.558 -0.0129  0.5412  0.6667
  384ACOH    H111970   7.235   1.526   5.521  0.7113 -0.0110 -0.0351
  384ACOH    H211971   7.288   1.374   5.575 -0.7374 -0.6229  0.7237
  384ACOH    H311972   7.137   1.430   5.649 -0.6821  2.2707  0.2686
  385ACOH    H411973   5.286   7.795   1.370 -1.5870 -0.6388 -0.1980
  385ACOH    O211974   5.251   7.822   1.283 -0.7701  0.0522 -0.3162
  385ACOH    C211975   5.120   7.775   1.279 -0.2359  0.0604 -0.6376
  385ACOH    O111976   5.043   7.759   1.375 -0.2831  0.3494 -0.1832
  385ACOH    C111977   5.081   7.748   1.141 -0.0394  0.1351 -0.6449
  385ACOH    H111978   4.976   7.721   1.149 -0.4831  2.4429  2.1029
  385ACOH    H211979   5.133   7.653   1.124 -2.2038 -0.6348 -3.2271
  385ACOH    H311980   5.103   7.828   1.071  2.1291  0.8500  0.8059
  386ACOH    H411981   4.482   9.693   0.776  0.5600 -0.1318  1.0920
  386ACOH    O211982   4.523   9.772   0.738 -0.0074 -0.3200  0.0923
  386ACOH    C211983   4.421   9.856   0.730 -0.3912  0.3754 -0.2431
  386ACOH    O111984   4.310   9.841   0.771 -0.1730  0.2107  0.4862
  386ACOH    C111985   4.456   9.981   0.651  0.6090  0.4564 -0.0510
  386ACOH    H111986   4.478   9.952   0.548  0.6405  1.3663 -0.3072
  386ACOH    H211987   4.532  10.027   0.715 -0.0968  1.1230  0.3151
  386ACOH    H311988   4.372  10.049   0.660 -0.5346 -1.0904  1.2649
  387ACOH    H411989   0.583   7.724   2.183 -1.7183 -0.7193  0.8680
  387ACOH    O211990   0.581   7.807   2.235 -0.1888  0.2875 -0.6647
  387ACOH    C211991   0.522   7.785   2.351  0.0220  0.8058 -0.1661
  387ACOH    O111992   0.462   7.684   2.390 -0.3897 -0.1525 -0.3391
  387ACOH    C111993   0.513   7.901   2.440  0.5925 -0.6490 -0.2171
  387ACOH    H111994   0.553   7.988   2.389  1.3164 -1.3597 -0.8616
  387ACOH    H211995   0.570   7.871   2.528 -1.0036  1.2806  1.5443
  387ACOH    H311996   0.409   7.911   2.473  0.6227 -1.3083  0.0896
  388ACOH    H411997   3.104   4.176   0.391 -1.0802  2.2315 -1.8291
  388ACOH    O211998   3.051   4.095   0.384  0.8297  0.7831  0.0099
  388ACOH    C211999   3.007   4.092   0.260  0.6077 -0.2915 -0.1988
  388ACOH    O112000   3.043   4.159   0.167  0.0951 -0.1245  0.2143
  388ACOH    C112001   2.936   3.964   0.245  0.5060 -0.6535  0.0265
  388ACOH    H112002   3.001   3.881   0.273  0.6511 -0.8412 -0.8713
  388ACOH    H212003   2.890   3.955   0.147 -1.1745 -1.4375  0.8603
  388ACOH    H312004   2.848   3.962   0.310  0.6951  1.6421  0.4301
  389ACOH    H412005   7.396   6.548   3.359 -1.6926  0.6312 -0.6961
  389ACOH    O212006   7.407   6.498   3.276  0.3946 -0.2330  0.0814
  389ACOH    C212007   7.352   6.558   3.173  0.4149 -0.4616 -0.5340
  389ACOH    O112008   7.271   6.649   3.173  0.9418 -0.0572 -0.2430
  389ACOH    C112009   7.380   6.475   3.056 -0.9763  0.2755  0.0940
  389ACOH    H112010   7.314   6.388   3.068  0.6364 -0.9518  0.1950
  389ACOH    H212011   7.482   6.440   3.048 -0.8011  0.7504  0.2627
  389ACOH    H312012   7.352   6.533   2.968 -1.5312 -0.1082  0.0123
  390ACOH    H412013   2.652   6.253   5.273  1.4844  0.2958 -0.2295
  390ACOH    O212014   2.681   6.270   5.364 -0.0789  0.1045  0.3174
  390ACOH    C212015   2.770   6.176   5.396 -0.1814 -0.5475 -0.3830
  390ACOH    O112016   2.829   6.102   5.317 -0.0237 -0.1254 -0.1790
  390ACOH    C112017   2.817   6.193   5.534  0.4912  0.0923 -0.3483
  390ACOH    H112018   2.818   6.297   5.567  1.8126 -0.6623  2.1542
  390ACOH    H212019   2.919   6.160   5.551  0.1259 -2.1036 -2.2073
  390ACOH    H312020   2.743   6.140   5.595 -3.2868  1.6243 -3.3552
  391ACOH    H412021   5.159   0.948   0.439 -2.7821  2.1002  3.4473
  391ACOH    O212022   5.221   1.022   0.442  0.1415 -0.0269 -0.2945
  391ACOH    C212023   5.239   1.032   0.573 -0.1653 -1.2657  0.0416
  391ACOH    O112024   5.147   1.049   0.653  0.2392  0.3925 -0.1986
  391ACOH    C112025   5.372   1.091   0.604 -0.3016 -0.0469 -0.4018
  391ACOH    H112026   5.352   1.198   0.599 -1.4034 -0.2628 -0.7013
  391ACOH    H212027   5.457   1.077   0.537  1.3277  0.3581  1.5466
  391ACOH    H312028   5.397   1.058   0.704 -3.5474  0.7682  0.7489
  392ACOH    H412029   8.403   4.803   2.969 -1.0496  1.0389 -0.0366
  392ACOH    O212030   8.362   4.776   2.885 -0.1029 -0.1316 -0.1430
  392ACOH    C212031   8.372   4.644   2.872  0.2210  0.7637 -0.0225
  392ACOH    O112032   8.432   4.563   2.941 -0.3603  0.6902 -0.5138
  392ACOH    C112033   8.299   4.597   2.752  0.2262  1.2139  0.1917
  392ACOH    H112034   8.297   4.671   2.672  0.9333 -0.3976 -1.3555
  392ACOH    H212035   8.198   4.573   2.786  0.4789 -0.8771 -0.4813
  392ACOH    H312036   8.347   4.508   2.711 -1.2031  0.2061  0.6256
  393ACOH    H412037   5.547   6.851   2.114 -0.5321  0.8281 -0.4892
  393ACOH    O212038   5.518   6.759   2.123  0.0739  0.7217  0.3936
  393ACOH    C212039   5.595   6.697   2.214 -0.4468  0.2249  1.1115
  393ACOH    O112040   5.685   6.750   2.282  0.3211  0.3817  0.4626
  393ACOH    C112041   5.547   6.562   2.240  0.4110 -0.3307  0.7175
  393ACOH    H112042   5.490   6.522   2.156  1.3199 -0.6583  0.2484
  393ACOH    H212043   5.488   6.558   2.331 -0.2787 -2.7536  0.2110
  393ACOH    H312044   5.632   6.495   2.253  1.3154  0.0968 -2.5944
  394ACOH    H412045   8.429   4.171   2.202  0.7204 -0.9485  1.9152
  394ACOH    O212046   8.337   4.164   2.232  0.0086  0.5613  0.1441
  394ACOH    C212047   8.265   4.182   2.119 -0.3956  0.0603  0.0155
  394ACOH    O112048   8.299   4.152   2.006 -0.5969  0.2912  0.3449
  394ACOH    C112049   8.133   4.228   2.160 -0.1492 -0.0718  0.2275
  394ACOH    H112050   8.144   4.336   2.154 -0.5133 -0.0236  0.3958
  394ACOH    H212051   8.116   4.184   2.259  5.2685  1.3726  1.9374
  394ACOH    H312052   8.054   4.194   2.093 -1.8410  2.4754  0.8673
  395ACOH    H412053   0.530   6.486   5.108  1.2389 -0.5655 -0.1331
  395ACOH    O212054   0.527   6.510   5.202  0.1089 -0.3150 -0.2244
  395ACOH    C212055   0.569   6.637   5.207  0.8874 -1.0668 -0.4262
  395ACOH    O112056   0.673   6.670   5.155  0.7039  0.0734  0.3215
  395ACOH    C112057   0.503   6.714   5.318 -0.2654 -0.6072  0.6639
  395ACOH    H112058   0.478   6.658   5.409 -3.8369  0.1517  0.2538
  395ACOH    H212059   0.408   6.755   5.283 -0.3202 -0.2372  1.2350
  395ACOH    H312060   0.562   6.800   5.348 -2.5977  1.3956 -0.2940
  396ACOH    H412061   2.790   2.530   2.787 -1.5046  1.4723  0.7956
  396ACOH    O212062   2.728   2.458   2.768  0.1943  0.1583  0.2300
  396ACOH    C212063   2.794   2.341   2.736 -0.0953 -0.4749  0.4272
  396ACOH    O112064   2.905   2.349   2.691  0.6270  0.1085  0.2081
  396ACOH    C112065   2.694   2.236   2.713  0.2560 -0.0325  0.0135
  396ACOH    H112066   2.740   2.151   2.662 -1.3688 -0.8940 -0.0574
  396ACOH    H212067   2.619   2.270   2.641 -0.9730  1.0927  1.7701
  396ACOH    H312068   2.639   2.202   2.801 -1.9570  1.9785 -0.5410
  397ACOH    H412069   5.288   5.811   1.418  0.5601  1.9672  0.3053
  397ACOH    O212070   5.365   5.793   1.362 -0.3834  0.2907 -0.4860
  397ACOH    C212071   5.353   5.666   1.327 -0.1655  0.5472  0.1102
  397ACOH    O112072   5.246   5.613   1.301  1.1054 -0.1352 -0.6858
  397ACOH    C112073   5.479   5.623   1.263  0.0047  0.0224  0.5134
  397ACOH    H112074   5.556   5.619   1.340 -0.1134  0.1184  0.6347
  397ACOH    H212075   5.510   5.694   1.186 -2.5904  0.6622  0.0274
  397ACOH    H312076   5.469   5.523   1.221 -0.8876  0.1734  0.3626
  398ACOH    H412077   3.470   6.752   5.663 -0.5395 -0.6152  0.4077
  398ACOH    O212078   3.528   6.674   5.665  0.3871  0.0597  0.3930
  398ACOH    C212079   3.468   6.597   5.762  0.5827 -0.4258  0.0464
  398ACOH    O112080   3.349   6.597   5.793  0.1616 -0.3250  0.2364
  398ACOH    C112081   3.555   6.503   5.839 -0.1530  0.0984 -0.4526
  398ACOH    H112082   3.548   6.400   5.803  0.5585 -0.2072  0.2460
  398ACOH    H212083   3.520   6.510   5.942 -0.6301  1.2939 -0.6899
  398ACOH    H312084   3.662   6.525   5.834 -0.7193  3.0697 -0.1054
  399ACOH    H412085   3.833   3.895   1.914  0.1302 -1.4770  0.1973
  399ACOH    O212086   3.810   3.881   2.007 -0.2959 -0.7445  0.2002
  399ACOH    C212087   3.918   3.825   2.065 -0.1284 -0.3749 -0.3175
  399ACOH    O112088   4.032   3.870   2.058  0.0176 -0.0611 -0.1276
  399ACOH    C112089   3.874   3.745   2.188 -0.0295  0.2332  0.5459
  399ACOH    H112090   3.891   3.637   2.181  0.8271  0.5077 -1.8337
  399ACOH    H212091   3.765   3.755   2.192 -0.0436  0.9104 -1.1965
  399ACOH    H312092   3.914   3.785   2.281  2.2415 -0.6005 -0.0466
  400ACOH    H412093   2.484   5.566   2.798 -0.2181  1.8935 -1.0354
  400ACOH    O212094   2.573   5.560   2.760  0.1275 -0.2082  0.0086
  400ACOH    C212095   2.554   5.488   2.646 -0.0982  0.6904  0.2598
  400ACOH    O112096   2.455   5.482   2.580  0.7607 -0.5389 -0.0569
  400ACOH    C112097   2.687   5.452   2.595 -0.1755 -0.2253 -0.5174
  400ACOH    H112098   2.680   5.438   2.487  2.3391 -0.1862 -0.7239
  400ACOH    H212099   2.723   5.363   2.646 -1.9977  0.9537  3.0160
  400ACOH    H312100   2.751   5.537   2.620 -2.3723  1.0069  1.0697
  401ACOH    H412101   5.313   3.028   0.033 -1.6352  0.8635  0.8300
  401ACOH    O212102   5.257   2.958  -0.005  0.3376  0.1294 -0.8157
  401ACOH    C212103   5.223   2.991  -0.133  0.0460  0.3872  0.7569
  401ACOH    O112104   5.254   3.088  -0.199  0.8417  0.3270  0.0635
  401ACOH    C112105   5.126   2.893  -0.186 -0.1540  0.0627 -0.4843
  401ACOH    H112106   5.101   2.905  -0.292  1.3291 -1.8512 -1.0852
  401ACOH    H212107   5.036   2.907  -0.126  0.6733  0.7031  0.6249
  401ACOH    H312108   5.169   2.794  -0.172  0.9751  0.4484 -1.1513
  402ACOH    H412109   9.745   0.130   4.775  0.6662 -0.6521 -0.5816
  402ACOH    O212110   9.785   0.206   4.730  0.6162 -0.2544  0.0387
  402ACOH    C212111   9.914   0.203   4.763  0.0097 -0.4851  0.1523
  402ACOH    O112112   9.959   0.171   4.869 -0.0939  0.1612 -0.6403
  402ACOH    C112113   9.975   0.291   4.661  0.5086  0.4611 -0.7767
  402ACOH    H112114  10.081   0.265   4.656  0.5138 -0.1202  1.5249
  402ACOH    H212115   9.952   0.392   4.695 -2.8528 -1.0368  1.7200
  402ACOH    H312116   9.932   0.266   4.565 -0.2382  0.1415 -0.3593
  403ACOH    H412117   4.307   6.340   3.037 -0.2389  0.4273  0.6767
  403ACOH    O212118   4.365   6.271   3.071 -0.0459  0.1805 -0.1360
  403ACOH    C212119   4.340   6.246   3.206  0.2595  0.6270 -0.4423
  403ACOH    O112120   4.250   6.296   3.276 -0.4583  0.2816  0.2384
  403ACOH    C112121   4.441   6.147   3.253 -0.1631  0.3713 -0.0635
  403ACOH    H112122   4.438   6.130   3.361  0.2758 -1.8080 -0.3617
  403ACOH    H212123   4.536   6.193   3.228 -0.4059  2.5284  2.6987
  403ACOH    H312124   4.421   6.054   3.199  2.3306 -0.9026  1.1109
  404ACOH    H412125   7.075   6.327   4.141 -1.5826 -0.2819  0.7493
  404ACOH    O212126   7.043   6.268   4.071  0.2609  0.1075 -0.4619
  404ACOH    C212127   6.909   6.278   4.075 -0.1155  0.1600  0.2720
  404ACOH    O112128   6.837   6.353   4.139 -0.4709  0.5435 -0.0220
  404ACOH    C112129   6.851   6.179   3.982 -0.9249 -0.1410 -0.6574
  404ACOH    H112130   6.789   6.225   3.906  0.3507  0.5319 -1.2867
  404ACOH    H212131   6.791   6.109   4.042  0.8138 -0.0805  1.1927
  404ACOH    H312132   6.923   6.133   3.915  1.5283 -0.1707  1.9252
  405ACOH    H412133   6.987   7.847   3.570  0.6615  1.6975 -0.8839
  405ACOH    O212134   7.053   7.855   3.641  0.1635  0.0443 -0.2120
  405ACOH    C212135   7.029   7.759   3.724 -0.3188  0.1789 -0.4822
  405ACOH    O112136   6.929   7.684   3.739 -0.0843 -0.3082  0.6031
  405ACOH    C112137   7.139   7.761   3.823 -0.0827 -0.1057 -0.0836
  405ACOH    H112138   7.223   7.716   3.771 -0.3584  0.8039 -1.3372
  405ACOH    H212139   7.107   7.709   3.914 -2.2610 -0.7541 -1.1826
  405ACOH    H312140   7.165   7.864   3.848  1.3912 -0.4380 -0.2088
  406ACOH    H412141   5.568   2.925   3.014  0.2357 -0.3978 -0.2701
  406ACOH    O212142   5.663   2.946   3.023  0.1495 -0.2046  0.1821
  406ACOH    C212143   5.733   2.887   2.926  0.9121 -0.0498  0.2240
  406ACOH    O112144   5.687   2.817   2.836 -0.1092  0.0204 -0.3359
  406ACOH    C112145   5.880   2.881   2.955  0.3941 -0.3034  0.1056
  406ACOH    H112146   5.942   2.908   2.869 -1.2861 -0.5585 -1.2124
  406ACOH    H212147   5.906   2.776   2.967  0.3962 -0.4135 -0.8327
  406ACOH    H312148   5.903   2.936   3.046  1.0167 -1.6587  0.7937
  407SOL     OW12149   2.816   4.548   0.819  0.2386  0.0831 -0.5126
  407SOL    HW112150   2.881   4.471   0.813  1.1680  0.5071  3.2487
  407SOL    HW212151   2.867   4.633   0.831 -0.9452  0.3424  3.2321
  408SOL     OW12152   7.927   7.470   5.087  0.0402 -0.0903 -0.6069
  408SOL    HW112153   7.964   7.377   5.094  0.9922  0.2306 -1.2706
  408SOL    HW212154   8.001   7.536   5.099 -0.1802  0.5643 -2.6567
  409SOL     OW12155   1.981   3.421   4.782 -0.2180 -0.5962  0.2192
  409SOL    HW112156   1.902   3.478   4.807  1.0623  0.8701  0.9624
  409SOL    HW212157   2.041   3.411   4.861  0.7095 -1.1271 -0.5503
  410SOL     OW12158   2.633   3.789   1.525 -0.2730 -0.1466  0.2192
  410SOL    HW112159   2.594   3.832   1.606 -0.1804  0.5337 -0.0879
  410SOL    HW212160   2.612   3.692   1.525 -2.2330  0.2486 -0.0835
  411SOL     OW12161   9.314   7.346   2.562  0.2396  0.1273 -0.3928
  411SOL    HW112162   9.345   7.364   2.468  1.3119 -0.3524 -0.1410
  411SOL    HW212163   9.302   7.433   2.609  1.3198  0.3319 -0.4714
  412SOL     OW12164   2.325   4.586   0.714  0.5531 -0.2730  0.0871
  412SOL    HW112165   2.294   4.572   0.620  1.1603 -0.5299 -0.0717
  412SOL    HW212166   2.247   4.573   0.776  0.2271 -0.4343 -0.3493
  413SOL     OW12167   2.208   4.671   2.584 -0.1157  0.2835  0.1857
  413SOL    HW112168   2.248   4.609   2.516 -0.2552 -0.1383  0.4878
  413SOL    HW212169   2.120   4.635   2.614  0.1629  0.2234  0.9398
  414SOL     OW12170   6.405   1.557   4.504  0.3517  0.5959 -0.1188
  414SOL    HW112171   6.313   1.536   4.472  0.4035  1.2700 -0.7081
  414SOL    HW212172   6.472   1.504   4.451  0.3605  0.7913 -0.3036
  415SOL     OW12173   4.256   6.277   0.383 -0.4413  0.1647 -0.2060
  415SOL    HW112174   4.165   6.235   0.380 -0.2950 -0.4605  2.6096
  415SOL    HW212175   4.264   6.332   0.466  1.8521 -0.0075 -0.2923
  416SOL     OW12176   3.629   9.765   3.391  0.1860  0.0547 -0.1019
  416SOL    HW112177   3.672   9.696   3.450 -0.2706 -0.9849 -0.9600
  416SOL    HW212178   3.637   9.736   3.296 -1.3341  0.4497 -0.3596
  417SOL     OW12179   6.117   8.323   2.221  0.4182 -0.0337 -0.0600
  417SOL    HW112180   6.111   8.416   2.259  0.5531  0.6148 -1.5816
  417SOL    HW212181   6.182   8.323   2.144 -0.4444 -1.1373 -0.7953
  418SOL     OW12182   1.934   3.350   4.508  0.0534 -0.2608 -0.2033
  418SOL    HW112183   1.836   3.342   4.491  0.0879 -0.3703 -0.3504
  418SOL    HW212184   1.950   3.377   4.603 -0.0421 -2.7763  0.5529
  419SOL     OW12185   0.090   0.362   0.416 -0.5233 -0.2698 -0.2024
  419SOL    HW112186   0.063   0.266   0.422 -1.1534 -0.0217  1.1020
  419SOL    HW212187   0.025   0.412   0.359  0.4299 -0.8298 -1.8091
  420SOL     OW12188   2.435   3.278   1.431 -0.3143 -0.1199 -0.2665
  420SOL    HW112189   2.436   3.231   1.519 -1.1687  1.4728  0.6218
  420SOL    HW212190   2.518   3.255   1.380  0.8540 -0.0163  1.5350
  421SOL     OW12191   3.898   1.351   2.012 -0.8195  0.4313 -0.2847
  421SOL    HW112192   3.832   1.371   2.084 -1.8581 -0.4735 -0.9613
  421SOL    HW212193   3.852   1.353   1.923  0.0993 -0.0347 -0.7823
  422SOL     OW12194   1.680   4.976   6.689  0.0192 -0.9364  0.0585
  422SOL    HW112195   1.763   4.995   6.638  0.1614 -0.0406  0.6207
  422SOL    HW212196   1.625   4.909   6.639 -0.1593  0.4198 -1.5967
  423SOL     OW12197   3.789   1.695   1.552 -0.0239  0.5811  0.6095
  423SOL    HW112198   3.879   1.653   1.563 -0.3519 -0.1504  0.5292
  423SOL    HW212199   3.734   1.677   1.633  0.0282  1.3400  0.8102
  424SOL     OW12200   9.496   6.011   1.064  0.4992  0.6277 -0.1768
  424SOL    HW112201   9.397   6.003   1.054  0.5978  0.3837 -0.9545
  424SOL    HW212202   9.518   6.045   1.156 -0.2892  0.3543  0.1103
  425SOL     OW12203   8.556   6.306   6.631 -0.4345 -0.1258  0.5253
  425SOL    HW112204   8.618   6.384   6.623 -0.2815  0.0665  3.1524
  425SOL    HW212205   8.578   6.238   6.561  0.8071  1.2526 -0.4407
  426SOL     OW12206   0.536   5.172   5.749 -0.1248  0.1264 -0.1085
  426SOL    HW112207   0.510   5.241   5.682 -0.2856  1.4624  1.3025
  426SOL    HW212208   0.522   5.208   5.841  0.4953 -1.5267  0.6555
  427SOL     OW12209   1.401   2.917   3.105  0.2645  0.0306  0.2832
  427SOL    HW112210   1.341   2.840   3.123  0.1529 -0.1634 -0.8641
  427SOL    HW212211   1.496   2.884   3.098  0.3344  0.1357  0.7385
  428SOL     OW12212   5.830   1.566   3.016 -0.4048 -0.5665  0.2843
  428SOL    HW112213   5.767   1.633   2.976 -0.2968 -1.7715 -1.9807
  428SOL    HW212214   5.815   1.561   3.115 -1.3378  1.7973  0.2907
  429SOL     OW12215   9.877   8.680   1.916  0.3284  0.1019  0.6105
  429SOL    HW112216   9.890   8.583   1.935  0.6299 -0.0358 -0.2641
  429SOL    HW212217   9.913   8.734   1.992  1.3169 -0.4402  0.5389
  430SOL     OW12218   1.872   6.135   3.875 -0.1423 -0.5418  0.5352
  430SOL    HW112219   1.883   6.234   3.868 -0.7915 -0.4010  1.4077
  430SOL    HW212220   1.922   6.090   3.800  1.3848  0.3619  0.9810
  431SOL     OW12221   2.164   8.084   2.714  0.3626  0.3236 -0.1383
  431SOL    HW112222   2.080   8.033   2.733 -0.6243  1.7717 -0.5409
  431SOL    HW212223   2.237   8.021   2.688 -0.0244 -1.1347  2.2229
  432SOL     OW12224   0.203   9.898   4.616 -0.8152 -0.7657  0.1644
  432SOL    HW112225   0.274   9.912   4.685 -1.4878  1.9345  0.3731
  432SOL    HW212226   0.243   9.854   4.536  0.9347 -0.0530  0.6202
  433SOL     OW12227   7.747   2.592   3.494 -0.5483 -0.1676  0.4936
  433SOL    HW112228   7.682   2.579   3.569  0.4001  0.4430  1.4445
  433SOL    HW212229   7.703   2.571   3.407 -1.7562 -0.5905  1.1977
  434SOL     OW12230   9.756   9.653   0.903 -0.0107  0.3457  0.0258
  434SOL    HW112231   9.676   9.630   0.849  0.9221  1.1504 -1.7323
  434SOL    HW212232   9.835   9.600   0.871  0.1692 -0.4950  1.7814
  435SOL     OW12233   7.762   9.182   1.196  0.0768 -0.4154  0.3457
  435SOL    HW112234   7.753   9.083   1.190  0.6629 -0.5123  1.0046
  435SOL    HW212235   7.696   9.217   1.263 -0.8534 -0.2411 -0.6529
  436SOL     OW12236   7.750   0.535   0.895 -0.0406 -0.4004 -0.4428
  436SOL    HW112237   7.700   0.606   0.845  0.4927  0.3069  0.0246
  436SOL    HW212238   7.703   0.447   0.883 -1.2280  0.1944 -0.2423
  437SOL     OW12239   6.848   8.367   3.522 -0.3613 -0.0235 -0.4922
  437SOL    HW112240   6.827   8.286   3.578 -1.1074  2.0758  2.4268
  437SOL    HW212241   6.946   8.387   3.528 -0.0153 -1.1905 -1.9529
  438SOL     OW12242   0.194   2.097   0.449  0.3861 -0.3596 -0.1080
  438SOL    HW112243   0.114   2.141   0.408  0.3940 -0.1678  0.0793
  438SOL    HW212244   0.178   1.999   0.457  0.1087 -0.2993  0.0702
  439SOL     OW12245   2.141   5.127   4.208  0.2254 -1.0796  0.5145
  439SOL    HW112246   2.042   5.140   4.199  0.3171 -0.7483 -0.0254
  439SOL    HW212247   2.168   5.043   4.160  0.4847 -0.1343 -1.0574
  440SOL     OW12248   0.444   3.873   1.525 -0.0547  1.1872  0.0348
  440SOL    HW112249   0.443   3.777   1.555  0.3838  0.9356 -0.7296
  440SOL    HW212250   0.479   3.878   1.431 -1.2285  1.9795 -0.3719
  441SOL     OW12251   2.183   2.543   2.460 -0.1546  0.3634 -0.1639
  441SOL    HW112252   2.086   2.527   2.480 -0.4593  0.7066 -1.3327
  441SOL    HW212253   2.201   2.641   2.458  0.3009  0.2907  0.4481
  442SOL     OW12254   4.211   9.934   2.865  0.2102 -0.4793 -0.2869
  442SOL    HW112255   4.244  10.023   2.833  1.2584 -0.7495  0.0467
  442SOL    HW212256   4.144   9.898   2.799 -0.2922  0.5867 -0.3754
  443SOL     OW12257   3.495   2.546   1.452 -0.0296  0.2077  0.2050
  443SOL    HW112258   3.561   2.538   1.526 -0.9185  1.0877  1.1062
  443SOL    HW212259   3.537   2.515   1.366  0.5434 -2.1169  1.2984
  444SOL     OW12260   0.677   7.817   1.725  0.0344 -0.3568 -0.2343
  444SOL    HW112261   0.707   7.809   1.630  0.2862  0.4174 -0.2202
  444SOL    HW212262   0.593   7.871   1.730  0.6849  0.6285  0.1039
  445SOL     OW12263   5.764   0.993   4.654  0.1307  0.0257  0.6120
  445SOL    HW112264   5.703   1.040   4.718  0.5386  1.7671 -0.2350
  445SOL    HW212265   5.765   1.042   4.567  1.3647 -0.9938  0.0309
  446SOL     OW12266   2.270   2.771   1.981  0.0867  0.6099  0.0354
  446SOL    HW112267   2.273   2.850   1.921  1.1668  0.6263  0.0933
  446SOL    HW212268   2.246   2.800   2.073  0.8435  0.9340  0.1385
  447SOL     OW12269   3.581   9.568   1.901 -0.4789 -0.1873  0.3252
  447SOL    HW112270   3.598   9.604   1.993 -1.4327  2.0912 -0.3526
  447SOL    HW212271   3.521   9.631   1.851 -0.7655 -1.8842 -1.5312
  448SOL     OW12272   0.568   4.426   2.179  0.3073 -0.5138 -0.5301
  448SOL    HW112273   0.640   4.462   2.120  1.2831 -1.2346  0.2034
  448SOL    HW212274   0.608   4.391   2.264 -1.1801  1.3215  0.9696
  449SOL     OW12275   1.491   4.461   5.315 -0.0323  0.0460  0.2977
  449SOL    HW112276   1.408   4.516   5.308 -0.2730 -0.1027  1.8585
  449SOL    HW212277   1.467   4.364   5.316  0.3150 -0.0757 -1.3022
  450SOL     OW12278   0.410   1.760   1.796 -0.1790 -0.2516  0.2545
  450SOL    HW112279   0.347   1.808   1.857  0.7390 -1.4701  2.1955
  450SOL    HW212280   0.412   1.806   1.707 -2.0582  1.1401  0.9052
  451SOL     OW12281   6.234   4.513   0.106 -0.3177  0.1723 -0.3557
  451SOL    HW112282   6.301   4.586   0.123  0.4990 -1.0788  1.9969
  451SOL    HW212283   6.142   4.546   0.130  0.1232  0.2847  1.2723
  452SOL     OW12284   1.653   8.054   4.125 -0.0575  0.2873  0.2003
  452SOL    HW112285   1.581   8.110   4.084 -0.5677  0.5573  1.4425
  452SOL    HW212286   1.612   7.976   4.172  0.3496  1.1784  2.0761
  453SOL     OW12287   7.619   0.710   0.713 -0.2669  0.2417 -0.2240
  453SOL    HW112288   7.526   0.691   0.680 -0.2000  1.0080 -0.8472
  453SOL    HW212289   7.635   0.808   0.713  0.2795  0.1523  0.6180
  454SOL     OW12290   7.361   1.255   4.948 -0.8185  0.2799  0.4023
  454SOL    HW112291   7.362   1.292   5.041 -0.7784  0.5890  0.2799
  454SOL    HW212292   7.378   1.157   4.951 -2.9823 -0.0988  0.9027
  455SOL     OW12293   3.477   5.109   1.733  0.2547 -1.1016  0.3006
  455SOL    HW112294   3.568   5.078   1.759  0.8594 -0.8696 -1.4625
  455SOL    HW212295   3.448   5.062   1.650 -1.1842 -1.0713  0.7695
  456SOL     OW12296   1.058   8.657   0.093  0.1645 -0.1762 -0.3076
  456SOL    HW112297   1.106   8.584   0.044  0.3922  0.2360 -0.6980
  456SOL    HW212298   1.023   8.724   0.028  0.9166  0.6410  0.1148
  457SOL     OW12299   4.205   3.674   2.997 -0.3404 -0.0682 -0.1830
  457SOL    HW112300   4.259   3.637   3.073 -0.4613 -0.8122 -0.4571
  457SOL    HW212301   4.240   3.638   2.911 -0.0394  0.9801 -0.5027
  458SOL     OW12302   5.506   2.037   4.327 -0.0340 -0.2571 -0.2485
  458SOL    HW112303   5.484   1.942   4.307  1.2309 -0.7179  0.5126
  458SOL    HW212304   5.434   2.077   4.383  1.3532 -1.9624  2.8515
  459SOL     OW12305   0.820   8.712   3.968  0.0295 -0.2147  0.3317
  459SOL    HW112306   0.891   8.652   3.930  0.3614  0.5121 -0.2150
  459SOL    HW212307   0.751   8.730   3.898  1.2118  2.0155 -0.3091
  460SOL     OW12308   7.711   8.407   4.324 -0.1476  0.1953 -0.2794
  460SOL    HW112309   7.705   8.346   4.403 -0.1398 -1.0749 -1.2476
  460SOL    HW212310   7.706   8.502   4.355  0.8584 -0.2621  1.3396
  461SOL     OW12311   2.425   5.888   4.855 -0.3116  0.5097 -0.1350
  461SOL    HW112312   2.443   5.970   4.909  0.2131  0.7581 -0.6915
  461SOL    HW212313   2.511   5.848   4.823 -0.6052  0.2240 -0.5810
  462SOL     OW12314   3.502   7.278   1.891  0.7362 -0.0320  0.1945
  462SOL    HW112315   3.600   7.271   1.873  0.8347  2.2933 -0.3469
  462SOL    HW212316   3.482   7.242   1.982  2.3908  1.2065  1.0795
  463SOL     OW12317   9.628   2.990   0.780 -0.2645 -0.0246  0.2050
  463SOL    HW112318   9.584   2.916   0.730  0.0225 -0.5821  0.7815
  463SOL    HW212319   9.722   2.965   0.803 -0.3810  0.2429  0.9940
  464SOL     OW12320   1.581   4.358   3.804  0.2204  0.0759 -0.4569
  464SOL    HW112321   1.637   4.290   3.850  0.4706  0.4993 -0.1327
  464SOL    HW212322   1.497   4.373   3.856 -0.8698 -1.6248 -1.7081
  465SOL     OW12323   7.343   3.373   1.209 -0.1989  0.5178  0.5343
  465SOL    HW112324   7.397   3.411   1.134 -0.0221  0.3575  0.5801
  465SOL    HW212325   7.246   3.380   1.186 -0.1099 -0.5918 -0.2308
  466SOL     OW12326   7.295   8.720   5.226 -0.3569  0.1210  0.0860
  466SOL    HW112327   7.388   8.689   5.203 -0.2436  0.7909 -0.3787
  466SOL    HW212328   7.294   8.754   5.320 -0.1454  0.0688  0.1091
  467SOL     OW12329   5.516   4.715   6.703 -0.0292  0.2056  0.4264
  467SOL    HW112330   5.525   4.641   6.769  1.5175  2.8341  3.2859
  467SOL    HW212331   5.578   4.700   6.626  2.7173  0.2088  2.6055
  468SOL     OW12332   3.181   7.212   5.605  0.1931 -0.3709 -0.4451
  468SOL    HW112333   3.135   7.284   5.657  0.1527 -0.8319  0.1619
  468SOL    HW212334   3.274   7.242   5.581  0.5764 -0.5589  0.7830
  469SOL     OW12335   3.540   4.696   0.968  0.1177 -0.2880 -0.3232
  469SOL    HW112336   3.620   4.646   1.001 -0.1946 -0.3456  0.3593
  469SOL    HW212337   3.470   4.632   0.936 -0.1935 -0.2879  0.3450
  470SOL     OW12338   7.376   8.850   2.671 -0.2743 -0.8023 -0.5478
  470SOL    HW112339   7.302   8.903   2.713 -0.8146 -1.6267 -0.4622
  470SOL    HW212340   7.399   8.890   2.581 -0.6431 -0.3964 -0.4612
  471SOL     OW12341   4.192   8.762   0.809 -0.5576  0.0684 -0.2465
  471SOL    HW112342   4.107   8.813   0.823 -1.6468 -1.3916 -1.3958
  471SOL    HW212343   4.177   8.666   0.833  1.4194  0.2128  1.7262
  472SOL     OW12344   5.954   9.963   5.209 -0.5244 -0.0419 -0.3108
  472SOL    HW112345   6.037   9.987   5.160 -0.9840  1.3178 -0.4421
  472SOL    HW212346   5.934  10.033   5.278 -0.7772 -1.0901  0.7070
  473SOL     OW12347   5.440   7.426   2.756 -1.1941  0.4857  0.0305
  473SOL    HW112348   5.390   7.438   2.841  0.1783 -1.4662  1.1435
  473SOL    HW212349   5.395   7.358   2.699 -0.6420 -0.1898  0.3902
  474SOL     OW12350   8.733   5.857   2.622 -0.4701 -0.3039  0.0967
  474SOL    HW112351   8.795   5.922   2.667  0.9665 -0.2148 -1.9302
  474SOL    HW212352   8.658   5.907   2.580  0.1145 -0.0205 -0.6311
  475SOL     OW12353   0.254   8.047   4.480 -0.7512 -0.2249  0.2287
  475SOL    HW112354   0.185   8.084   4.418 -1.2154 -1.4001  0.0305
  475SOL    HW212355   0.309   8.122   4.517 -1.2063  0.5917 -0.7185
  476SOL     OW12356   9.991   8.604   0.681  0.2392 -0.2536  0.3181
  476SOL    HW112357  10.067   8.539   0.689  2.1488  2.0278  1.1252
  476SOL    HW212358   9.980   8.654   0.767 -0.3967  1.3634 -0.6735
  477SOL     OW12359   9.147   8.229   1.082 -0.5945  0.3689 -0.0670
  477SOL    HW112360   9.162   8.293   1.007  0.5085  0.7227  0.4539
  477SOL    HW212361   9.115   8.279   1.163  1.1196  0.3983  0.6112
  478SOL     OW12362   2.377   7.689   5.128 -0.6606  0.2471  0.3971
  478SOL    HW112363   2.362   7.785   5.153 -1.6789  0.5176 -1.2114
  478SOL    HW212364   2.446   7.683   5.056 -0.0306 -0.2979  1.0367
  479SOL     OW12365   9.850   8.696   2.900  0.2231  0.2758  0.1666
  479SOL    HW112366   9.832   8.792   2.878 -0.8488  0.5933  2.3292
  479SOL    HW212367   9.801   8.637   2.836 -0.5162  1.1713 -0.1010
  480SOL     OW12368   9.745   3.646   3.783 -0.2984  0.1706 -0.5630
  480SOL    HW112369   9.655   3.630   3.823  0.2391  1.0414  1.0688
  480SOL    HW212370   9.736   3.703   3.701 -1.1795  0.8952  0.0262
  481SOL     OW12371   1.427   6.044   0.542 -0.5807 -0.1694 -0.3676
  481SOL    HW112372   1.507   6.005   0.587 -0.8089 -0.9688 -0.6443
  481SOL    HW212373   1.447   6.138   0.513 -0.5620  0.4980  1.7441
  482SOL     OW12374   4.712   9.782   2.308 -0.1916 -0.4471  0.0358
  482SOL    HW112375   4.757   9.744   2.227  1.0443 -0.3941  0.7043
  482SOL    HW212376   4.705   9.713   2.379  0.2113 -0.0230  0.4940
  483SOL     OW12377   3.630   5.352   3.412 -0.4166 -0.0349  0.1764
  483SOL    HW112378   3.598   5.405   3.490 -0.8413  0.0400 -0.0500
  483SOL    HW212379   3.622   5.406   3.329 -0.8337 -0.4461 -0.0515
  484SOL     OW12380   6.582   1.890   2.199 -0.4233 -0.3329  0.1238
  484SOL    HW112381   6.495   1.860   2.161 -0.7513 -2.1165  2.1730
  484SOL    HW212382   6.643   1.918   2.125 -1.7419 -1.8078 -1.5578
  485SOL     OW12383   8.113   2.579   0.163 -0.2822  0.0586  0.2267
  485SOL    HW112384   8.042   2.646   0.187 -0.5830 -0.3439  0.4764
  485SOL    HW212385   8.069   2.497   0.125  0.0427 -0.2480  0.5122
  486SOL     OW12386   9.948   5.568   0.785 -0.2795  0.0480 -0.5566
  486SOL    HW112387   9.932   5.638   0.854  1.4231 -0.8403  0.7868
  486SOL    HW212388   9.885   5.492   0.800 -0.5300  0.2611 -0.5354
  487SOL     OW12389   7.102   1.426   4.858 -0.2053  0.0175 -0.5120
  487SOL    HW112390   7.157   1.396   4.936 -0.9898 -2.5892 -0.9230
  487SOL    HW212391   7.159   1.427   4.775 -0.8479 -3.2231 -1.0446
  488SOL     OW12392   0.029   2.315   0.828 -0.0584  0.3180  0.2524
  488SOL    HW112393   0.101   2.259   0.788  0.0396  0.1338  0.6896
  488SOL    HW212394   0.071   2.393   0.875 -0.2228  1.1317 -0.9321
  489SOL     OW12395   0.692   1.451   2.717  0.4856  0.0204  0.2148
  489SOL    HW112396   0.731   1.419   2.631 -0.1451 -1.3881  0.4382
  489SOL    HW212397   0.630   1.381   2.754 -3.1176  2.5528 -0.6890
  490SOL     OW12398   1.704   5.992   3.594 -0.0825 -0.0934  0.3540
  490SOL    HW112399   1.661   5.926   3.656  1.3940 -1.6173 -0.2218
  490SOL    HW212400   1.797   6.011   3.624  0.2528  0.0361 -0.7626
  491SOL     OW12401   8.520   4.680   5.047 -0.2007 -0.2065  0.4927
  491SOL    HW112402   8.472   4.607   4.999 -0.4117 -0.1966  0.6872
  491SOL    HW212403   8.503   4.767   5.001 -1.6199  0.0356  1.4479
  492SOL     OW12404   3.105   7.896   5.400  0.5157 -0.0518 -1.0526
  492SOL    HW112405   3.042   7.922   5.328  0.6644  1.6486 -0.5816
  492SOL    HW212406   3.168   7.827   5.365  0.5857  0.7508 -2.5560
  493SOL     OW12407   1.929   3.836   5.303 -0.2090  0.1940  0.1004
  493SOL    HW112408   1.963   3.864   5.214 -1.9543  1.5180 -0.1763
  493SOL    HW212409   1.846   3.782   5.292 -1.6625  2.1934  0.9844
  494SOL     OW12410   1.269   8.540   1.755 -0.2810  0.2796 -0.1623
  494SOL    HW112411   1.224   8.460   1.796 -0.1051 -0.5128 -1.4899
  494SOL    HW212412   1.201   8.613   1.743 -0.9390 -0.4378 -0.9190
  495SOL     OW12413   3.447   6.283   0.158 -0.1947 -0.4717 -0.4938
  495SOL    HW112414   3.369   6.263   0.218  0.5906 -0.9566  0.3680
  495SOL    HW212415   3.526   6.310   0.213  0.6326 -1.2439 -1.2848
  496SOL     OW12416   7.927   9.153   1.998  0.0603 -0.7298  0.7899
  496SOL    HW112417   8.020   9.143   2.033  0.2158  0.2428  0.6633
  496SOL    HW212418   7.931   9.188   1.904 -0.4439 -0.4455  0.8759
  497SOL     OW12419   3.814   2.897   3.185  1.0303 -0.2079  0.0964
  497SOL    HW112420   3.757   2.858   3.113  1.5544 -2.2838  0.7806
  497SOL    HW212421   3.902   2.850   3.188  2.0612  1.6898  0.3209
  498SOL     OW12422   3.956   2.489   3.082  0.6103  0.3697 -0.6415
  498SOL    HW112423   3.933   2.562   3.017 -0.5933  0.9338  0.4091
  498SOL    HW212424   3.873   2.455   3.125  1.2000 -1.4678 -0.9455
  499SOL     OW12425   7.818   9.677   1.977  0.1988  0.3346 -0.5588
  499SOL    HW112426   7.742   9.682   1.912 -0.6609 -0.6184  0.3532
  499SOL    HW212427   7.865   9.765   1.980  0.0018  0.5005 -2.1719
  500SOL     OW12428   1.880   3.647   3.792 -0.4301 -0.9665 -0.4290
  500SOL    HW112429   1.834   3.617   3.708 -1.4473  0.9323 -0.5900
  500SOL    HW212430   1.813   3.654   3.866 -0.3426  1.2364 -0.5136
  501SOL     OW12431   7.429   6.722   3.905 -0.1663  0.1473  0.3317
  501SOL    HW112432   7.483   6.669   3.971  2.1879 -3.8034 -4.4772
  501SOL    HW212433   7.491   6.783   3.854 -1.3225  0.3907 -0.7967
  502SOL     OW12434   1.468   5.982   4.131 -0.3648  0.5144  0.5461
  502SOL    HW112435   1.456   6.047   4.056  1.5875 -1.8797 -1.9298
  502SOL    HW212436   1.400   5.910   4.124  0.4436 -0.2481  0.4853
  503SOL     OW12437   9.922   1.421   2.242  0.3576 -0.6945  0.2267
  503SOL    HW112438   9.843   1.482   2.239  0.4651 -0.5624  0.1048
  503SOL    HW212439  10.006   1.476   2.245  0.3973 -0.8001  1.9938
  504SOL     OW12440   0.595   5.180   0.460  0.1778 -0.1514  0.3889
  504SOL    HW112441   0.505   5.140   0.473  0.2501 -1.0088 -1.6485
  504SOL    HW212442   0.607   5.208   0.365  1.5526  1.2285  0.9373
  505SOL     OW12443   3.270   1.567   1.526  0.3541  0.1460 -0.6292
  505SOL    HW112444   3.280   1.555   1.427  0.9542 -2.1688 -0.3146
  505SOL    HW212445   3.319   1.650   1.554  2.1606 -0.4249 -1.9658
  506SOL     OW12446   0.134   5.773   3.259 -0.4784  0.1845  0.1079
  506SOL    HW112447   0.098   5.859   3.295 -1.3246  0.7714 -2.0886
  506SOL    HW212448   0.095   5.697   3.310 -2.5006  0.9483 -0.2652
  507SOL     OW12449   3.023   8.244   2.103  0.0589  0.1118 -0.2950
  507SOL    HW112450   3.096   8.289   2.153 -0.7743 -0.5411  1.5552
  507SOL    HW212451   3.030   8.266   2.006  2.2921  0.5908 -0.0401
  508SOL     OW12452   3.314   2.644   2.887 -0.2145 -0.4415  0.0643
  508SOL    HW112453   3.340   2.597   2.803 -0.8147 -0.5250 -0.0733
  508SOL    HW212454   3.237   2.705   2.870 -1.9247 -2.2605  1.0587
  509SOL     OW12455   1.987   5.688   5.745 -0.2490  0.2880 -0.4756
  509SOL    HW112456   2.040   5.773   5.753 -0.6998  0.4443  1.0240
  509SOL    HW212457   1.889   5.710   5.746 -0.3622 -0.2001 -0.7559
  510SOL     OW12458   7.217   9.990   3.579 -0.1691 -0.6298 -0.0484
  510SOL    HW112459   7.182  10.026   3.493 -2.1247  2.7568  2.0457
  510SOL    HW212460   7.303  10.035   3.602  0.9280 -2.3278 -0.7052
  511SOL     OW12461   2.144   7.559   3.216 -0.3019  0.0704  0.1428
  511SOL    HW112462   2.107   7.560   3.309 -1.8974 -0.4217 -0.4576
  511SOL    HW212463   2.089   7.619   3.159  1.2100  1.0560 -0.2981
  512SOL     OW12464   8.658   1.220   2.148  0.4842 -0.3122  0.3704
  512SOL    HW112465   8.655   1.127   2.186 -0.8513 -0.6229 -0.4827
  512SOL    HW212466   8.652   1.216   2.049 -0.8177  0.7513  0.3927
  513SOL     OW12467   7.794   5.494   0.786  0.5851  0.0813 -0.0470
  513SOL    HW112468   7.808   5.450   0.698 -0.7497 -0.3160 -0.0829
  513SOL    HW212469   7.871   5.554   0.807  1.3563 -0.5492 -1.0378
  514SOL     OW12470   2.168   8.712   5.301 -0.4186  0.2530 -0.3614
  514SOL    HW112471   2.248   8.712   5.241 -0.1479  0.1383 -0.0039
  514SOL    HW212472   2.198   8.712   5.397 -0.8495  0.7498 -0.2242
  515SOL     OW12473   8.591   7.941   5.037 -0.4928 -0.5336 -0.0432
  515SOL    HW112474   8.634   8.014   4.983  0.7013 -0.8309  0.4712
  515SOL    HW212475   8.593   7.966   5.134 -0.9981 -0.7951  0.0323
  516SOL     OW12476   9.907   5.712   3.612 -0.3142  0.3175 -0.3109
  516SOL    HW112477   9.911   5.617   3.643 -0.2417  0.1362 -0.8688
  516SOL    HW212478   9.823   5.727   3.560 -2.0584  1.4664  2.7215
  517SOL     OW12479   1.097   3.260   0.950 -0.1100 -0.7580  0.3405
  517SOL    HW112480   1.121   3.268   1.047 -0.6246  0.0394  0.4058
  517SOL    HW212481   1.001   3.233   0.942 -0.4850  0.6497  0.0426
  518SOL     OW12482   9.879   0.152   2.154  0.5216 -0.2142 -0.4132
  518SOL    HW112483   9.808   0.183   2.090 -0.3689 -1.1183  0.1271
  518SOL    HW212484   9.937   0.230   2.179 -0.8093  0.7270 -0.1912
  519SOL     OW12485   4.830   3.102   4.533 -0.1437 -0.5775  0.0608
  519SOL    HW112486   4.774   3.181   4.560  0.9678  0.4284 -0.5196
  519SOL    HW212487   4.771   3.026   4.507 -1.2305 -0.0482  0.9683
  520SOL     OW12488   8.589   5.322   6.571  0.2418 -0.2281  0.0365
  520SOL    HW112489   8.522   5.393   6.554 -0.7803 -1.0806  0.4612
  520SOL    HW212490   8.639   5.343   6.655 -0.6198 -0.4216  0.6022
  521SOL     OW12491   6.209   7.321   4.182  0.3962  0.5566  0.3766
  521SOL    HW112492   6.145   7.292   4.111  2.0573 -1.6618 -0.2951
  521SOL    HW212493   6.170   7.303   4.272 -0.0957 -0.3688 -0.0171
  522SOL     OW12494   2.606   6.479   2.170  0.3118  0.2593  0.0292
  522SOL    HW112495   2.656   6.559   2.136  0.5359  0.8977  1.7984
  522SOL    HW212496   2.667   6.422   2.224 -0.0908 -0.6294 -0.4401
  523SOL     OW12497   2.210   8.456   1.120  0.4508 -0.2540  0.3854
  523SOL    HW112498   2.133   8.421   1.067 -0.7821 -0.4497  2.2675
  523SOL    HW212499   2.200   8.555   1.132  0.4600 -0.2922  0.7065
  524SOL     OW12500   1.119   5.959   4.497 -0.5285  0.3023 -0.3252
  524SOL    HW112501   1.218   5.962   4.487 -0.1183 -0.6513  2.8439
  524SOL    HW212502   1.095   5.971   4.594 -3.5523  1.3831 -1.1473
  525SOL     OW12503   8.041   7.573   1.588  0.1018 -0.1209  0.3476
  525SOL    HW112504   8.047   7.624   1.503 -0.2647 -1.2754 -0.3773
  525SOL    HW212505   8.056   7.476   1.570 -0.4528 -0.4321  1.5237
  526SOL     OW12506   2.748   7.906   4.923  0.1400  0.0851 -0.5892
  526SOL    HW112507   2.665   7.852   4.913  1.0640 -1.3893 -0.4145
  526SOL    HW212508   2.746   7.954   5.011 -0.0737 -0.7415 -0.1395
  527SOL     OW12509   9.994   7.829   0.072  0.2533  0.3183 -0.1612
  527SOL    HW112510   9.940   7.910   0.048 -0.5367 -0.0955  0.1725
  527SOL    HW212511   9.993   7.817   0.172 -1.8814 -1.5953 -0.3625
  528SOL     OW12512   2.387   5.858   0.991 -0.0413  0.0896  0.6144
  528SOL    HW112513   2.457   5.799   0.953 -1.8716 -0.9128 -1.2858
  528SOL    HW212514   2.404   5.953   0.963  0.8849 -0.0506  0.6941
  529SOL     OW12515   4.489   8.398   3.362  0.0490  0.0922 -0.6236
  529SOL    HW112516   4.467   8.492   3.335  0.5033  0.1951 -0.6319
  529SOL    HW212517   4.432   8.372   3.441 -0.5894  0.1228 -1.0663
  530SOL     OW12518   0.595   3.546   5.983 -0.2218  0.0746  0.2781
  530SOL    HW112519   0.678   3.600   5.979  1.2471 -2.1246 -0.0633
  530SOL    HW212520   0.515   3.605   5.974  1.3429  2.0549 -0.8441
  531SOL     OW12521   6.194   7.891   4.216  0.6541 -0.1662 -0.3998
  531SOL    HW112522   6.197   7.817   4.283 -0.3139  0.5913  0.5002
  531SOL    HW212523   6.129   7.868   4.143 -1.9687  1.0817  1.4743
  532SOL     OW12524   8.140   6.584   3.456  1.0983  0.1913 -0.3696
  532SOL    HW112525   8.091   6.588   3.369  1.5017  0.1039 -0.6011
  532SOL    HW212526   8.201   6.663   3.464  2.2299 -0.6173 -0.8617
  533SOL     OW12527   9.942   6.736   4.289  0.0003 -0.2115 -0.2145
  533SOL    HW112528   9.884   6.698   4.361  1.8440 -1.5798  0.6071
  533SOL    HW212529  10.036   6.704   4.302  0.5274  0.1649 -2.7662
  534SOL     OW12530   5.903   9.710   4.732  0.0431  0.3646 -0.2892
  534SOL    HW112531   5.805   9.727   4.727 -0.0285 -0.1598 -0.7908
  534SOL    HW212532   5.922   9.647   4.808 -0.1858 -0.6935 -1.0874
  535SOL     OW12533   3.217   1.630   2.223  0.7000  0.5731  0.3385
  535SOL    HW112534   3.185   1.678   2.142  0.3088  0.4696  0.4312
  535SOL    HW212535   3.139   1.605   2.280  1.0415  1.5377  1.2489
  536SOL     OW12536   1.649   4.006   0.846 -0.7966 -0.4408  0.2424
  536SOL    HW112537   1.657   4.097   0.807 -0.2704 -1.4830 -2.1384
  536SOL    HW212538   1.567   4.002   0.904 -0.9561  1.4490  0.1807
  537SOL     OW12539   4.383   1.419   4.082  0.0580 -0.2478 -0.3694
  537SOL    HW112540   4.356   1.470   4.164  3.1850 -1.9159  1.7653
  537SOL    HW212541   4.324   1.339   4.071  0.2847 -0.5780  0.8324
  538SOL     OW12542   3.005   6.816   3.091 -0.3061  0.3640 -0.4905
  538SOL    HW112543   3.042   6.898   3.135 -1.9890  0.2077  1.2661
  538SOL    HW212544   3.042   6.735   3.136 -0.7179  0.1893 -0.4662
  539SOL     OW12545   3.472   6.691   1.820 -0.3815  0.9021 -0.3227
  539SOL    HW112546   3.460   6.778   1.868  0.1390  0.1048  1.2902
  539SOL    HW212547   3.484   6.618   1.887 -0.4035 -0.3499 -1.6760
  540SOL     OW12548   1.106   6.183   1.245  0.1368  0.6168 -0.0969
  540SOL    HW112549   1.046   6.260   1.266 -0.2551  0.6452 -1.2673
  540SOL    HW212550   1.075   6.102   1.293  0.4655  1.1516  1.0297
  541SOL     OW12551   1.871   7.126   3.336 -0.2190  0.4246 -0.0119
  541SOL    HW112552   1.913   7.120   3.245 -0.7149 -2.4695 -0.0952
  541SOL    HW212553   1.912   7.058   3.396 -2.2760  0.0014  0.9487
  542SOL     OW12554   7.062   0.178   6.086  0.2876  0.5332 -0.6944
  542SOL    HW112555   7.099   0.109   6.024  1.0903  0.1320  0.2273
  542SOL    HW212556   6.985   0.225   6.041  0.6508  0.0329 -1.8642
  543SOL     OW12557   3.727   5.939   3.859 -0.4041  0.0925  0.4417
  543SOL    HW112558   3.752   5.853   3.904  1.2783  0.3972  0.1131
  543SOL    HW212559   3.763   6.016   3.911  0.9237  0.4727 -1.0053
  544SOL     OW12560   1.290   5.064   3.965  0.8780 -0.7199  0.2386
  544SOL    HW112561   1.208   5.121   3.976  0.3969 -1.3528 -0.0121
  544SOL    HW212562   1.298   5.035   3.869  0.9895 -1.2547  0.4073
  545SOL     OW12563   8.366   8.633   1.502  0.1735  0.7197  0.4838
  545SOL    HW112564   8.414   8.710   1.546  1.2407 -0.0501  0.6840
  545SOL    HW212565   8.406   8.617   1.412  0.1731  0.1864  0.5812
  546SOL     OW12566   3.932   2.841   1.305  0.2860  0.2337  0.5881
  546SOL    HW112567   3.970   2.928   1.273  0.4700  0.1211  0.5030
  546SOL    HW212568   3.894   2.854   1.397  0.2150  0.4311  0.5316
  547SOL     OW12569   6.321   7.606   4.404 -0.2424 -0.3401  1.2183
  547SOL    HW112570   6.376   7.682   4.438 -0.0453 -0.3182  0.8555
  547SOL    HW212571   6.373   7.521   4.411 -1.0286 -0.6999  3.0735
  548SOL     OW12572   3.651   4.989   4.113 -0.8042  0.2158  0.3234
  548SOL    HW112573   3.621   5.026   4.025 -1.5650 -1.5689 -0.1957
  548SOL    HW212574   3.643   4.889   4.112  0.1043  0.0977  2.0813
  549SOL     OW12575   8.565   0.519   3.931  0.3864  0.1274 -0.0282
  549SOL    HW112576   8.571   0.595   3.996  0.0008 -0.4385  0.6838
  549SOL    HW212577   8.537   0.436   3.980  2.5172 -0.8811 -0.4757
  550SOL     OW12578   0.174   6.098   2.061 -0.5381 -0.2254  0.3306
  550SOL    HW112579   0.235   6.118   1.985  0.9321 -1.4133  1.1797
  550SOL    HW212580   0.134   6.007   2.050 -0.6902 -0.2130  0.7439
  551SOL     OW12581   5.083   0.274   0.678  0.2799  0.4112  0.1021
  551SOL    HW112582   5.053   0.180   0.691  1.2324 -0.1004 -1.2136
  551SOL    HW212583   5.174   0.274   0.635 -0.4855  1.9263 -1.5715
  552SOL     OW12584   0.804   1.493   3.883  0.4735  0.1915  0.0558
  552SOL    HW112585   0.778   1.590   3.887 -1.9674 -0.4444 -0.2157
  552SOL    HW212586   0.809   1.464   3.788 -2.3131 -0.8523  0.1889
  553SOL     OW12587   0.628   2.059   1.020 -0.0449 -0.7387  0.2692
  553SOL    HW112588   0.661   2.080   0.928 -0.5219 -2.2538 -0.2618
  553SOL    HW212589   0.539   2.101   1.034 -0.4435 -1.3528 -0.3509
  554SOL     OW12590   9.376   5.854   2.667 -0.1776  0.1104 -0.5672
  554SOL    HW112591   9.354   5.809   2.581 -1.3166 -0.8560  0.2107
  554SOL    HW212592   9.325   5.811   2.741  2.6773 -0.7670  1.0023
  555SOL     OW12593   3.112   2.825   2.040 -0.2052  0.9249  0.5248
  555SOL    HW112594   3.153   2.848   2.129 -0.5656 -1.4496  1.3565
  555SOL    HW212595   3.151   2.739   2.007 -1.4901  0.7875 -0.6796
  556SOL     OW12596   1.058   6.676   4.019 -0.4286 -0.2226 -0.4678
  556SOL    HW112597   1.118   6.742   3.972 -0.1632  0.3247  0.6117
  556SOL    HW212598   1.019   6.719   4.101 -1.4722 -0.9203 -0.5887
  557SOL     OW12599   6.847   0.541   3.489  0.4871  0.5376 -0.1568
  557SOL    HW112600   6.786   0.584   3.421  0.6615  1.1575  0.0745
  557SOL    HW212601   6.918   0.606   3.515  1.0238 -0.0577 -0.1384
  558SOL     OW12602   4.294   7.352   2.519 -0.2984  0.0540  0.0768
  558SOL    HW112603   4.349   7.430   2.491  1.2672 -0.5649  1.3531
  558SOL    HW212604   4.229   7.380   2.590 -0.6237  0.4554 -0.3721
  559SOL     OW12605   0.823   7.224   3.612  0.1758 -0.0962  0.2533
  559SOL    HW112606   0.791   7.251   3.703 -1.4399  1.1278 -0.6543
  559SOL    HW212607   0.916   7.257   3.598 -0.8230  2.8420  0.1515
  560SOL     OW12608   1.011   6.428   4.324 -0.4810 -0.2103  0.0405
  560SOL    HW112609   0.936   6.472   4.373  0.0585 -0.4053  1.0598
  560SOL    HW212610   0.973   6.369   4.252 -1.2515  0.6499 -0.2714
  561SOL     OW12611   9.738   7.989   1.382  0.3761 -0.0160  0.5299
  561SOL    HW112612   9.759   8.083   1.410  0.7622  0.0854 -0.0876
  561SOL    HW212613   9.660   7.955   1.435 -1.3911  1.5294 -1.0250
  562SOL     OW12614   0.477   1.989   0.570  0.5977 -0.9878  0.3535
  562SOL    HW112615   0.459   2.046   0.490 -2.2466  3.1042  3.6589
  562SOL    HW212616   0.399   1.929   0.587  0.6281 -0.9078  0.7869
  563SOL     OW12617   1.029   3.612   3.112 -0.0926  0.1417 -0.2497
  563SOL    HW112618   1.003   3.708   3.115  0.6775  0.3435  0.0288
  563SOL    HW212619   1.128   3.603   3.121 -0.2807 -0.7393  1.2014
  564SOL     OW12620   3.888   8.242   1.165 -0.4854 -0.4668  0.0768
  564SOL    HW112621   3.965   8.193   1.123  0.1334  1.6632 -1.3534
  564SOL    HW212622   3.922   8.321   1.216 -1.8597  2.3255 -3.1309
  565SOL     OW12623   9.308   8.228   3.016 -0.1546  0.2305  0.3643
  565SOL    HW112624   9.349   8.166   3.084 -2.8806 -1.2747  0.7278
  565SOL    HW212625   9.229   8.274   3.057  0.4417  2.1673 -0.6518
  566SOL     OW12626   4.404   0.391   3.807  0.0427 -0.4602  0.3094
  566SOL    HW112627   4.343   0.389   3.886 -0.6331 -1.8931 -0.2346
  566SOL    HW212628   4.385   0.313   3.748  0.6599  0.4893 -1.1813
  567SOL     OW12629   9.865   4.819   3.987  0.2546  0.1715  0.1854
  567SOL    HW112630   9.785   4.796   3.932  0.2205  0.7992 -0.0338
  567SOL    HW212631   9.837   4.873   4.066  0.3374 -0.4864  0.6646
  568SOL     OW12632   7.980   4.113   1.741  0.1929  0.3856  0.0275
  568SOL    HW112633   7.997   4.036   1.802 -2.2858  1.0319  1.6183
  568SOL    HW212634   7.982   4.081   1.646  2.5844 -0.9230  0.4805
  569SOL     OW12635   7.814   0.462   2.551 -0.2382  0.1422 -0.2798
  569SOL    HW112636   7.755   0.522   2.605 -0.1124  0.6053 -0.6598
  569SOL    HW212637   7.891   0.431   2.608 -0.4987  0.0477  0.0228
  570SOL     OW12638   0.177   4.200   4.971 -0.0485 -0.0022  0.9354
  570SOL    HW112639   0.260   4.238   4.932 -0.3427  0.9735  1.2514
  570SOL    HW212640   0.115   4.274   4.996 -0.6023 -0.6873  1.6111
  571SOL     OW12641   9.900   2.051   1.871  0.4718 -0.2154 -0.0072
  571SOL    HW112642   9.905   2.096   1.781  3.0818  0.4985  0.4280
  571SOL    HW212643   9.989   2.059   1.916 -0.1291 -2.5842  1.6878
  572SOL     OW12644   8.080   7.283   2.017 -0.0020 -0.3651  0.4864
  572SOL    HW112645   8.107   7.377   1.994  1.0399 -0.9023 -0.5101
  572SOL    HW212646   8.104   7.264   2.112 -0.1896  0.3622  0.6887
  573SOL     OW12647   4.178   0.911   2.605  0.4329  0.0546  0.2452
  573SOL    HW112648   4.182   0.866   2.694 -0.4791  0.8700  0.7166
  573SOL    HW212649   4.094   0.966   2.600 -0.7760 -1.9009 -2.0326
  574SOL     OW12650   9.992   2.904   2.842  0.0399 -0.3026  0.8357
  574SOL    HW112651   9.933   2.953   2.907  0.1156 -1.0803  1.4991
  574SOL    HW212652  10.037   2.829   2.888 -0.5617 -1.3984 -0.3137
  575SOL     OW12653   4.934   4.540   4.313  0.3562  0.2218 -0.3223
  575SOL    HW112654   4.879   4.568   4.392 -1.5649  1.8313 -2.1822
  575SOL    HW212655   5.017   4.597   4.309 -0.0279  0.8126 -0.0281
  576SOL     OW12656   5.150   9.695   4.713  0.4722  0.5188  0.2092
  576SOL    HW112657   5.194   9.674   4.626  0.4884  1.1245  0.0682
  576SOL    HW212658   5.094   9.618   4.742  0.0671  0.5066 -0.5847
  577SOL     OW12659   6.018   4.520   6.442 -0.1011  0.1422 -0.3817
  577SOL    HW112660   6.068   4.438   6.467  0.0325  0.2221 -0.3851
  577SOL    HW212661   6.083   4.592   6.414 -0.2346  0.1373 -0.7061
  578SOL     OW12662   0.947   7.886   4.476 -0.2620  0.2366  0.3233
  578SOL    HW112663   1.035   7.887   4.523  0.8748 -2.3232 -1.6161
  578SOL    HW212664   0.928   7.977   4.439  1.8622  0.6816  0.2587
  579SOL     OW12665   8.063   5.208   0.598  0.7274 -0.7295  0.1973
  579SOL    HW112666   8.097   5.115   0.613  1.7486 -0.2132  1.1419
  579SOL    HW212667   8.009   5.237   0.677  0.1410 -0.6339 -0.2359
  580SOL     OW12668   0.949   7.204   1.473 -0.0488 -0.0270  0.2985
  580SOL    HW112669   1.037   7.224   1.516  0.0172  0.4079 -0.0297
  580SOL    HW212670   0.929   7.107   1.482 -0.8931  0.3497  2.9080
  581SOL     OW12671   9.188   4.584   3.311  0.3184  0.4478 -0.0721
  581SOL    HW112672   9.207   4.536   3.226 -0.7586  0.3863 -0.2841
  581SOL    HW212673   9.216   4.526   3.388 -0.9588 -0.5294 -0.3242
  582SOL     OW12674   8.639   7.012   1.224  0.2433  0.4409 -0.1098
  582SOL    HW112675   8.652   6.921   1.183 -1.9545  0.4781 -0.9298
  582SOL    HW212676   8.710   7.073   1.189  1.6710 -0.9147  0.3495
  583SOL     OW12677   2.741   3.332   1.052 -0.6295  0.5302  0.3744
  583SOL    HW112678   2.838   3.319   1.037 -1.1251 -0.0938 -2.5481
  583SOL    HW212679   2.721   3.429   1.062  0.0138  0.8471 -1.2930
  584SOL     OW12680   2.646   5.206   0.929 -0.1365  0.1205  0.0606
  584SOL    HW112681   2.617   5.256   1.010 -0.6610  0.5462 -0.3782
  584SOL    HW212682   2.711   5.260   0.877 -0.4422  0.2098 -0.2357
  585SOL     OW12683   0.676   3.399   0.739  0.1476 -0.0672  0.0303
  585SOL    HW112684   0.581   3.419   0.762 -0.3063 -0.9407 -1.0050
  585SOL    HW212685   0.720   3.481   0.704 -0.1219  0.4246  0.8357
  586SOL     OW12686   1.021   9.372   4.598  0.4857 -0.4127 -0.7884
  586SOL    HW112687   1.012   9.466   4.629  0.2707 -0.5756 -0.3495
  586SOL    HW212688   1.067   9.370   4.510  0.4131  0.1085 -0.8373
  587SOL     OW12689   2.072   8.849   2.011  0.1475 -0.0010 -0.3920
  587SOL    HW112690   2.163   8.806   2.013 -0.5262 -1.4919 -1.1006
  587SOL    HW212691   2.052   8.889   2.100  0.6760 -1.4251  0.3709
  588SOL     OW12692   4.485   0.556   3.416 -0.3579  0.9577  0.7780
  588SOL    HW112693   4.459   0.651   3.434  0.0729  1.2330 -0.0464
  588SOL    HW212694   4.557   0.529   3.480  0.1632  1.4798  0.4172
  589SOL     OW12695   0.394   8.348   1.874  0.1660  0.5510  0.0121
  589SOL    HW112696   0.346   8.422   1.826 -0.6177  0.3188  0.4165
  589SOL    HW212697   0.423   8.381   1.964 -1.9366 -0.1904  1.0073
  590SOL     OW12698   5.113   6.518   2.191  0.6544  0.1477  0.2989
  590SOL    HW112699   5.035   6.579   2.210  2.2285  2.5416 -0.6138
  590SOL    HW212700   5.159   6.495   2.276  0.5646  0.9858  0.5790
  591SOL     OW12701   6.076   1.333   2.536  0.7180  0.0770 -0.4366
  591SOL    HW112702   6.146   1.327   2.465  1.1665 -0.5669  0.0564
  591SOL    HW212703   6.092   1.414   2.592 -0.8466  1.7565 -2.3369
  592SOL     OW12704   1.212   7.902   4.546 -0.2991 -0.8950  0.0815
  592SOL    HW112705   1.258   7.959   4.615  0.5901  0.8643 -1.9382
  592SOL    HW212706   1.236   7.806   4.562  1.1911 -0.3515  1.2446
  593SOL     OW12707   8.619   9.621   4.088 -0.5233 -0.7689 -0.4658
  593SOL    HW112708   8.623   9.714   4.124  0.2125 -0.8906 -0.2068
  593SOL    HW212709   8.688   9.611   4.015  1.1727 -1.8161  1.2272
  594SOL     OW12710   4.298   9.646   3.957 -0.0748 -0.1180 -0.1634
  594SOL    HW112711   4.294   9.577   4.029  1.5980  0.0703  0.1268
  594SOL    HW212712   4.374   9.626   3.896  0.0945  1.1537 -0.3825
  595SOL     OW12713   1.002   5.354   1.588 -0.0330 -0.5887  0.1516
  595SOL    HW112714   1.032   5.290   1.659 -1.3902 -0.9132  0.4430
  595SOL    HW212715   0.955   5.431   1.631  3.0437  1.4966 -0.0446
  596SOL     OW12716   9.867   2.867   0.495 -0.2224  0.2512  0.2177
  596SOL    HW112717   9.862   2.967   0.488 -0.8479  0.2049 -0.0751
  596SOL    HW212718   9.861   2.828   0.403  0.0551 -0.0577  0.3304
  597SOL     OW12719   2.884   3.990   3.298  0.2121  0.0777  0.4702
  597SOL    HW112720   2.952   3.953   3.362  1.5720 -0.7510 -1.4212
  597SOL    HW212721   2.836   3.914   3.254  0.9924  0.5888 -1.2860
  598SOL     OW12722   1.964   7.759   3.054 -0.3488  0.2672 -0.6906
  598SOL    HW112723   2.026   7.741   2.978  1.4166 -0.8226  0.9563
  598SOL    HW212724   1.893   7.689   3.058 -1.8463  1.6145 -2.6863
  599SOL     OW12725   4.075   4.318   3.891  0.3592  0.1806 -0.1510
  599SOL    HW112726   4.099   4.395   3.832  1.5599 -0.9350 -1.1406
  599SOL    HW212727   4.033   4.245   3.836  2.0105 -1.1033  0.2434
  600SOL     OW12728   1.300   9.606   1.961  0.5200  0.0673  0.4706
  600SOL    HW112729   1.364   9.536   1.931  1.2159  1.1072 -0.4868
  600SOL    HW212730   1.207   9.581   1.933  0.8037 -0.3194 -0.1148
  601SOL     OW12731   3.122   3.854   2.012 -0.3867 -0.0643  0.1267
  601SOL    HW112732   3.044   3.809   1.968 -1.3462  0.0980  1.6057
  601SOL    HW212733   3.192   3.786   2.031 -0.2334 -0.2495 -1.0408
  602SOL     OW12734   0.246   6.561   5.475 -0.1999 -0.3688  0.2289
  602SOL    HW112735   0.164   6.607   5.440  0.1067 -0.0271 -0.0476
  602SOL    HW212736   0.256   6.473   5.430 -0.3028 -0.3222  0.1144
  603SOL     OW12737   2.160   5.589   2.604 -0.4053 -0.8302  0.2514
  603SOL    HW112738   2.077   5.615   2.652  0.0558  2.1958 -0.4212
  603SOL    HW212739   2.183   5.494   2.624 -2.3449 -0.8023  2.8269
  604SOL     OW12740   6.373   4.740   0.129 -0.5484  0.0155 -0.4689
  604SOL    HW112741   6.395   4.823   0.078 -0.4861  0.4586  0.2716
  604SOL    HW212742   6.360   4.763   0.225  0.4095 -0.9833 -0.0975
  605SOL     OW12743   4.396   1.971   3.258  1.0367  0.1024 -0.2148
  605SOL    HW112744   4.456   1.891   3.256  0.9433  0.0517 -1.0097
  605SOL    HW212745   4.434   2.040   3.320 -0.2930 -1.6566  2.6553
  606SOL     OW12746   4.962   3.713   6.646  0.0390  0.1558  0.2040
  606SOL    HW112747   5.038   3.741   6.587 -1.3778 -0.9453 -2.1695
  606SOL    HW212748   4.911   3.794   6.676  2.4239  0.9672  2.2930
  607SOL     OW12749   8.661   6.422   5.218 -0.2513 -0.5329  0.1633
  607SOL    HW112750   8.689   6.459   5.129  2.0173 -0.9992  0.6361
  607SOL    HW212751   8.696   6.481   5.291 -1.6607 -0.4337  0.7803
  608SOL     OW12752   3.461   3.392   3.988 -0.0832 -0.2021 -0.1450
  608SOL    HW112753   3.397   3.387   3.911  0.3787 -0.6332 -0.5014
  608SOL    HW212754   3.476   3.300   4.025 -0.2415 -0.0070  0.4140
  609SOL     OW12755   8.536   3.178   2.422 -0.8106  0.9621 -0.5174
  609SOL    HW112756   8.619   3.225   2.452 -0.8754  1.3693 -0.9736
  609SOL    HW212757   8.530   3.182   2.322 -0.6784 -0.2457 -0.5818
  610SOL     OW12758   4.136   8.086   1.137  0.0907  0.4235  0.0598
  610SOL    HW112759   4.141   8.095   1.038 -0.0234  1.5079  0.1492
  610SOL    HW212760   4.161   7.992   1.163  0.9213  0.3634 -0.9260
  611SOL     OW12761   4.516   1.284   3.278  0.5989  0.1426  0.2264
  611SOL    HW112762   4.526   1.196   3.324  0.0791  0.1655  0.3828
  611SOL    HW212763   4.430   1.285   3.226  0.9100  0.3208 -0.2918
  612SOL     OW12764   9.935   8.016   4.995 -1.2231 -0.4254 -0.0876
  612SOL    HW112765   9.917   8.092   4.932  2.3192  0.9837  0.5197
  612SOL    HW212766   9.919   7.930   4.947  0.9300  0.6044 -2.8154
  613SOL     OW12767   8.417   8.890   3.659  0.3298  0.0399 -0.5042
  613SOL    HW112768   8.386   8.922   3.570 -2.4267 -2.9734 -0.7499
  613SOL    HW212769   8.361   8.931   3.731  0.8086  0.4262 -0.3495
  614SOL     OW12770   7.726   1.457   4.888  0.2217 -0.7843 -0.2936
  614SOL    HW112771   7.687   1.450   4.979  1.1576  0.4195  0.2148
  614SOL    HW212772   7.826   1.464   4.895  0.3867 -1.7844 -1.4651
  615SOL     OW12773   2.389   4.304   3.418  0.0773 -0.2063  0.2451
  615SOL    HW112774   2.486   4.289   3.438  0.1698  0.1432  0.0686
  615SOL    HW212775   2.350   4.222   3.378  0.5727  0.0168 -0.7066
  616SOL     OW12776   8.212   7.005   4.928  0.5844 -0.3584 -0.4918
  616SOL    HW112777   8.154   6.932   4.964  0.1156  0.8067  1.1792
  616SOL    HW212778   8.307   6.988   4.952  0.9138 -1.9673 -2.7293
  617SOL     OW12779   3.411   8.341   3.897 -0.1846 -0.1306 -0.2909
  617SOL    HW112780   3.451   8.308   3.983  1.9490  0.1570 -1.1586
  617SOL    HW212781   3.458   8.425   3.869 -2.1053  0.8062 -0.8043
  618SOL     OW12782   9.886   3.795   3.971 -0.0820  0.0365  0.1968
  618SOL    HW112783   9.835   3.739   3.906 -1.3558  0.1160  1.0965
  618SOL    HW212784   9.845   3.785   4.062  0.3181  1.6174  0.5656
  619SOL     OW12785   7.784   6.090   2.418  0.3531 -0.2878 -0.4271
  619SOL    HW112786   7.690   6.074   2.390  0.3960  0.1883 -0.8433
  619SOL    HW212787   7.843   6.021   2.375  0.3386  0.0710 -1.0211
  620SOL     OW12788   4.826   3.271   0.001 -0.1240 -0.3760  0.0129
  620SOL    HW112789   4.811   3.281  -0.097 -1.4853  0.2005  0.2711
  620SOL    HW212790   4.839   3.174   0.023  0.9062 -0.4419 -0.8209
  621SOL     OW12791   1.091   1.884   4.047  0.3542 -0.2087 -0.4377
  621SOL    HW112792   1.127   1.902   3.955 -0.1206  0.5263 -0.4788
  621SOL    HW212793   0.991   1.879   4.043  0.3370 -0.2211  0.0349
  622SOL     OW12794   1.876   8.817   3.058  0.0358 -0.3994  0.4389
  622SOL    HW112795   1.832   8.729   3.044 -2.8927  1.1196 -0.2554
  622SOL    HW212796   1.911   8.822   3.152 -1.6507 -1.5150  1.1515
  623SOL     OW12797   9.207   4.771   2.995 -0.1669 -0.0337  0.5822
  623SOL    HW112798   9.242   4.860   3.024  0.6908  0.0579 -0.7117
  623SOL    HW212799   9.246   4.699   3.052  0.6143  0.2468  0.3989
  624SOL     OW12800   8.787   5.051   0.222  0.0616 -0.9938 -0.0052
  624SOL    HW112801   8.779   5.133   0.279 -0.0833 -1.6852  0.9788
  624SOL    HW212802   8.878   5.048   0.180  0.1148 -0.4061  0.0614
  625SOL     OW12803   4.712   4.588   1.717  0.2931 -0.2707 -0.3433
  625SOL    HW112804   4.731   4.612   1.621  0.3162  0.3831 -0.1786
  625SOL    HW212805   4.628   4.535   1.722  0.1459 -0.0739 -0.7005
  626SOL     OW12806   1.049   5.047   6.142  0.1882  0.1554  0.4657
  626SOL    HW112807   0.997   5.044   6.056 -0.0382 -0.6096  0.6259
  626SOL    HW212808   1.115   4.972   6.143  0.0267  0.0246  1.0705
  627SOL     OW12809   4.067   3.799   0.742  0.7014 -0.2487  0.0209
  627SOL    HW112810   4.133   3.812   0.815  0.2759  3.0677 -0.1360
  627SOL    HW212811   4.115   3.775   0.657  1.6515  1.4480  0.0679
  628SOL     OW12812   9.933   8.689   0.424  0.2295  0.1889  0.3114
  628SOL    HW112813   9.949   8.639   0.509  0.0660  1.5793  1.1679
  628SOL    HW212814  10.004   8.665   0.357  1.2978  0.3160  1.3867
  629SOL     OW12815   7.536   1.986   3.964  0.4448  0.3467 -0.9231
  629SOL    HW112816   7.594   1.947   4.036  0.2957  1.5120 -0.1610
  629SOL    HW212817   7.568   2.077   3.941 -1.1071  1.0232 -0.4563
  630SOL     OW12818   2.729   0.905   3.254  0.4337 -0.1681  0.6589
  630SOL    HW112819   2.774   0.963   3.322  1.7191  0.3657 -0.6214
  630SOL    HW212820   2.688   0.962   3.183 -1.0539 -0.7156  1.0559
  631SOL     OW12821   9.519   0.940   3.879 -0.6119 -0.7300  0.1996
  631SOL    HW112822   9.563   0.990   3.804  0.1325 -0.2937  0.9194
  631SOL    HW212823   9.464   0.865   3.842 -0.1398 -0.6000 -0.7720
  632SOL     OW12824   9.408   6.436   2.128 -0.3637 -0.2310 -0.2018
  632SOL    HW112825   9.364   6.395   2.049 -0.0228 -1.4717  0.2317
  632SOL    HW212826   9.480   6.499   2.098 -1.2752  0.4961 -0.8839
  633SOL     OW12827   0.603   9.556   1.031 -0.3170  0.3714 -0.3232
  633SOL    HW112828   0.602   9.545   1.131  1.2268  0.6291 -0.2682
  633SOL    HW212829   0.667   9.629   1.007 -1.7764  1.3124 -1.4144
  634SOL     OW12830   6.489   8.425   3.528  0.1709  0.3136 -0.6675
  634SOL    HW112831   6.476   8.442   3.626  1.4977 -1.0590 -0.2447
  634SOL    HW212832   6.501   8.327   3.513  3.5360  0.8502 -1.7654
  635SOL     OW12833   9.336   1.475   4.624 -0.0238  0.8912 -0.3548
  635SOL    HW112834   9.296   1.517   4.705 -1.5775 -0.6268 -0.3006
  635SOL    HW212835   9.422   1.522   4.600  0.0914  1.7838  1.7408
  636SOL     OW12836   9.128   1.434   3.847  0.1617 -0.0058 -0.3726
  636SOL    HW112837   9.108   1.453   3.943 -0.0719  0.6667 -0.5510
  636SOL    HW212838   9.194   1.501   3.813  0.1608 -0.1778 -0.7092
  637SOL     OW12839   1.440   8.859   2.829  0.0660  0.6819  0.2579
  637SOL    HW112840   1.473   8.901   2.744  0.8617 -0.3753  0.0263
  637SOL    HW212841   1.437   8.928   2.901 -0.3236  1.5239 -0.5548
  638SOL     OW12842   6.737   8.453   3.863 -0.5297 -0.0283 -0.4276
  638SOL    HW112843   6.697   8.381   3.920 -1.7224  0.7879 -0.2127
  638SOL    HW212844   6.828   8.425   3.833 -1.1812 -1.8353 -0.7561
  639SOL     OW12845   9.576   5.268   1.336  0.2270  0.5389  0.7280
  639SOL    HW112846   9.612   5.361   1.338  0.8002  0.3395  0.1064
  639SOL    HW212847   9.514   5.257   1.259  0.3562  0.3372  0.6517
  640SOL     OW12848   8.256   0.417   5.548 -0.9367 -0.2824  0.0185
  640SOL    HW112849   8.163   0.392   5.576 -0.4444 -1.0469  0.9941
  640SOL    HW212850   8.297   0.341   5.498 -0.9005  0.1369 -0.6017
  641SOL     OW12851   8.680   9.921   2.194 -0.0153 -0.6384  0.1121
  641SOL    HW112852   8.713   9.853   2.259 -0.6013 -2.5282 -1.5059
  641SOL    HW212853   8.755   9.981   2.167  0.6603 -1.0402  1.0656
  642SOL     OW12854   7.119   0.250   2.213  0.3713  0.5213  0.3727
  642SOL    HW112855   7.193   0.225   2.274  1.6248 -0.6407 -1.5596
  642SOL    HW212856   7.040   0.282   2.266  0.5550 -2.6815  2.6861
  643SOL     OW12857   0.795   9.548   4.038 -0.2944 -0.1522 -0.3591
  643SOL    HW112858   0.707   9.574   3.998 -0.9786 -1.8658 -0.0217
  643SOL    HW212859   0.780   9.519   4.133  0.9740  1.6846  0.4460
  644SOL     OW12860   1.142   2.930   0.866 -0.0210  0.1967  0.3600
  644SOL    HW112861   1.161   2.890   0.776  0.3890 -0.0479  0.5526
  644SOL    HW212862   1.167   3.027   0.866 -1.2378  0.5267 -0.1814
  645SOL     OW12863   1.778   4.082   3.252  0.5774  0.1564 -0.1885
  645SOL    HW112864   1.832   4.039   3.179  0.2344 -1.5650  0.5631
  645SOL    HW212865   1.809   4.049   3.341 -1.5920 -0.7541  0.2633
  646SOL     OW12866   1.806   4.698   3.386  0.2267 -0.2732  0.2370
  646SOL    HW112867   1.708   4.701   3.405  0.6254 -0.5190  2.5014
  646SOL    HW212868   1.847   4.787   3.408  0.3107  0.2662 -2.0046
  647SOL     OW12869   7.011   0.477   6.674  0.0603 -0.2293  0.4440
  647SOL    HW112870   7.079   0.404   6.683 -1.4114 -1.7242 -0.2604
  647SOL    HW212871   6.990   0.515   6.764 -0.4441 -1.8983  1.0446
  648SOL     OW12872   2.120   8.008   1.822 -0.2185  0.2283  0.2378
  648SOL    HW112873   2.032   7.962   1.810 -0.4331  0.8692 -0.7124
  648SOL    HW212874   2.122   8.053   1.911 -0.4363 -0.6683  0.7030
  649SOL     OW12875   6.260   7.223   2.611  0.9434  0.4169  0.2869
  649SOL    HW112876   6.350   7.242   2.572 -0.2339  0.8894 -2.3390
  649SOL    HW212877   6.202   7.304   2.601  0.4215  0.3452  2.5657
  650SOL     OW12878   4.974   7.552   3.028  0.3148 -0.2088 -0.3692
  650SOL    HW112879   5.044   7.481   3.039 -0.0747 -0.5565 -0.1368
  650SOL    HW212880   4.962   7.600   3.115  1.5250  1.0244 -0.8699
  651SOL     OW12881   7.807   7.233   2.390 -0.0948 -0.3901 -0.1531
  651SOL    HW112882   7.778   7.227   2.485  0.5318 -0.3902  0.0410
  651SOL    HW212883   7.832   7.328   2.368  0.4207 -0.5166 -0.1201
  652SOL     OW12884   2.861   4.245   2.775 -0.2090 -0.0792  0.0959
  652SOL    HW112885   2.767   4.273   2.754  0.2935  1.3889 -0.2226
  652SOL    HW212886   2.872   4.148   2.752 -1.8359 -0.4497  0.7810
  653SOL     OW12887   2.080   8.366   5.083 -0.3209  0.4616  0.5677
  653SOL    HW112888   2.063   8.409   4.995  1.3350  2.1783  1.0369
  653SOL    HW212889   2.030   8.416   5.154  2.6432  2.5240  1.2941
  654SOL     OW12890   8.958   5.086   4.104 -0.7531 -0.3836 -0.5558
  654SOL    HW112891   9.022   5.153   4.066 -1.7143  0.0715 -1.3629
  654SOL    HW212892   8.906   5.043   4.031 -0.4979 -1.6660 -0.0031
  655SOL     OW12893   6.974   8.869   3.861  0.5258  0.2979  0.0035
  655SOL    HW112894   6.960   8.967   3.846 -0.5041  0.2876  0.8284
  655SOL    HW212895   7.049   8.856   3.927 -1.5257  0.6710  2.5046
  656SOL     OW12896   4.477   2.569   4.355 -0.3861  0.8215  0.9524
  656SOL    HW112897   4.549   2.502   4.341  0.0330  0.9774  2.2988
  656SOL    HW212898   4.504   2.657   4.316 -0.5025  0.4869  0.1050
  657SOL     OW12899   5.554   0.902   1.866 -0.3051  0.3845  0.0934
  657SOL    HW112900   5.608   0.843   1.926 -1.1449  0.6055  1.0845
  657SOL    HW212901   5.490   0.847   1.813  0.0508  0.2435 -0.1914
  658SOL     OW12902   5.687   0.756   3.471  0.0543  0.2881 -0.4520
  658SOL    HW112903   5.765   0.771   3.410  0.8216 -1.8842 -0.0386
  658SOL    HW212904   5.602   0.755   3.418  0.4299  1.1834 -1.0908
  659SOL     OW12905   5.013   3.539   2.783  0.9486  0.1984 -0.1950
  659SOL    HW112906   4.914   3.543   2.769  1.0114 -2.1556 -1.4348
  659SOL    HW212907   5.037   3.456   2.834  2.4418 -0.0764 -1.2988
  660SOL     OW12908   9.526   7.520   1.753 -0.3094  0.1448  0.0614
  660SOL    HW112909   9.621   7.520   1.723 -0.6672 -0.0985 -1.0846
  660SOL    HW212910   9.506   7.434   1.800 -0.0030  0.1483  0.2019
  661SOL     OW12911   3.540   3.552   3.185  0.0613 -0.1701  0.1946
  661SOL    HW112912   3.612   3.621   3.182 -0.1548  0.0060 -2.2826
  661SOL    HW212913   3.452   3.596   3.198  0.1494 -0.1828  0.8530
  662SOL     OW12914   7.093   7.987   5.224 -0.2430  0.0092  0.4174
  662SOL    HW112915   7.103   7.926   5.303  0.2281  0.7646  0.9513
  662SOL    HW212916   7.148   8.069   5.239 -0.1604  0.1612 -0.7005
  663SOL     OW12917   3.694   2.980   4.112 -0.1167  0.0224 -0.0280
  663SOL    HW112918   3.783   3.021   4.094  0.7524 -0.9428  1.9495
  663SOL    HW212919   3.669   2.919   4.037  1.8027 -1.2176  0.3131
  664SOL     OW12920   8.452   1.647   6.404 -0.4608 -0.2887 -0.0384
  664SOL    HW112921   8.374   1.693   6.446 -2.2698 -2.2760 -1.1554
  664SOL    HW212922   8.447   1.549   6.423  2.3792 -0.3352  0.7977
  665SOL     OW12923   2.082   2.281   1.407  0.1745  0.6981  0.5858
  665SOL    HW112924   2.168   2.264   1.358 -1.4222 -1.0386 -1.7499
  665SOL    HW212925   2.061   2.202   1.464 -1.1953 -0.1005 -0.9666
  666SOL     OW12926   4.878   3.026   3.943 -0.6313 -0.8613 -0.7078
  666SOL    HW112927   4.930   3.041   4.027 -0.0835 -1.7635 -0.8707
  666SOL    HW212928   4.805   3.094   3.936 -0.2847 -0.3862  0.1767
  667SOL     OW12929   9.050   3.684   1.344 -0.4349 -0.1230  0.1253
  667SOL    HW112930   8.993   3.738   1.405  0.0982  0.0063  0.5127
  667SOL    HW212931   8.995   3.613   1.301 -1.1273  0.7106 -0.3693
  668SOL     OW12932   0.260   1.610   3.665 -0.5758  0.0050 -0.1849
  668SOL    HW112933   0.177   1.653   3.627 -0.1347  0.4258 -0.6931
  668SOL    HW212934   0.329   1.681   3.679 -1.0482  0.0148  2.3278
  669SOL     OW12935   4.855   2.377   2.273  0.2753 -0.1964 -0.1627
  669SOL    HW112936   4.759   2.362   2.296  0.8263 -1.4154  1.4293
  669SOL    HW212937   4.876   2.475   2.281 -0.3347 -0.1799  1.5653
  670SOL     OW12938   2.429   1.359   1.810 -0.4065 -0.1078 -0.4275
  670SOL    HW112939   2.529   1.364   1.808 -0.3297 -1.3090 -0.1435
  670SOL    HW212940   2.401   1.289   1.876 -1.4727  1.1488  0.4556
  671SOL     OW12941   2.426   0.428   1.448  0.3629  0.1057 -0.5103
  671SOL    HW112942   2.499   0.476   1.496  0.6352  0.3243 -1.1371
  671SOL    HW212943   2.366   0.382   1.514  0.4039  0.8775  0.0615
  672SOL     OW12944   7.778   2.835   3.296 -0.1900 -0.7489  0.1906
  672SOL    HW112945   7.858   2.788   3.334 -0.8342 -3.0802 -1.2336
  672SOL    HW212946   7.698   2.774   3.303 -0.9123 -0.1110 -2.2948
  673SOL     OW12947   6.085   7.795   5.210 -0.1355  0.1742  0.3462
  673SOL    HW112948   6.176   7.753   5.208 -0.4535 -0.5048  0.1477
  673SOL    HW212949   6.095   7.894   5.215  0.6154  0.2116 -1.4389
  674SOL     OW12950   6.338   0.133   1.746 -1.2170 -0.3514 -0.5879
  674SOL    HW112951   6.426   0.090   1.766 -0.7964  0.2575 -1.1486
  674SOL    HW212952   6.296   0.087   1.668 -1.6835 -1.0339  0.0449
  675SOL     OW12953   4.251   8.667   3.613  0.2704 -0.3914 -0.4825
  675SOL    HW112954   4.261   8.626   3.522 -0.9631 -1.1178 -0.2978
  675SOL    HW212955   4.292   8.759   3.612  1.9623 -1.1352 -1.2280
  676SOL     OW12956   2.858   8.941   1.138 -0.1713  0.2576 -0.2984
  676SOL    HW112957   2.864   8.878   1.215 -0.3651  0.7550  0.1232
  676SOL    HW212958   2.764   8.973   1.128 -0.6770 -1.6370 -2.2158
  677SOL     OW12959   7.917   1.844   3.984  0.0377  0.4130 -0.1573
  677SOL    HW112960   7.858   1.781   3.934  0.7086 -0.0422 -0.3764
  677SOL    HW212961   7.897   1.839   4.081 -0.9198  0.9301 -0.3227
  678SOL     OW12962   9.025   3.083   1.290  0.4820 -0.5504  0.0280
  678SOL    HW112963   9.110   3.116   1.249  0.6989  0.1593  1.0301
  678SOL    HW212964   9.045   3.034   1.375 -0.2081  0.7805  0.9707
  679SOL     OW12965   3.371   4.258   4.712 -0.2713  0.1488  0.1271
  679SOL    HW112966   3.416   4.330   4.658  0.0682  0.3881  0.7335
  679SOL    HW212967   3.379   4.171   4.664  1.1683  0.1192  0.4093
  680SOL     OW12968   3.554   8.627   3.858 -0.0275 -0.5010 -0.4059
  680SOL    HW112969   3.635   8.590   3.814  0.1350  1.6576 -2.0124
  680SOL    HW212970   3.499   8.676   3.791 -2.4379 -1.5212  0.7597
  681SOL     OW12971   7.689   3.195   1.461  0.0920  0.4578  0.5247
  681SOL    HW112972   7.779   3.238   1.452  0.3575 -0.1624  0.1651
  681SOL    HW212973   7.678   3.162   1.555  1.0374 -1.1878  0.0758
  682SOL     OW12974   2.637   7.136   1.861  0.0814 -0.0186  0.4051
  682SOL    HW112975   2.626   7.115   1.958 -1.4656  1.5113  0.5990
  682SOL    HW212976   2.583   7.217   1.839  0.3700 -0.3877 -1.7547
  683SOL     OW12977   8.194   4.250   1.406 -0.2609 -0.4230  0.5330
  683SOL    HW112978   8.111   4.283   1.360  0.7463  0.0321 -1.0244
  683SOL    HW212979   8.274   4.293   1.363  0.8322 -1.6667  1.3112
  684SOL     OW12980   3.882   6.405   2.410  0.1240  0.1579  0.0032
  684SOL    HW112981   3.948   6.360   2.350 -0.9147 -0.7725 -0.4688
  684SOL    HW212982   3.837   6.479   2.361 -0.3261 -0.2421 -0.1881
  685SOL     OW12983   9.819   7.291   2.778 -0.4708  0.4527  0.1545
  685SOL    HW112984   9.891   7.305   2.846  0.8199  0.1435 -1.1207
  685SOL    HW212985   9.801   7.377   2.730  1.3277 -0.1689 -1.7121
  686SOL     OW12986   3.677   3.761   1.657 -0.2339  0.0201 -0.1650
  686SOL    HW112987   3.700   3.674   1.702 -1.2716  0.0507  0.4499
  686SOL    HW212988   3.608   3.744   1.587 -0.0716  0.2724 -0.3817
  687SOL     OW12989   8.506   6.696   4.939 -0.0350  0.5610  0.4792
  687SOL    HW112990   8.459   6.665   4.856 -1.8433  1.2790  1.2098
  687SOL    HW212991   8.593   6.648   4.948 -0.7845 -1.0525 -0.7182
  688SOL     OW12992   0.176   3.043   1.494  0.3171  0.5370 -0.0569
  688SOL    HW112993   0.118   3.004   1.565  0.8226  1.1353  0.6906
  688SOL    HW212994   0.127   3.117   1.447  0.9409  1.9276  1.4553
  689SOL     OW12995   6.244   7.264   5.037  0.1066  0.2476 -0.3341
  689SOL    HW112996   6.163   7.316   5.010 -0.3182 -0.8734 -1.2591
  689SOL    HW212997   6.278   7.211   4.959  1.4070  0.2704  0.1923
  690SOL     OW12998   0.218   8.260   1.438  0.2112 -0.0309  0.5126
  690SOL    HW112999   0.216   8.184   1.372  0.6462  0.0859  0.3625
  690SOL    HW213000   0.215   8.347   1.389  1.0140  0.0621  0.6195
  691SOL     OW13001   4.487   7.047   1.286 -0.0967  0.1287 -0.0084
  691SOL    HW113002   4.523   7.120   1.227  0.6004 -0.0883  0.1409
  691SOL    HW213003   4.547   7.037   1.366  0.2504 -1.1413 -0.4200
  692SOL     OW13004   3.305   7.662   2.023  0.5362  0.1460  0.3353
  692SOL    HW113005   3.210   7.688   2.040  0.8142  0.9171  0.7306
  692SOL    HW213006   3.309   7.595   1.949 -0.2454  0.7955 -0.2966
  693SOL     OW13007   0.427   5.014   1.106  0.0612 -0.6260 -0.5441
  693SOL    HW113008   0.452   4.963   1.188  0.5030  0.6589  0.1275
  693SOL    HW213009   0.356   4.964   1.056 -2.4330  0.0281  2.1904
  694SOL     OW13010   0.412   7.127   0.451  0.2953 -0.4633  0.1715
  694SOL    HW113011   0.506   7.144   0.424  0.0884 -2.0494 -1.6471
  694SOL    HW213012   0.394   7.169   0.540  2.2211  1.2730 -0.2398
  695SOL     OW13013   0.284   5.651   6.299 -0.7040  0.2266  0.2897
  695SOL    HW113014   0.193   5.610   6.284  0.3633 -1.6378 -1.3370
  695SOL    HW213015   0.349   5.611   6.234  1.4354  1.0960  1.8678
  696SOL     OW13016   3.815   1.684   4.667 -0.8911  0.0922  0.8414
  696SOL    HW113017   3.739   1.706   4.729  0.1869  1.5297  1.6737
  696SOL    HW213018   3.827   1.759   4.602  0.8387  0.5968  1.7266
  697SOL     OW13019   0.381   5.943   2.182 -0.0384 -0.9385 -0.4528
  697SOL    HW113020   0.445   6.008   2.141 -1.1144  1.1372  0.9979
  697SOL    HW213021   0.288   5.966   2.153 -0.3682 -2.2906 -0.4777
  698SOL     OW13022   1.804   0.086   4.020 -0.1661  0.2723  0.4473
  698SOL    HW113023   1.869   0.023   4.061  2.1767  1.8901 -0.6349
  698SOL    HW213024   1.780   0.055   3.928 -0.3633  0.0643  0.5683
  699SOL     OW13025   2.774   1.080   4.139 -0.1903  0.3885 -0.1932
  699SOL    HW113026   2.793   1.074   4.237 -0.4164  1.1066 -0.0973
  699SOL    HW213027   2.818   1.162   4.101 -2.2944  1.6013 -0.1453
  700SOL     OW13028   3.981   9.235   3.200  0.3793 -0.1687 -0.1159
  700SOL    HW113029   4.039   9.156   3.220 -0.5764 -1.1457 -1.1289
  700SOL    HW213030   4.026   9.292   3.131  0.3676 -0.6565 -0.5291
  701SOL     OW13031   7.662   7.091   4.028 -0.1530 -0.3662 -0.1003
  701SOL    HW113032   7.666   7.152   3.949 -1.0891 -1.3884 -0.9590
  701SOL    HW213033   7.660   7.145   4.112  0.1404  0.7490 -0.7999
  702SOL     OW13034   0.712   3.156   3.691 -0.0087 -0.7268 -0.6805
  702SOL    HW113035   0.795   3.170   3.744 -0.6116  2.3717 -0.4872
  702SOL    HW213036   0.639   3.125   3.752 -0.4518  1.9447  0.2046
  703SOL     OW13037   0.209   2.372   3.534 -0.4357 -0.0865  0.2132
  703SOL    HW113038   0.282   2.433   3.563 -1.1436  1.0322 -0.3251
  703SOL    HW213039   0.217   2.285   3.582 -0.1690  0.8889  1.9853
  704SOL     OW13040   6.222   0.408   3.587 -0.4306  0.3740 -0.6251
  704SOL    HW113041   6.184   0.495   3.620 -3.9765 -1.3420  0.0272
  704SOL    HW213042   6.159   0.367   3.521  1.2661 -1.6411 -1.0262
  705SOL     OW13043   0.625   6.583   4.763  0.0422  0.8001 -0.2978
  705SOL    HW113044   0.664   6.671   4.790  0.7955  0.6748 -0.9765
  705SOL    HW213045   0.699   6.520   4.738 -0.5543  0.3193 -0.8558
  706SOL     OW13046   7.369   2.389   2.383 -0.1482  0.0880  0.1399
  706SOL    HW113047   7.299   2.322   2.360 -1.1978  1.9754 -2.4845
  706SOL    HW213048   7.326   2.470   2.424  0.7723  0.3084  0.6955
  707SOL     OW13049   1.435   7.874   2.091  0.4195 -0.2451 -0.2291
  707SOL    HW113050   1.375   7.946   2.125 -0.1742 -0.3820 -0.9711
  707SOL    HW213051   1.404   7.786   2.125  1.4122 -0.1065  1.0432
  708SOL     OW13052   3.113   1.098   3.693  0.6669  0.2764  0.0974
  708SOL    HW113053   3.090   1.047   3.775 -1.7547  1.9393  0.4902
  708SOL    HW213054   3.121   1.035   3.616 -2.6748 -0.7046  0.4765
  709SOL     OW13055   4.014   5.622   0.427  0.6225 -0.4704  0.4051
  709SOL    HW113056   4.031   5.529   0.395  1.6652 -1.0309  2.4881
  709SOL    HW213057   3.946   5.620   0.500  0.6160  0.4122  0.4221
  710SOL     OW13058   2.923   4.153   1.129  0.4243 -0.1101 -0.1340
  710SOL    HW113059   2.850   4.204   1.085  0.0205 -0.9950 -0.4975
  710SOL    HW213060   2.998   4.215   1.151 -0.8767  1.0001  1.2378
  711SOL     OW13061   6.592   1.417   1.599 -0.1452  0.1615 -0.1914
  711SOL    HW113062   6.611   1.468   1.516  1.5113 -1.0226 -0.5679
  711SOL    HW213063   6.499   1.436   1.630 -0.6368  0.8907 -2.0945
  712SOL     OW13064   9.319   7.440   0.562  0.5479  0.1488 -0.2048
  712SOL    HW113065   9.228   7.472   0.589 -1.1288 -0.5119 -4.5484
  712SOL    HW213066   9.376   7.519   0.540  0.4014  0.5234  0.7563
  713SOL     OW13067   4.725   7.442   3.485  0.1473 -0.2428 -0.1845
  713SOL    HW113068   4.699   7.481   3.574  1.5508  1.1159 -0.3268
  713SOL    HW213069   4.710   7.510   3.413  0.7593 -0.6594 -0.7171
  714SOL     OW13070   8.649   0.620   3.491 -0.3816  0.2771 -0.1695
  714SOL    HW113071   8.609   0.529   3.476  0.7828 -0.2087 -0.3610
  714SOL    HW213072   8.700   0.621   3.577  0.9182  0.2869 -0.9332
  715SOL     OW13073   5.199   9.553   1.095  0.1552 -0.3926 -0.2737
  715SOL    HW113074   5.129   9.597   1.151  1.0237  0.3845  0.2092
  715SOL    HW213075   5.231   9.470   1.140  1.1244  0.4356  0.5706
  716SOL     OW13076   7.403   9.312   4.387  0.1145 -0.1917  0.0118
  716SOL    HW113077   7.435   9.258   4.465 -0.9518  0.3521  0.8258
  716SOL    HW213078   7.451   9.399   4.385 -0.6194  0.2260  0.6697
  717SOL     OW13079   2.679   3.575   6.442 -0.0179  0.1311  0.4262
  717SOL    HW113080   2.609   3.630   6.489 -0.8595 -0.3994 -0.1934
  717SOL    HW213081   2.635   3.518   6.372  1.0582 -0.1005 -0.0658
  718SOL     OW13082   2.595   2.538   3.682  0.4532 -0.2017  0.1525
  718SOL    HW113083   2.530   2.608   3.652 -0.3033 -0.6518  0.7160
  718SOL    HW213084   2.576   2.514   3.778  1.4599 -0.3230  0.3249
  719SOL     OW13085   8.228   1.023   6.215  0.0675 -0.1469  0.6719
  719SOL    HW113086   8.292   1.099   6.206 -1.5999  1.0152 -1.6031
  719SOL    HW213087   8.157   1.047   6.281 -0.2169  0.0631  0.2821
  720SOL     OW13088   4.072   8.056   3.372 -0.3525 -0.3388  0.2702
  720SOL    HW113089   3.992   8.026   3.319 -0.1329 -0.9495  0.2848
  720SOL    HW213090   4.138   8.099   3.312  0.3243 -1.8830 -0.1281
  721SOL     OW13091   1.589   0.504   2.686 -0.3722  0.0521  0.1936
  721SOL    HW113092   1.569   0.464   2.596 -0.4633  0.7358 -0.0918
  721SOL    HW213093   1.532   0.584   2.701  0.4096  0.5807  0.3979
  722SOL     OW13094   5.165   1.092   2.573 -0.1178 -0.1989 -0.3336
  722SOL    HW113095   5.105   1.153   2.625  0.6470  0.5097 -0.2617
  722SOL    HW213096   5.140   1.095   2.476 -0.1144  0.1991 -0.3233
  723SOL     OW13097   7.658   0.852   1.567 -0.5727  0.1989 -0.3493
  723SOL    HW113098   7.562   0.861   1.540 -0.8302  1.2248  0.8410
  723SOL    HW213099   7.671   0.894   1.657  0.8378 -0.6270 -0.1551
  724SOL     OW13100   9.924   5.306   5.194 -0.1374 -0.1821  0.4090
  724SOL    HW113101   9.870   5.295   5.277 -0.9363  2.0139  0.2116
  724SOL    HW213102  10.014   5.343   5.216 -1.0174  2.1580  0.1359
  725SOL     OW13103   2.888   5.547   1.301 -0.5126  0.2343 -0.3193
  725SOL    HW113104   2.930   5.459   1.277  0.2276  0.2348  0.9520
  725SOL    HW213105   2.888   5.606   1.220  1.6318  0.1078 -0.4407
  726SOL     OW13106   9.963   6.223   6.312 -0.3193  0.2754 -0.7072
  726SOL    HW113107   9.872   6.253   6.283 -0.6604  1.3368  1.3812
  726SOL    HW213108   9.976   6.244   6.409  2.0984 -0.0261 -0.9339
  727SOL     OW13109   8.660   5.495   0.265 -0.0845  0.0518  0.1152
  727SOL    HW113110   8.563   5.486   0.285 -0.3512 -0.8928 -1.4754
  727SOL    HW213111   8.674   5.571   0.201 -0.0708 -1.2989 -1.5148
  728SOL     OW13112   1.271   5.467   0.824 -0.4867  0.4911 -0.6124
  728SOL    HW113113   1.279   5.475   0.725 -1.2537 -1.6401 -0.8826
  728SOL    HW213114   1.362   5.465   0.866 -0.0762 -1.4048 -1.5469
  729SOL     OW13115   6.186   9.917   4.096 -0.3746 -0.0993  0.5675
  729SOL    HW113116   6.149   9.971   4.020  1.1980  1.3710  0.7974
  729SOL    HW213117   6.210   9.826   4.063 -2.2236 -0.3814 -0.0514
  730SOL     OW13118   8.853   0.667   5.266 -0.0377 -0.1882  0.1227
  730SOL    HW113119   8.903   0.720   5.197 -1.2714  1.3272  0.3714
  730SOL    HW213120   8.875   0.703   5.357  0.9972 -1.6918  0.4793
  731SOL     OW13121   0.001   2.375   1.559  0.1473 -0.1734 -0.0181
  731SOL    HW113122  -0.085   2.358   1.607  0.4809 -1.2051  0.2289
  731SOL    HW213123  -0.017   2.428   1.476 -0.7351 -0.4629 -0.0152
  732SOL     OW13124   8.956   6.217   3.991 -0.0450 -0.5646 -0.8847
  732SOL    HW113125   8.927   6.158   4.067  0.6179  1.6229  1.1330
  732SOL    HW213126   8.914   6.185   3.906  0.3209 -3.9256  0.1387
  733SOL     OW13127   3.580   4.301   4.877  0.1024  0.4450 -0.2044
  733SOL    HW113128   3.494   4.262   4.846  0.3179  0.2485 -0.5546
  733SOL    HW213129   3.564   4.356   4.959 -0.1413 -0.6973  0.5272
  734SOL     OW13130   3.651   3.048   0.475  0.3300  0.9866  0.4246
  734SOL    HW113131   3.750   3.036   0.488  0.4236  1.5296  0.2546
  734SOL    HW213132   3.602   3.003   0.550  0.7601  1.8064  1.2200
  735SOL     OW13133   7.286   9.976   2.159  0.3300  0.4374  0.5907
  735SOL    HW113134   7.276  10.035   2.239  0.0638  1.2119 -0.0146
  735SOL    HW213135   7.198   9.933   2.137  0.1602  1.0542  0.0683
  736SOL     OW13136   0.092   9.239   4.320  0.1647 -0.0752 -0.5685
  736SOL    HW113137   0.050   9.150   4.339  0.4806 -0.4247 -1.4711
  736SOL    HW213138   0.064   9.304   4.391  0.2131 -0.9755  0.3041
  737SOL     OW13139   0.536   0.535   4.628 -0.6546 -0.1684 -0.5291
  737SOL    HW113140   0.563   0.454   4.576 -1.7922 -0.4714 -0.6533
  737SOL    HW213141   0.520   0.611   4.565 -0.8051 -0.1859 -0.5107
  738SOL     OW13142   0.383   3.790   0.800  0.5720 -0.1930  0.2826
  738SOL    HW113143   0.365   3.881   0.837 -0.9256 -0.4203  0.1500
  738SOL    HW213144   0.391   3.796   0.700 -0.0691 -0.2859  0.2245
  739SOL     OW13145   5.813   7.268   4.288  0.9179  0.2653 -0.5272
  739SOL    HW113146   5.762   7.189   4.254 -0.5081  0.6466  0.6909
  739SOL    HW213147   5.906   7.239   4.314  0.1293 -1.2025  0.7538
  740SOL     OW13148   1.746   1.638   1.333  0.2564  0.0338 -0.3622
  740SOL    HW113149   1.762   1.540   1.343  1.1869  0.2825  0.6261
  740SOL    HW213150   1.806   1.674   1.262 -0.1749 -0.1284 -0.8137
  741SOL     OW13151   1.175   8.839   0.510  0.0791 -0.0675  0.0904
  741SOL    HW113152   1.176   8.930   0.552  0.1242 -0.6702  1.4174
  741SOL    HW213153   1.267   8.817   0.476  0.6021 -0.5123  1.7543
  742SOL     OW13154   0.713   3.254   4.296  0.0446 -0.4075  0.5765
  742SOL    HW113155   0.756   3.200   4.368  1.4124  1.6141  1.3393
  742SOL    HW213156   0.621   3.281   4.324  0.1019 -0.6926  1.0306
  743SOL     OW13157   2.956   6.086   3.346  0.4813  0.0550 -0.2020
  743SOL    HW113158   2.951   6.113   3.442 -0.8890  2.0710 -0.8123
  743SOL    HW213159   3.050   6.094   3.314  1.0120 -1.0047  1.0737
  744SOL     OW13160   1.480   2.105   3.986 -0.0306  0.4141  0.6037
  744SOL    HW113161   1.565   2.142   4.025  0.1210 -1.7697  2.4540
  744SOL    HW213162   1.500   2.022   3.935 -0.7372  1.3284 -1.2045
  745SOL     OW13163   9.917   8.915   3.939 -0.1264  0.1746 -0.2402
  745SOL    HW113164  10.016   8.914   3.955 -0.4449 -0.2429  1.8627
  745SOL    HW213165   9.891   8.835   3.886  0.4628 -0.5698  0.5716
  746SOL     OW13166   8.918   4.648   6.079  0.5985 -0.4575  0.5785
  746SOL    HW113167   8.921   4.663   6.178  3.1357 -2.3372  0.8331
  746SOL    HW213168   8.912   4.550   6.059 -3.1888  0.0539 -1.1399
  747SOL     OW13169   8.870   8.400   0.878 -0.3529  0.1533 -0.3462
  747SOL    HW113170   8.964   8.429   0.900 -0.2789  0.3876 -0.9686
  747SOL    HW213171   8.873   8.310   0.834 -0.5629 -0.7042  1.3626
  748SOL     OW13172   8.702   9.859   0.415 -0.2785  0.3635 -0.1938
  748SOL    HW113173   8.698   9.909   0.328 -0.5016  0.3035 -0.2193
  748SOL    HW213174   8.619   9.804   0.425  0.6389 -1.1736 -0.8686
  749SOL     OW13175   7.748   7.684   3.559 -0.0253 -0.0942  0.9528
  749SOL    HW113176   7.677   7.660   3.626  0.7772  0.1477  1.9134
  749SOL    HW213177   7.723   7.768   3.512 -1.1317 -0.8637  0.1508
  750SOL     OW13178   2.379   4.195   1.722 -0.2085 -0.6740  0.4594
  750SOL    HW113179   2.363   4.294   1.724 -2.0380 -0.9609  0.3055
  750SOL    HW213180   2.301   4.149   1.679 -0.3837 -2.3920  2.5534
  751SOL     OW13181   9.688   7.043   2.310 -0.0484  0.0129 -0.0281
  751SOL    HW113182   9.774   7.023   2.263  1.3996  0.1967  2.4463
  751SOL    HW213183   9.614   6.993   2.266  1.3179 -0.2166 -2.1589
  752SOL     OW13184   1.727   5.195   0.788 -0.1228  0.5003  0.6060
  752SOL    HW113185   1.689   5.183   0.880 -0.5506  1.4282  0.5548
  752SOL    HW213186   1.689   5.125   0.727  1.2806 -1.0478  1.4575
  753SOL     OW13187   2.865   7.601   2.162  0.0058  0.1204  0.4640
  753SOL    HW113188   2.768   7.611   2.181 -0.0245 -1.3273  1.0977
  753SOL    HW213189   2.915   7.583   2.247  1.2359  3.6617  0.5905
  754SOL     OW13190   2.899   0.141   1.902 -0.1431  0.1497 -0.3309
  754SOL    HW113191   2.835   0.174   1.832  0.1831  1.8083  0.1313
  754SOL    HW213192   2.848   0.118   1.985 -0.2391  0.7428 -0.2210
  755SOL     OW13193   0.660   1.108   4.852  0.2115  0.6785  0.3817
  755SOL    HW113194   0.725   1.114   4.928 -0.6146  1.8519  1.0172
  755SOL    HW213195   0.628   1.014   4.842  1.0651  0.3388  0.8633
  756SOL     OW13196   3.864   4.708   0.863 -0.1144  0.1936 -1.3550
  756SOL    HW113197   3.895   4.796   0.897 -0.4906  0.1397 -0.8570
  756SOL    HW213198   3.847   4.646   0.940 -1.1126  0.1126 -1.6257
  757SOL     OW13199   9.952   3.644   1.341  0.1096  0.1999  0.0819
  757SOL    HW113200  10.004   3.671   1.422  0.4860 -0.2330 -0.0116
  757SOL    HW213201   9.859   3.620   1.368  0.1633  0.2899  0.3524
  758SOL     OW13202   8.691   4.705   0.681 -0.2808 -0.3271 -0.0769
  758SOL    HW113203   8.764   4.689   0.614  0.3722 -0.4704  0.6693
  758SOL    HW213204   8.730   4.736   0.767 -0.9259 -2.4508  1.0069
  759SOL     OW13205   8.739   9.377   3.824  0.1676 -0.2392 -0.0414
  759SOL    HW113206   8.795   9.339   3.750 -0.9875 -0.3830 -0.8581
  759SOL    HW213207   8.772   9.469   3.846  0.0464  0.1251 -1.2893
  760SOL     OW13208   8.048   3.149   3.751 -0.2549 -0.1103 -0.5338
  760SOL    HW113209   8.007   3.065   3.715  0.4964 -0.9437  0.5185
  760SOL    HW213210   8.042   3.148   3.850 -0.3057  1.1315 -0.5232
  761SOL     OW13211   3.238   0.677   2.019 -0.1189 -0.2771 -0.6869
  761SOL    HW113212   3.320   0.723   2.053  0.1479  0.5130 -2.3797
  761SOL    HW213213   3.173   0.746   1.986 -1.4135 -0.9007  0.4847
  762SOL     OW13214   3.658   4.996   4.411  0.8028  0.1261 -0.0573
  762SOL    HW113215   3.608   4.918   4.449  1.4585 -0.5685 -0.5879
  762SOL    HW213216   3.647   4.997   4.312  0.0937  1.2223  0.0230
  763SOL     OW13217   5.071   4.024   6.494 -0.0475 -0.4004  0.4830
  763SOL    HW113218   5.097   4.059   6.584  0.1699  0.2915  0.1548
  763SOL    HW213219   5.142   3.963   6.460 -0.3406 -1.0305  0.9731
  764SOL     OW13220   3.741   4.209   0.508 -0.2450  0.5322 -0.9109
  764SOL    HW113221   3.713   4.253   0.594 -0.4142  0.9418 -1.1743
  764SOL    HW213222   3.752   4.279   0.437  1.8266  0.4419 -0.7212
  765SOL     OW13223   4.090   3.898   4.713 -0.4315 -0.0602  0.3411
  765SOL    HW113224   3.996   3.929   4.725 -0.3113  0.4475 -0.0044
  765SOL    HW213225   4.151   3.948   4.775 -0.4927 -0.9413  1.1220
  766SOL     OW13226   0.244   5.993   5.179  0.1406  0.1836 -0.3107
  766SOL    HW113227   0.313   5.979   5.250  1.0711  0.9654 -1.0350
  766SOL    HW213228   0.260   6.081   5.134 -1.0806  0.1795 -0.7704
  767SOL     OW13229   8.455   6.301   1.326 -0.2681  0.4651  0.5555
  767SOL    HW113230   8.477   6.224   1.266 -1.1375  0.5525  0.1191
  767SOL    HW213231   8.452   6.386   1.272 -1.2885  0.5103  0.6751
  768SOL     OW13232   4.279   3.425   1.577  0.6263 -0.1849 -0.2735
  768SOL    HW113233   4.288   3.329   1.603  1.3755  0.1010  0.5244
  768SOL    HW213234   4.202   3.466   1.627  1.6105  0.1733  0.9555
  769SOL     OW13235   9.637   6.242   1.833 -0.3564  0.2370  0.1448
  769SOL    HW113236   9.657   6.337   1.809  0.5761 -0.4219 -1.8127
  769SOL    HW213237   9.710   6.206   1.890  0.3899  0.0594 -0.9030
  770SOL     OW13238   3.105   6.542   3.131 -0.1045  0.1870 -0.2478
  770SOL    HW113239   3.021   6.498   3.162 -0.4689  0.1985 -1.2019
  770SOL    HW213240   3.110   6.540   3.032  2.5560 -2.6267 -0.1286
  771SOL     OW13241   8.563   0.574   4.383 -0.0322 -0.0616 -0.2827
  771SOL    HW113242   8.546   0.662   4.340  0.9796  0.5319  0.4868
  771SOL    HW213243   8.625   0.520   4.326 -0.5089 -0.1988 -0.6676
  772SOL     OW13244   5.475   8.284   4.689  0.1973  0.6106 -0.1708
  772SOL    HW113245   5.543   8.264   4.759 -0.0443  0.5517  0.0494
  772SOL    HW213246   5.521   8.308   4.603  0.4948 -0.6317 -0.3719
  773SOL     OW13247   5.811   8.677   3.450  0.0576  0.0021 -0.4634
  773SOL    HW113248   5.874   8.609   3.487  1.8112  1.1267 -1.3489
  773SOL    HW213249   5.844   8.769   3.471 -2.4405  0.6358  0.9603
  774SOL     OW13250   9.006   6.377   3.386 -0.3291  0.0709 -0.2124
  774SOL    HW113251   8.923   6.431   3.394 -0.9867 -1.0458  0.7326
  774SOL    HW213252   9.020   6.326   3.471  1.7593  0.8725 -0.0544
  775SOL     OW13253   4.390   4.595   3.204 -0.2402 -0.3336  0.3070
  775SOL    HW113254   4.479   4.555   3.225  0.6045  0.9338 -0.7693
  775SOL    HW213255   4.335   4.528   3.154 -0.1153 -1.3195  1.4706
  776SOL     OW13256   3.739   7.786   4.655  0.1891  0.0601  0.1281
  776SOL    HW113257   3.717   7.883   4.646  0.6371  0.0149 -1.7895
  776SOL    HW213258   3.696   7.735   4.581 -1.2299 -1.4390  1.9423
  777SOL     OW13259   2.850   3.361   4.301 -0.3990 -0.0112  0.4037
  777SOL    HW113260   2.882   3.394   4.390  0.0307 -1.3863  0.7800
  777SOL    HW213261   2.751   3.350   4.303 -0.3153 -0.7356  0.9697
  778SOL     OW13262   9.545   1.213   3.411  0.1648  0.6194 -0.2846
  778SOL    HW113263   9.520   1.117   3.416 -0.2401  0.8149  2.5261
  778SOL    HW213264   9.645   1.221   3.415  0.1729  0.3260  0.2315
  779SOL     OW13265   0.723   9.970   1.632 -0.4136  0.1752 -0.0346
  779SOL    HW113266   0.625   9.985   1.632 -0.5741 -0.8546  1.2376
  779SOL    HW213267   0.758   9.974   1.538 -1.6071  0.8874 -0.4464
  780SOL     OW13268   7.232   8.452   5.566  0.0472 -0.6814 -0.0458
  780SOL    HW113269   7.208   8.523   5.631 -0.0197 -1.3286  0.6387
  780SOL    HW213270   7.151   8.398   5.542  0.2036 -0.8781 -0.1388
  781SOL     OW13271   8.580   3.177   2.860 -0.8550 -0.5165  0.2204
  781SOL    HW113272   8.611   3.120   2.936  1.2669  0.3192 -0.0028
  781SOL    HW213273   8.493   3.220   2.884 -0.4873 -0.7189  1.9576
  782SOL     OW13274   0.432   3.523   0.781 -0.1235 -0.1668  0.0078
  782SOL    HW113275   0.423   3.623   0.785 -1.1759 -0.2586 -0.0600
  782SOL    HW213276   0.343   3.481   0.796  0.2373 -1.0920 -0.4239
  783SOL     OW13277   2.607   3.181   3.196  0.4092  0.4259  0.2304
  783SOL    HW113278   2.701   3.148   3.194  0.6927  1.2576 -1.6443
  783SOL    HW213279   2.603   3.270   3.240  0.3343 -0.0179  1.1474
  784SOL     OW13280   3.380   6.318   4.896  0.0665 -0.3424 -0.5663
  784SOL    HW113281   3.341   6.227   4.887 -1.2201  0.1039  0.3578
  784SOL    HW213282   3.357   6.355   4.986  3.1930 -0.3233  0.2723
  785SOL     OW13283   1.873   6.703   0.341  0.3087 -0.1335  0.4797
  785SOL    HW113284   1.894   6.640   0.415  0.2291  0.2297  0.8103
  785SOL    HW213285   1.904   6.664   0.254  0.7915 -0.3602  0.7577
  786SOL     OW13286   2.526   2.510   2.221  0.6984 -0.3703  0.5115
  786SOL    HW113287   2.485   2.467   2.141 -0.2829 -1.3667  1.5417
  786SOL    HW213288   2.530   2.609   2.208 -3.8360 -0.0244  1.1845
  787SOL     OW13289   4.228   5.445   1.280 -0.0547 -0.3820 -0.3581
  787SOL    HW113290   4.216   5.497   1.196  0.7233  0.3850 -0.0046
  787SOL    HW213291   4.323   5.452   1.311 -0.0153 -1.7363 -0.1162
  788SOL     OW13292   1.757   0.252   2.001  0.2633  0.1398  0.4566
  788SOL    HW113293   1.750   0.163   1.957  0.4843 -0.6724  2.0582
  788SOL    HW213294   1.848   0.262   2.042  0.0832  0.9258  0.6793
  789SOL     OW13295   2.893   9.357   4.860  0.2506 -0.1189 -0.3190
  789SOL    HW113296   2.950   9.430   4.822  0.0023 -0.0872 -0.6306
  789SOL    HW213297   2.908   9.273   4.809  0.3510 -0.2242 -0.1177
  790SOL     OW13298   1.355   7.323   3.778 -0.3473 -0.1732  0.3815
  790SOL    HW113299   1.329   7.354   3.869  0.7145  2.4993 -0.1994
  790SOL    HW213300   1.447   7.354   3.757 -1.0595  0.3473 -2.1224
  791SOL     OW13301   2.367   4.160   2.004 -0.2335  0.1358 -0.8066
  791SOL    HW113302   2.447   4.204   2.045  0.3536 -1.1682 -0.5060
  791SOL    HW213303   2.356   4.189   1.910  0.8101  0.0543 -0.9541
  792SOL     OW13304   2.196   2.872   2.218 -0.5559 -0.2030  0.3821
  792SOL    HW113305   2.192   2.855   2.317 -2.3738 -1.3066  0.1513
  792SOL    HW213306   2.112   2.919   2.190 -0.6952 -1.1755 -0.8498
  793SOL     OW13307   9.368   5.095   3.397 -0.1544 -0.5058 -0.5381
  793SOL    HW113308   9.283   5.132   3.435  0.9658  0.0260  1.5124
  793SOL    HW213309   9.350   5.007   3.354 -2.2999  0.9774 -2.8463
  794SOL     OW13310   4.773   0.543   3.952 -0.1276  0.6366 -0.1098
  794SOL    HW113311   4.679   0.556   3.984 -0.0046 -0.3113  0.6793
  794SOL    HW213312   4.782   0.453   3.910  0.6538  0.3350  0.6862
  795SOL     OW13313   0.356   7.255   2.258  0.3077  0.0123 -0.6228
  795SOL    HW113314   0.336   7.187   2.328 -0.0629  0.7226 -0.0295
  795SOL    HW213315   0.276   7.314   2.245  1.5616  2.0795  0.8519
  796SOL     OW13316   4.064   9.725   2.274 -0.3855  1.0157  0.2027
  796SOL    HW113317   4.147   9.766   2.236 -0.9071  0.4358 -1.5852
  796SOL    HW213318   4.000   9.798   2.300 -0.7480  1.4186 -1.7000
  797SOL     OW13319   5.512   1.518   3.029 -0.3841  0.2835 -0.1380
  797SOL    HW113320   5.575   1.558   2.962 -0.8776 -1.3055 -1.5942
  797SOL    HW213321   5.418   1.533   3.000 -0.6680  1.2653  1.2212
  798SOL     OW13322   3.309   1.918   2.314  0.3386 -0.2107 -0.9454
  798SOL    HW113323   3.287   1.827   2.351  0.4683  0.3959  0.6601
  798SOL    HW213324   3.395   1.912   2.263  0.2190 -1.0456 -1.0648
  799SOL     OW13325   4.274   2.651   1.317 -0.1591 -0.3568  0.0931
  799SOL    HW113326   4.357   2.603   1.290  0.0578 -0.1751  0.4304
  799SOL    HW213327   4.278   2.746   1.285  0.3231  0.0011  1.1799
  800SOL     OW13328   5.446   0.461   4.763  0.5755  0.3882 -0.7253
  800SOL    HW113329   5.492   0.433   4.847  0.2373 -0.3955 -0.7887
  800SOL    HW213330   5.512   0.502   4.700  0.8794  0.7140 -0.1916
  801SOL     OW13331   9.518   7.034   0.742 -0.2536  0.0936 -0.5340
  801SOL    HW113332   9.440   7.088   0.709 -1.4078 -1.4806 -0.4485
  801SOL    HW213333   9.578   7.093   0.797 -1.1643  1.4180 -0.9177
  802SOL     OW13334   7.956   7.366   4.053 -1.5674 -0.5053 -0.3510
  802SOL    HW113335   7.910   7.363   4.142  1.7313  0.3850  1.4764
  802SOL    HW213336   8.003   7.279   4.037 -0.3671  0.0952 -0.1760
  803SOL     OW13337   6.818   9.487   3.425 -0.1244 -0.3668 -0.1344
  803SOL    HW113338   6.830   9.577   3.384  1.4571 -0.8282 -0.7407
  803SOL    HW213339   6.726   9.454   3.407  0.2349 -0.1548 -2.5134
  804SOL     OW13340   6.888   8.690   4.190  0.1848 -0.3803  0.4750
  804SOL    HW113341   6.839   8.744   4.259  0.2595  2.6676 -1.7568
  804SOL    HW213342   6.831   8.681   4.109  1.2376 -1.4739 -0.1596
  805SOL     OW13343   7.434   7.400   3.540  0.1179 -0.6785 -0.4786
  805SOL    HW113344   7.446   7.301   3.541  0.5251 -0.6302  2.5975
  805SOL    HW213345   7.337   7.422   3.552  0.1803 -0.7007  0.0903
  806SOL     OW13346   5.632   4.559   1.235  0.5097  0.2782  0.1889
  806SOL    HW113347   5.668   4.637   1.286 -2.3061  1.2924  0.6879
  806SOL    HW213348   5.569   4.507   1.293  0.1750 -0.7272 -1.0553
  807SOL     OW13349   2.926   7.549   0.358  0.1720 -0.6734  0.2201
  807SOL    HW113350   3.006   7.595   0.398  0.2013  0.4180 -1.0696
  807SOL    HW213351   2.844   7.602   0.377  0.1108 -0.4431 -0.6760
  808SOL     OW13352   2.647   7.748   2.492  0.4056  0.0959  0.1199
  808SOL    HW113353   2.720   7.707   2.436  2.2207  1.1057  1.7089
  808SOL    HW213354   2.594   7.811   2.435  1.4344  0.1598 -0.8061
  809SOL     OW13355   0.500   8.941   1.712  0.2866  0.1253 -0.7862
  809SOL    HW113356   0.471   8.951   1.807 -1.7604  2.2057 -1.5586
  809SOL    HW213357   0.573   9.007   1.693  0.2093  0.1978 -0.8322
  810SOL     OW13358   3.120   4.963   1.432  0.0517 -0.0066 -0.6836
  810SOL    HW113359   3.218   4.978   1.421  0.2182  0.5630  1.4070
  810SOL    HW213360   3.102   4.919   1.519 -1.5533 -0.1739 -1.0764
  811SOL     OW13361   2.381   4.485   3.098  0.1186 -0.2057 -0.2048
  811SOL    HW113362   2.325   4.470   3.179 -0.1592 -0.2917 -0.4081
  811SOL    HW213363   2.478   4.470   3.120  0.1744  1.0151  0.4077
  812SOL     OW13364   0.788   0.754   2.389  0.3580  0.1340  0.0942
  812SOL    HW113365   0.736   0.827   2.344 -0.4982 -0.5064  0.0478
  812SOL    HW213366   0.769   0.667   2.345  2.1020  0.0102 -0.4448
  813SOL     OW13367   1.311   5.543   2.966  0.1567 -0.1556 -0.5295
  813SOL    HW113368   1.305   5.516   2.870 -1.8996  0.3158 -0.5408
  813SOL    HW213369   1.297   5.641   2.975  2.6375  0.1797  0.0396
  814SOL     OW13370   4.605   3.202   1.671  0.2599  0.3453 -0.6673
  814SOL    HW113371   4.560   3.187   1.583 -2.1626  0.6971  0.4642
  814SOL    HW213372   4.602   3.117   1.724 -3.5110  1.6448  1.3406
  815SOL     OW13373   9.611   0.904   4.739 -0.0459 -0.0962  0.0535
  815SOL    HW113374   9.633   0.998   4.766 -0.0420  0.2630 -1.1956
  815SOL    HW213375   9.597   0.900   4.640 -0.6121 -1.3045  0.1804
  816SOL     OW13376   4.354   8.232   3.954 -0.7195 -0.5943  0.2345
  816SOL    HW113377   4.432   8.294   3.942  0.3167 -2.1194 -1.3177
  816SOL    HW213378   4.368   8.175   4.035  0.0812 -1.2601 -0.3632
  817SOL     OW13379   3.670   8.035   3.108 -0.9235 -0.2511 -0.0491
  817SOL    HW113380   3.618   8.024   3.024 -0.9145  0.3828 -0.1422
  817SOL    HW213381   3.753   7.979   3.104 -0.0333  1.1045 -1.2041
  818SOL     OW13382   6.493   0.541   5.067  0.1193  0.5468  0.3583
  818SOL    HW113383   6.554   0.563   5.143  1.0318  1.3608 -0.5980
  818SOL    HW213384   6.540   0.560   4.980 -0.8518 -0.5187 -0.4088
  819SOL     OW13385   0.680   2.938   1.353  0.1100 -0.1693  0.2063
  819SOL    HW113386   0.598   2.960   1.406 -0.0725  0.3778 -0.3000
  819SOL    HW213387   0.658   2.869   1.285  0.0114  0.1401 -0.0790
  820SOL     OW13388   8.748   3.659   2.305 -0.2010  0.4889  0.0212
  820SOL    HW113389   8.763   3.563   2.281 -0.7978  0.0398  1.4153
  820SOL    HW213390   8.777   3.717   2.229  1.9175 -0.6955 -0.1215
  821SOL     OW13391   5.633   0.742   0.668 -0.4067 -0.6040  0.4665
  821SOL    HW113392   5.594   0.766   0.579  0.7621 -0.9758 -0.1629
  821SOL    HW213393   5.730   0.718   0.656  0.2437  1.1138  2.1010
  822SOL     OW13394   9.783   5.322   0.809  0.0649  0.5822 -0.2049
  822SOL    HW113395   9.787   5.256   0.734 -0.4537  0.0621  0.2177
  822SOL    HW213396   9.737   5.280   0.887 -0.2124  1.4321  0.0854
  823SOL     OW13397   4.855   4.452   0.506 -0.0520 -0.6211 -0.0191
  823SOL    HW113398   4.890   4.397   0.581 -1.1654 -2.3661 -0.7546
  823SOL    HW213399   4.836   4.393   0.427 -0.8147  0.8772 -0.9770
  824SOL     OW13400   2.294   3.412   6.673  0.0367  0.0250  0.2436
  824SOL    HW113401   2.255   3.495   6.714  2.2552 -0.2601  3.1038
  824SOL    HW213402   2.245   3.332   6.706  0.3727 -0.0539  0.5560
  825SOL     OW13403   2.007   4.763   1.858  0.2412 -0.3833 -0.5911
  825SOL    HW113404   2.044   4.817   1.782  0.9204 -2.2976 -1.6303
  825SOL    HW213405   1.908   4.776   1.862  0.2335 -0.0645 -1.6330
  826SOL     OW13406   1.873   9.998   2.693  0.3227 -0.2522  0.1272
  826SOL    HW113407   1.827  10.023   2.778  3.0530 -0.0315  1.6305
  826SOL    HW213408   1.869   9.899   2.681 -0.8187 -0.1987  0.0720
  827SOL     OW13409   0.702   4.710   2.170  0.0458 -0.1461  0.2072
  827SOL    HW113410   0.726   4.629   2.116  0.9432  0.1264  0.1969
  827SOL    HW213411   0.602   4.716   2.177 -0.0410 -1.0144 -0.1533
  828SOL     OW13412   9.649   4.988   3.373 -0.7312 -0.3385  0.0579
  828SOL    HW113413   9.677   5.045   3.296 -3.0732  0.3822 -0.2883
  828SOL    HW213414   9.552   5.000   3.390  0.2409  1.7451  4.9971
  829SOL     OW13415   7.025   8.408   3.872 -0.1033  0.1274 -0.0558
  829SOL    HW113416   7.059   8.496   3.839 -0.4561  0.2009 -0.2271
  829SOL    HW213417   7.012   8.412   3.972  0.5424  0.0459  0.0339
  830SOL     OW13418   0.163   4.209   1.931 -0.8581  0.6357  0.2903
  830SOL    HW113419   0.089   4.187   1.868 -0.5185  1.8145 -0.5279
  830SOL    HW213420   0.203   4.297   1.907 -1.3197  1.5572  2.7040
  831SOL     OW13421   0.092   4.152   3.448 -0.2176  0.1152  0.0281
  831SOL    HW113422   0.163   4.222   3.452  1.1458 -1.2948  1.0261
  831SOL    HW213423   0.066   4.125   3.541 -1.4036 -0.0251 -0.3423
  832SOL     OW13424   7.388   0.980   6.618  0.6843 -0.1395 -0.0408
  832SOL    HW113425   7.485   1.000   6.628  0.8607 -1.2397  0.4738
  832SOL    HW213426   7.367   0.961   6.522  1.1558 -0.8027 -0.0150
  833SOL     OW13427   0.032   6.169   1.355  0.3530  0.1146  0.1746
  833SOL    HW113428  -0.047   6.202   1.304  1.9297  1.6056 -1.3754
  833SOL    HW213429   0.059   6.079   1.321  1.5061  1.1794 -1.8009
  834SOL     OW13430   6.488   8.192   2.723 -0.2385  0.1761 -0.3270
  834SOL    HW113431   6.494   8.256   2.647 -0.7053  1.8370  0.9948
  834SOL    HW213432   6.561   8.212   2.789 -0.0501 -1.0168 -0.1715
  835SOL     OW13433   3.803   2.363   1.344 -0.0104  0.1081 -0.7871
  835SOL    HW113434   3.860   2.445   1.345 -0.3852  0.3772  0.1482
  835SOL    HW213435   3.774   2.343   1.251 -1.3375  2.0604 -0.8205
  836SOL     OW13436   3.243   2.942   2.262 -0.2814  0.0301 -0.1557
  836SOL    HW113437   3.309   2.910   2.330  0.1703  0.6833 -0.2879
  836SOL    HW213438   3.187   3.015   2.301  0.0398  0.4697 -0.5153
  837SOL     OW13439   6.579   1.079   3.382  0.4094  0.3829  0.1057
  837SOL    HW113440   6.585   0.995   3.435  0.6458 -0.2673 -0.9191
  837SOL    HW213441   6.484   1.097   3.358  0.4364 -0.0372 -0.3431
  838SOL     OW13442   6.285   1.867   4.694 -0.2535 -0.3489 -0.1062
  838SOL    HW113443   6.293   1.831   4.600 -1.6443 -0.9639  0.0031
  838SOL    HW213444   6.363   1.835   4.748  1.2034  1.0140 -1.3631
  839SOL     OW13445   3.350   3.789   5.256 -0.0004  0.0770  0.1158
  839SOL    HW113446   3.391   3.706   5.294 -0.0530 -0.4775 -1.0111
  839SOL    HW213447   3.266   3.766   5.207 -1.2464  1.1071  1.7411
  840SOL     OW13448   0.099   6.540   5.840 -0.4419 -0.0981 -0.3589
  840SOL    HW113449   0.087   6.441   5.840 -2.8955  0.1654 -0.1844
  840SOL    HW213450   0.179   6.564   5.785  0.7188 -2.2106  0.3645
  841SOL     OW13451   9.927   1.789   2.092 -0.1236 -0.1092 -0.5125
  841SOL    HW113452   9.894   1.879   2.119  1.6423 -0.1568  1.8628
  841SOL    HW213453   9.908   1.723   2.165  0.5049 -1.2220 -1.3406
  842SOL     OW13454   2.131   6.323   2.055  0.2154 -0.3758  0.1910
  842SOL    HW113455   2.137   6.310   2.154 -0.6623 -1.6677  0.0896
  842SOL    HW213456   2.119   6.420   2.034 -0.9404 -0.2385  1.4408
  843SOL     OW13457   1.732   6.228   3.177 -0.0492  0.4600 -0.1881
  843SOL    HW113458   1.785   6.233   3.262  1.8388 -1.2995 -1.2103
  843SOL    HW213459   1.732   6.135   3.142 -4.5889  0.2203  0.1544
  844SOL     OW13460   9.710   0.131   3.593 -0.8351 -0.2648 -0.0030
  844SOL    HW113461   9.790   0.090   3.550 -0.2616  0.0203  0.7923
  844SOL    HW213462   9.666   0.062   3.652 -0.5505 -0.0895  0.4117
  845SOL     OW13463   0.779   5.612   0.751 -0.1145  0.1998  0.4908
  845SOL    HW113464   0.790   5.707   0.721 -1.4325  0.5664  1.1354
  845SOL    HW213465   0.866   5.578   0.786  0.0107  1.6651  1.6647
  846SOL     OW13466   1.229   2.042   1.282 -0.0317  0.1054 -0.3267
  846SOL    HW113467   1.148   2.084   1.241 -1.5496 -1.0237  1.4401
  846SOL    HW213468   1.205   1.951   1.316  1.6960  0.2069  1.2206
  847SOL     OW13469   9.147   6.842   3.584 -0.3686 -0.3213 -0.1724
  847SOL    HW113470   9.227   6.833   3.644 -0.2361 -2.7782 -0.6744
  847SOL    HW213471   9.176   6.831   3.489 -1.0992  0.2636 -0.4674
  848SOL     OW13472   7.817   5.534   1.691  0.0614  0.1380 -0.8019
  848SOL    HW113473   7.794   5.447   1.646 -0.1399 -0.9592  1.3638
  848SOL    HW213474   7.915   5.553   1.678 -0.0351 -0.0439 -1.8713
  849SOL     OW13475   4.211   6.128   0.990 -0.1422  0.0393 -0.4892
  849SOL    HW113476   4.129   6.144   0.935  0.7260  0.9603 -1.5369
  849SOL    HW213477   4.197   6.163   1.083 -0.1357  2.2663 -1.2991
  850SOL     OW13478   1.267   2.345   1.685  0.7263 -0.2501 -0.0642
  850SOL    HW113479   1.214   2.323   1.603 -0.3653 -1.4638  0.9369
  850SOL    HW213480   1.273   2.444   1.695  2.3460 -0.0487 -2.5197
  851SOL     OW13481   0.506   3.752   3.097 -0.2881  0.3386 -0.0509
  851SOL    HW113482   0.425   3.792   3.053  0.3013  2.1185  0.4194
  851SOL    HW213483   0.481   3.667   3.143 -1.8498  0.7705 -0.0812
  852SOL     OW13484   3.157   2.493   4.564 -0.2864  0.2801 -0.1504
  852SOL    HW113485   3.133   2.396   4.560  1.2345 -0.2111  1.8896
  852SOL    HW213486   3.239   2.505   4.621  1.0078  2.4926 -2.3611
  853SOL     OW13487   3.904   8.369   1.564  0.2194  0.1570 -0.1201
  853SOL    HW113488   3.812   8.341   1.592 -0.1878  0.3224 -1.2731
  853SOL    HW213489   3.966   8.362   1.643 -0.4072 -1.5689  0.2507
  854SOL     OW13490   0.548   1.688   2.740  0.0048  0.0386  0.0631
  854SOL    HW113491   0.599   1.764   2.700 -1.2241  0.5935 -0.5123
  854SOL    HW213492   0.596   1.602   2.722  0.4491  0.4875 -0.9403
  855SOL     OW13493   3.793   9.454   3.693 -0.3885  0.4973  0.2361
  855SOL    HW113494   3.822   9.544   3.661 -1.0757  0.6688  0.0838
  855SOL    HW213495   3.752   9.403   3.617  0.6146 -0.2040  0.1608
  856SOL     OW13496   3.785   5.064   0.199 -0.2321  0.0664  0.5289
  856SOL    HW113497   3.786   5.057   0.299 -2.4453 -0.3479  0.5430
  856SOL    HW213498   3.714   5.129   0.171 -0.4993 -0.7946 -0.8116
  857SOL     OW13499   2.173   8.721   1.196 -0.7290 -0.2675  0.2430
  857SOL    HW113500   2.107   8.756   1.130 -2.3885  1.1257  2.5416
  857SOL    HW213501   2.248   8.787   1.206  0.6840 -1.5035 -1.8125
  858SOL     OW13502   8.730   8.154   0.719  0.5249  0.1400  0.2477
  858SOL    HW113503   8.682   8.238   0.696 -1.6697 -0.9966  0.5543
  858SOL    HW213504   8.736   8.096   0.637  0.4726 -0.1475  0.4458
  859SOL     OW13505   6.403   1.134   2.505  0.5106  0.3117  0.1223
  859SOL    HW113506   6.362   1.155   2.594 -0.7070  0.2886 -0.4271
  859SOL    HW213507   6.358   1.053   2.466  0.8096  0.5249 -0.6650
  860SOL     OW13508   5.598   4.014   1.220 -0.1059  0.7886  0.3562
  860SOL    HW113509   5.605   4.057   1.309 -0.4650 -0.5845  1.0585
  860SOL    HW213510   5.564   3.920   1.230 -1.6258  1.1143 -1.3349
  861SOL     OW13511   5.476   5.993   1.966  0.0727 -0.3986  0.5937
  861SOL    HW113512   5.421   5.992   2.050 -1.1293  2.4265 -0.0948
  861SOL    HW213513   5.416   5.980   1.887  0.8892 -0.8019  0.0325
  862SOL     OW13514   9.702   5.150   6.045 -0.0296 -0.2199  0.4030
  862SOL    HW113515   9.742   5.090   5.976 -0.5666  0.5891 -0.6165
  862SOL    HW213516   9.677   5.095   6.126 -0.0282 -1.2770 -0.3006
  863SOL     OW13517   2.059   1.106   2.332  0.7065 -0.2401  0.3505
  863SOL    HW113518   2.036   1.198   2.300 -0.7789 -1.0187 -0.8846
  863SOL    HW213519   2.041   1.099   2.430 -0.0539  0.5083  0.2665
  864SOL     OW13520   1.541   7.072   1.669  0.1763  0.7194  0.0267
  864SOL    HW113521   1.582   7.163   1.679  1.5610  0.1271 -0.1552
  864SOL    HW213522   1.612   7.002   1.681 -0.6140 -0.3050 -1.1853
  865SOL     OW13523   8.881   0.783   1.659 -0.1302  0.4679  0.3569
  865SOL    HW113524   8.860   0.856   1.724  0.3380  0.6416  0.3140
  865SOL    HW213525   8.935   0.820   1.584 -2.2771  0.6925 -1.1267
  866SOL     OW13526   2.483   5.560   2.199 -0.1687 -0.0705  0.3106
  866SOL    HW113527   2.415   5.610   2.252 -0.1471  0.5465 -0.2439
  866SOL    HW213528   2.465   5.462   2.207 -0.5351  0.0453  0.9565
  867SOL     OW13529   3.371   5.153   4.969  0.3714 -0.3772 -0.2734
  867SOL    HW113530   3.405   5.072   4.921  2.0916  0.3897 -0.3698
  867SOL    HW213531   3.314   5.124   5.046  0.1683 -1.6591 -0.8861
  868SOL     OW13532   7.876   0.213   5.207  0.2486  0.2315  0.1671
  868SOL    HW113533   7.906   0.132   5.257  2.0911  0.7400 -0.0860
  868SOL    HW213534   7.927   0.220   5.121 -1.2836  0.6004 -0.7378
  869SOL     OW13535   9.287   6.792   0.179 -0.1425 -0.0221  0.0962
  869SOL    HW113536   9.312   6.698   0.158  0.8469  0.0723  0.8223
  869SOL    HW213537   9.322   6.853   0.108  2.0511  0.1539  1.3069
  870SOL     OW13538   9.996   1.047   4.254  0.0011  0.2057 -0.5153
  870SOL    HW113539  10.046   1.126   4.218 -0.0966  0.6602  0.3350
  870SOL    HW213540   9.902   1.049   4.221  0.4809 -0.5606 -1.9872
  871SOL     OW13541   9.149   6.028   1.121 -0.0227 -0.7719  0.1493
  871SOL    HW113542   9.068   5.995   1.073  1.0372 -2.3037 -0.6172
  871SOL    HW213543   9.205   5.950   1.150  0.4418  0.2048  1.9885
  872SOL     OW13544   9.151   1.004   3.004 -0.0782 -0.4099  0.1405
  872SOL    HW113545   9.080   0.934   2.998 -0.0644 -0.3839 -0.3497
  872SOL    HW213546   9.177   1.033   2.912  0.5673 -0.4173  0.3180
  873SOL     OW13547   2.180   7.769   4.694 -0.3975  0.1738  0.0678
  873SOL    HW113548   2.113   7.844   4.695  0.7351  1.2151 -0.8696
  873SOL    HW213549   2.189   7.735   4.600  2.3805  1.8680 -0.3147
  874SOL     OW13550   7.622   2.070   0.220  0.0616  0.5167 -0.5792
  874SOL    HW113551   7.593   1.976   0.198 -0.8474  0.1066  2.2118
  874SOL    HW213552   7.576   2.134   0.159 -1.8786 -0.6274 -0.3497
  875SOL     OW13553   9.325   5.037   5.941  0.8052  0.2738 -0.1863
  875SOL    HW113554   9.275   5.121   5.918  2.5509  1.5897  0.7539
  875SOL    HW213555   9.365   4.998   5.858 -1.1104 -0.3751 -0.8299
  876SOL     OW13556   4.846   0.172   1.914  0.4482 -0.0934 -0.0263
  876SOL    HW113557   4.766   0.123   1.878 -0.9419 -0.0078  2.7617
  876SOL    HW213558   4.907   0.106   1.958 -0.2264  0.3458  1.5982
  877SOL     OW13559   6.831   9.375   3.853  0.4306 -0.7842 -0.0756
  877SOL    HW113560   6.920   9.394   3.810  0.4697 -1.4130 -0.2783
  877SOL    HW213561   6.785   9.461   3.873  0.9534 -0.4580 -0.2547
  878SOL     OW13562   9.290   1.372   4.142  0.1828 -0.2029 -0.4435
  878SOL    HW113563   9.204   1.401   4.185 -0.5282 -0.5762 -1.6047
  878SOL    HW213564   9.364   1.429   4.177 -0.7071  0.8736 -0.2537
  879SOL     OW13565   2.527   7.919   5.757  0.0245  0.2709  0.1505
  879SOL    HW113566   2.442   7.867   5.752  0.7562 -0.9956  0.6819
  879SOL    HW213567   2.507   8.016   5.744 -1.3488 -0.1367 -0.8947
  880SOL     OW13568   1.721   3.452   2.288  0.2176  0.2225 -0.2146
  880SOL    HW113569   1.770   3.377   2.332  1.2717  2.0981  1.9186
  880SOL    HW213570   1.787   3.519   2.254 -0.7546  0.9129 -0.7715
  881SOL     OW13571   2.096   4.833   5.136  0.2732  0.3772  0.1420
  881SOL    HW113572   2.063   4.750   5.182 -0.1425  0.5330  0.1216
  881SOL    HW213573   2.116   4.813   5.040 -3.7701  1.2786 -0.9536
  882SOL     OW13574   5.700   0.654   4.008 -0.0908  0.2343 -0.3545
  882SOL    HW113575   5.706   0.640   3.909 -0.4874  1.4692 -0.5664
  882SOL    HW213576   5.632   0.592   4.047  0.9605 -1.1327 -0.6580
  883SOL     OW13577   4.266   5.410   2.559 -0.3778 -1.0745  0.6761
  883SOL    HW113578   4.223   5.322   2.538 -2.0274 -1.0376  3.5872
  883SOL    HW213579   4.215   5.484   2.516 -0.5116 -1.3574  0.3514
  884SOL     OW13580   8.697   9.886   4.459  0.8583 -0.0748  0.1069
  884SOL    HW113581   8.691   9.981   4.489 -1.9347  0.5274 -2.2032
  884SOL    HW213582   8.667   9.826   4.533 -2.0951  1.1687 -0.0005
  885SOL     OW13583   2.157   6.684   0.961  0.4162 -0.0305 -0.4310
  885SOL    HW113584   2.191   6.743   1.034  0.8115  1.3910 -1.7643
  885SOL    HW213585   2.143   6.737   0.878 -0.4018 -1.5691 -1.3022
  886SOL     OW13586   1.080   6.186   0.040 -0.2917  0.0692 -0.2886
  886SOL    HW113587   0.981   6.189   0.050 -0.1844 -0.4127  0.9823
  886SOL    HW213588   1.110   6.092   0.026  0.1122  0.0392  0.7322
  887SOL     OW13589   1.020   4.832   2.110  0.2155  0.1718 -0.1542
  887SOL    HW113590   1.047   4.751   2.162  0.8822 -1.7148 -3.2673
  887SOL    HW213591   0.930   4.864   2.142  0.5446 -0.9850  2.0098
  888SOL     OW13592   2.286   2.631   0.922  0.6597 -0.1674 -0.1394
  888SOL    HW113593   2.239   2.720   0.927  0.5871 -0.0759 -2.1159
  888SOL    HW213594   2.227   2.561   0.962 -1.4981 -0.1554 -3.1391
  889SOL     OW13595   2.243   8.486   2.916 -0.6454 -0.2813 -0.1272
  889SOL    HW113596   2.192   8.569   2.938  0.2325 -0.0984  1.2471
  889SOL    HW213597   2.265   8.437   3.000 -0.9294 -1.7856 -0.9007
  890SOL     OW13598   0.220   6.554   1.585 -0.8246  0.2448 -0.2996
  890SOL    HW113599   0.169   6.495   1.523 -2.1113  1.6006 -0.5722
  890SOL    HW213600   0.277   6.498   1.645  0.1823 -1.1101 -2.4408
  891SOL     OW13601   2.829   3.461   2.413 -0.0573 -0.9890 -0.0778
  891SOL    HW113602   2.887   3.521   2.469 -0.4598  0.5142 -1.2284
  891SOL    HW213603   2.736   3.461   2.450  0.0627 -1.3231  0.2276
  892SOL     OW13604   7.566   8.085   2.518 -0.0194 -0.0002  0.4175
  892SOL    HW113605   7.629   8.015   2.485 -0.0913  0.3530 -0.5051
  892SOL    HW213606   7.488   8.041   2.563  0.3646 -0.4787  0.6144
  893SOL     OW13607   2.700   4.111   5.969  0.4233 -0.4477  0.0110
  893SOL    HW113608   2.632   4.051   5.928  0.6824 -0.4382 -0.4370
  893SOL    HW213609   2.674   4.206   5.956  1.4190 -0.4042 -1.7286
  894SOL     OW13610   6.061   0.619   1.048  0.1021 -0.5699  0.2990
  894SOL    HW113611   6.101   0.620   0.957 -0.7208 -1.0681 -0.0793
  894SOL    HW213612   6.123   0.574   1.112  0.0650 -1.5029 -0.3163
  895SOL     OW13613   5.563   9.951   2.212 -0.6410  0.5828  0.3407
  895SOL    HW113614   5.521   9.993   2.131 -1.1257 -0.0321  0.2693
  895SOL    HW213615   5.656   9.985   2.223 -0.7221  0.9965 -0.2307
  896SOL     OW13616   6.423   9.065   3.460 -0.0451  0.0508 -0.3188
  896SOL    HW113617   6.392   8.972   3.438  1.0136 -0.4166  0.1335
  896SOL    HW213618   6.493   9.061   3.531  0.9898  1.0950 -1.2508
  897SOL     OW13619   2.447   3.910   1.689  0.2063  0.0156 -0.1752
  897SOL    HW113620   2.441   3.984   1.756  0.5692 -1.1459  1.1629
  897SOL    HW213621   2.355   3.879   1.665  0.0915  0.0175  0.2601
  898SOL     OW13622   9.863   9.329   2.211 -0.1666  0.0961  0.2351
  898SOL    HW113623   9.764   9.336   2.223 -0.3856  0.4799 -1.6714
  898SOL    HW213624   9.886   9.239   2.173  0.1838  0.1044  0.4300
  899SOL     OW13625   1.681   2.790   3.091 -0.2067  0.6315 -0.3217
  899SOL    HW113626   1.724   2.840   3.166  0.9377 -2.1082  0.8972
  899SOL    HW213627   1.713   2.827   3.003  3.2306 -0.0866  0.5525
  900SOL     OW13628   8.364   5.281   0.567  0.3159 -0.8209  0.5935
  900SOL    HW113629   8.281   5.225   0.573  0.8187 -1.4476  1.7810
  900SOL    HW213630   8.442   5.223   0.547  1.1982 -0.8915  4.0006
  901SOL     OW13631   6.861   8.835   5.126  0.1792 -0.0388 -0.1120
  901SOL    HW113632   6.824   8.742   5.127  0.4321 -0.1366  0.1344
  901SOL    HW213633   6.953   8.834   5.087  0.3760  0.0403  0.3564
  902SOL     OW13634   2.363   4.624   4.606  0.2662 -1.0826  0.4460
  902SOL    HW113635   2.383   4.552   4.673  1.3206  0.8904  2.3072
  902SOL    HW213636   2.449   4.656   4.567 -0.1918 -0.6979 -0.2370
  903SOL     OW13637   9.118   2.839   1.829  0.2792  0.5277 -0.5662
  903SOL    HW113638   9.100   2.741   1.815  0.4026  0.5673 -0.9945
  903SOL    HW213639   9.212   2.851   1.859  0.5901  0.6046 -1.5531
  904SOL     OW13640   0.398   8.289   3.052 -0.4565  0.1274  0.0899
  904SOL    HW113641   0.360   8.197   3.063 -1.5736  0.4508 -0.9615
  904SOL    HW213642   0.339   8.355   3.100  0.5649  0.2595  1.1910
  905SOL     OW13643   8.320   4.975   1.599 -0.6163  0.2026 -0.4325
  905SOL    HW113644   8.290   4.953   1.506 -0.5127  1.5272 -0.7797
  905SOL    HW213645   8.408   4.930   1.617 -0.1902  0.6876 -1.3013
  906SOL     OW13646   2.916   7.237   3.711 -0.3033  0.1620 -0.2818
  906SOL    HW113647   3.014   7.232   3.692 -0.2750  1.0919 -0.4363
  906SOL    HW213648   2.865   7.249   3.626 -0.5220  0.0223 -0.1714
  907SOL     OW13649   5.702   2.161   2.994 -0.2715  0.6055  0.1461
  907SOL    HW113650   5.758   2.087   3.030  0.1591 -0.4313 -2.5127
  907SOL    HW213651   5.678   2.224   3.067  2.1263 -0.3779  1.8245
  908SOL     OW13652   6.932   3.569   0.360 -0.7671 -0.3077  0.2728
  908SOL    HW113653   6.899   3.657   0.392 -1.5460 -0.0649 -1.1697
  908SOL    HW213654   7.032   3.572   0.351 -0.6121 -0.1806  2.0280
  909SOL     OW13655   5.411   2.917   3.013 -0.1140 -0.4605 -0.4044
  909SOL    HW113656   5.400   2.823   2.981 -0.0072 -0.5365 -0.2140
  909SOL    HW213657   5.320   2.959   3.023 -0.1993 -0.8331  0.3831
  910SOL     OW13658   1.472   5.287   3.726 -0.0643 -0.1492  0.0680
  910SOL    HW113659   1.522   5.207   3.761  0.2382  0.1566  0.3426
  910SOL    HW213660   1.515   5.319   3.642 -0.3505 -0.4386 -0.1917
  911SOL     OW13661   0.344   6.385   3.203  0.2931  0.0915  0.2159
  911SOL    HW113662   0.347   6.421   3.297  0.5061  0.9218 -0.0972
  911SOL    HW213663   0.392   6.298   3.200  0.0382 -0.0824  0.9401
  912SOL     OW13664   4.756   1.865   1.753  0.2299 -0.4405  0.6496
  912SOL    HW113665   4.706   1.896   1.834 -1.4037  0.7980 -0.8047
  912SOL    HW213666   4.721   1.777   1.723  1.0624 -1.0590  1.4748
  913SOL     OW13667   3.672   8.024   1.871 -0.2049 -0.5710 -0.1201
  913SOL    HW113668   3.650   8.095   1.938  0.0412  1.6220 -2.3062
  913SOL    HW213669   3.771   8.012   1.865 -0.2364 -0.9520  0.0803
  914SOL     OW13670   0.248   8.762   0.818  0.4423 -0.1635 -0.0413
  914SOL    HW113671   0.282   8.763   0.912  1.1244  0.2786 -0.2911
  914SOL    HW213672   0.148   8.749   0.818  0.4778 -0.4193  0.7301
  915SOL     OW13673   0.360   4.050   3.829 -0.3231 -0.0551  0.1210
  915SOL    HW113674   0.355   3.994   3.746 -0.2426  0.5543 -0.3023
  915SOL    HW213675   0.272   4.049   3.875 -0.6650  0.4210 -0.5172
  916SOL     OW13676   1.303   4.085   2.966  0.7239  1.1143 -0.9778
  916SOL    HW113677   1.393   4.041   2.970 -0.3148 -0.9938  0.4820
  916SOL    HW213678   1.261   4.082   3.056 -2.2431 -1.0674 -2.3608
  917SOL     OW13679   9.221   3.724   4.850  0.4688  0.1412 -0.7351
  917SOL    HW113680   9.246   3.818   4.828  3.1857 -0.5069 -0.6143
  917SOL    HW213681   9.129   3.705   4.815 -1.1359  3.5551  1.3501
  918SOL     OW13682   8.912   1.610   3.631  0.0950 -0.7733 -0.5824
  918SOL    HW113683   9.010   1.610   3.611  0.3153  1.8128  0.3536
  918SOL    HW213684   8.862   1.640   3.550  0.3347  0.9936 -0.0999
  919SOL     OW13685   8.634   1.008   6.162 -0.0205  0.3137 -0.1850
  919SOL    HW113686   8.569   0.931   6.164 -1.3524  1.4174  0.2256
  919SOL    HW213687   8.654   1.036   6.256 -0.6450  1.3634 -0.3571
  920SOL     OW13688   8.380   8.134   0.770  0.4391  0.2975 -0.1254
  920SOL    HW113689   8.411   8.215   0.819  0.5545  0.2058 -0.0484
  920SOL    HW213690   8.381   8.152   0.671 -0.6981  0.7990 -0.0561
  921SOL     OW13691   7.753   2.185   2.115 -0.7835 -0.3094  0.2787
  921SOL    HW113692   7.682   2.255   2.126 -0.7237 -0.0720 -0.7745
  921SOL    HW213693   7.843   2.227   2.125 -0.6263  0.4408 -3.4623
  922SOL     OW13694   2.095   4.545   6.039 -0.7808 -0.3961 -0.4500
  922SOL    HW113695   2.112   4.616   6.107 -2.4725 -0.4903  0.0979
  922SOL    HW213696   2.182   4.507   6.007  0.1546  1.9577 -0.8003
  923SOL     OW13697   0.576   3.524   6.245  0.6441  0.0340 -0.1415
  923SOL    HW113698   0.598   3.522   6.147 -1.3967  1.4097 -0.6645
  923SOL    HW213699   0.660   3.525   6.298  1.7898  0.3139 -1.9158
  924SOL     OW13700   9.338   1.373   0.540 -0.2380 -0.3110 -0.0052
  924SOL    HW113701   9.290   1.289   0.564 -0.1779 -0.3935 -0.1749
  924SOL    HW213702   9.309   1.446   0.602 -0.8439 -0.2724 -0.3233
  925SOL     OW13703   3.660   8.578   2.539  0.0952 -0.2610  0.0017
  925SOL    HW113704   3.681   8.673   2.516  0.4734 -0.8939 -2.4479
  925SOL    HW213705   3.561   8.566   2.547 -0.1118 -0.1087 -1.9917
  926SOL     OW13706   7.954   1.545   0.368 -0.3392 -0.4870 -0.5672
  926SOL    HW113707   8.023   1.557   0.440  0.3842 -0.1038 -1.3225
  926SOL    HW213708   7.864   1.537   0.410 -0.0891  1.1495  0.3244
  927SOL     OW13709   8.210   0.129   4.676  0.0179 -0.2541  0.1806
  927SOL    HW113710   8.119   0.151   4.709 -0.2440  0.0790 -0.7504
  927SOL    HW213711   8.264   0.213   4.665 -0.3485 -0.2160 -1.5124
  928SOL     OW13712   1.104   7.912   1.576 -0.0996 -0.4129 -0.0362
  928SOL    HW113713   1.021   7.948   1.619  0.0220 -0.3023  0.1068
  928SOL    HW213714   1.115   7.816   1.600 -0.5943 -0.6309 -0.6736
  929SOL     OW13715   3.040   0.801   4.332 -0.0684  0.2252 -0.2189
  929SOL    HW113716   2.997   0.887   4.360 -2.0559 -0.3388 -1.4034
  929SOL    HW213717   3.129   0.820   4.291  0.8605  1.4333  2.2770
  930SOL     OW13718   3.457   6.629   3.520 -0.4113 -0.4715  0.2473
  930SOL    HW113719   3.416   6.628   3.428 -1.1867  1.1869  0.5423
  930SOL    HW213720   3.511   6.546   3.534  0.7915 -0.1516 -2.1974
  931SOL     OW13721   4.857   3.182   2.706  0.1994 -0.3243  0.2183
  931SOL    HW113722   4.946   3.201   2.665 -0.2170 -0.4326 -0.7682
  931SOL    HW213723   4.785   3.211   2.643 -0.4567 -1.6890  0.3273
  932SOL     OW13724   2.416   8.642   4.340 -0.6972  0.1391  0.6614
  932SOL    HW113725   2.477   8.699   4.286  1.0549  0.1527  2.5743
  932SOL    HW213726   2.461   8.555   4.360 -2.1498 -0.7078  0.3146
  933SOL     OW13727   6.802   1.104   5.510  0.0213  0.2596 -0.3262
  933SOL    HW113728   6.803   1.195   5.469  1.7764  0.3043 -0.2089
  933SOL    HW213729   6.838   1.037   5.445 -1.0112 -0.3173 -0.3163
  934SOL     OW13730   4.513   8.540   4.332 -0.0608  0.0335 -0.4071
  934SOL    HW113731   4.462   8.607   4.278 -1.4296 -1.5662 -1.1598
  934SOL    HW213732   4.558   8.586   4.408 -1.4494  1.7218 -0.5629
  935SOL     OW13733   3.700   5.832   0.546  0.7519  0.3178 -0.6559
  935SOL    HW113734   3.711   5.906   0.613  0.2093 -0.8108  0.7052
  935SOL    HW213735   3.614   5.844   0.497 -0.8516 -1.0925  1.7404
  936SOL     OW13736   9.074   9.117   5.005  0.2421 -0.1195  0.0421
  936SOL    HW113737   9.141   9.051   4.972  0.0713 -0.2118 -0.1196
  936SOL    HW213738   9.001   9.127   4.938  0.1587  0.0749  0.1613
  937SOL     OW13739   4.404   7.256   2.800 -0.1256  0.1868 -0.3997
  937SOL    HW113740   4.408   7.309   2.885  1.3529 -1.7180  0.7534
  937SOL    HW213741   4.458   7.302   2.729  2.1519 -0.3196  0.9421
  938SOL     OW13742   5.947   0.206   1.817  0.4847  0.3164  0.4947
  938SOL    HW113743   5.967   0.277   1.750  3.2525 -0.2247  0.6888
  938SOL    HW213744   5.882   0.141   1.778  1.0412  0.7354 -1.1908
  939SOL     OW13745   1.478   2.852   0.740 -0.8247  0.2977  0.2706
  939SOL    HW113746   1.468   2.835   0.838 -2.3290  0.9248  0.2358
  939SOL    HW213747   1.394   2.827   0.693 -0.7060  1.5938 -0.6468
  940SOL     OW13748   2.541   4.833   0.244 -0.5017 -0.8820 -0.6490
  940SOL    HW113749   2.542   4.786   0.156  1.6661 -1.8750 -0.1256
  940SOL    HW213750   2.521   4.767   0.317  3.2758 -1.2314  0.1698
  941SOL     OW13751   0.181   2.712   1.382 -0.1414  0.1692 -0.3234
  941SOL    HW113752   0.109   2.745   1.443  0.0083  0.8527 -0.5120
  941SOL    HW213753   0.214   2.788   1.325  0.2051 -0.3067 -0.7614
  942SOL     OW13754   2.182   5.915   5.159  0.1774  0.4102 -0.0558
  942SOL    HW113755   2.236   5.845   5.113 -1.1089 -0.6099 -0.0313
  942SOL    HW213756   2.166   5.889   5.254  0.6938  1.3095  0.2897
  943SOL     OW13757   1.857   8.183   4.249 -0.8014  0.0363 -0.3308
  943SOL    HW113758   1.896   8.249   4.184  0.2820 -0.4923 -0.2342
  943SOL    HW213759   1.779   8.138   4.207 -2.4776  2.4324  0.1424
  944SOL     OW13760   5.760   4.400   0.273  0.1067 -0.2221 -0.1296
  944SOL    HW113761   5.826   4.337   0.231  1.0075  0.3431  0.4088
  944SOL    HW213762   5.786   4.416   0.368 -2.1318 -1.7869  0.7780
  945SOL     OW13763   2.695   1.396   3.877 -0.2144 -0.8319 -0.0131
  945SOL    HW113764   2.655   1.340   3.805 -0.6926  0.1321 -0.5072
  945SOL    HW213765   2.671   1.492   3.862  0.0519 -0.5722  1.1842
  946SOL     OW13766   7.393   0.026   3.347  0.3476  0.5319 -0.2607
  946SOL    HW113767   7.464  -0.000   3.412 -0.1878 -0.7919 -0.1964
  946SOL    HW213768   7.354   0.114   3.374  0.1938  0.0411  1.1689
  947SOL     OW13769   4.457   3.154   3.186  0.5410  0.7439 -0.0232
  947SOL    HW113770   4.380   3.203   3.226 -0.5196 -1.9217  1.3170
  947SOL    HW213771   4.431   3.119   3.096  1.1330  2.1903 -0.7682
  948SOL     OW13772   0.613   8.782   4.572 -0.3699  0.1844  0.1796
  948SOL    HW113773   0.607   8.875   4.607 -1.7635  0.7775 -1.5642
  948SOL    HW213774   0.603   8.783   4.473 -2.2697 -1.9793  0.3091
  949SOL     OW13775   1.039   7.144   6.634 -0.1638  0.0050  0.5005
  949SOL    HW113776   1.034   7.244   6.638  0.4788 -0.0322  2.5899
  949SOL    HW213777   1.097   7.117   6.557  2.9738  1.3401  2.2957
  950SOL     OW13778   5.051   8.069   4.136  0.4524  0.7093 -0.2040
  950SOL    HW113779   5.106   8.007   4.191 -0.0820  0.9166  0.5716
  950SOL    HW213780   5.109   8.145   4.105  0.8612  0.3606 -0.2948
  951SOL     OW13781   1.872   6.333   3.402 -0.2674 -0.1776  0.2626
  951SOL    HW113782   1.965   6.298   3.410 -0.6205 -1.3155 -0.5399
  951SOL    HW213783   1.849   6.384   3.484  0.5825 -1.0567  1.0627
  952SOL     OW13784   2.252   2.959   0.881 -0.0507  0.0278 -0.1147
  952SOL    HW113785   2.328   2.964   0.946 -1.0758  1.9380  0.9687
  952SOL    HW213786   2.253   3.040   0.823 -0.5596 -0.5347 -0.9108
  953SOL     OW13787   7.126   9.913   3.322 -0.6910  0.0867  0.7624
  953SOL    HW113788   7.099   9.823   3.355 -2.2904  0.9506  1.8997
  953SOL    HW213789   7.224   9.928   3.339 -0.6066 -1.1062  1.3232
  954SOL     OW13790   1.672   6.780   0.015 -0.3213  0.2511 -0.0753
  954SOL    HW113791   1.616   6.797  -0.065 -0.9437 -0.4642  0.2006
  954SOL    HW213792   1.711   6.688   0.010 -0.0343  0.3519  0.2459
  955SOL     OW13793   3.939   4.344   4.324 -0.4409 -0.3130  0.3261
  955SOL    HW113794   3.952   4.286   4.244  0.1219 -2.1626  1.7395
  955SOL    HW213795   3.872   4.416   4.302 -0.9039 -1.2761 -1.5337
  956SOL     OW13796   6.483   0.528   4.381 -0.0590  0.0551  0.0249
  956SOL    HW113797   6.492   0.428   4.383 -3.0015 -0.2284  0.7230
  956SOL    HW213798   6.503   0.565   4.471  0.0982  0.0191  0.0055
  957SOL     OW13799   4.019   8.328   2.441 -0.3160  0.4356  0.0786
  957SOL    HW113800   4.008   8.349   2.344  1.8535  1.1750 -0.0303
  957SOL    HW213801   4.012   8.412   2.494  3.7347  0.9119  0.0509
  958SOL     OW13802   8.677   1.632   6.677  0.0599 -0.4505 -0.2952
  958SOL    HW113803   8.595   1.626   6.620 -0.2143 -1.0209  0.1592
  958SOL    HW213804   8.735   1.552   6.660  0.3068 -0.2794 -0.2726
  959SOL     OW13805   4.458   4.811   0.656 -0.3104 -0.4183  0.2364
  959SOL    HW113806   4.389   4.753   0.700  0.7755 -1.2502  0.8814
  959SOL    HW213807   4.460   4.901   0.701 -0.0681 -0.8428  1.0900
  960SOL     OW13808   6.087   1.200   5.497  0.1209 -0.0246 -0.4179
  960SOL    HW113809   5.989   1.217   5.505  0.3412  1.8045 -1.2181
  960SOL    HW213810   6.133   1.285   5.470  2.0966 -0.5233  1.2705
  961SOL     OW13811   5.088   1.548   1.792 -0.5697 -0.3630 -0.8463
  961SOL    HW113812   5.132   1.635   1.813 -1.7153  0.6163 -2.3745
  961SOL    HW213813   5.099   1.528   1.694  1.4258 -2.9436 -0.1241
  962SOL     OW13814   5.826   2.078   2.340  0.4714  0.0403 -0.4871
  962SOL    HW113815   5.856   2.130   2.420  0.5746  1.0334 -1.1739
  962SOL    HW213816   5.887   2.095   2.263 -0.2755 -0.0321 -1.1058
  963SOL     OW13817   7.088   4.021   0.503  0.1163  0.5496  0.2432
  963SOL    HW113818   7.066   4.072   0.420 -0.0798  2.0716  1.2041
  963SOL    HW213819   7.003   3.994   0.549  0.2289  0.6582  0.5151
  964SOL     OW13820   6.960   2.642   2.208  0.2026  0.4828 -0.1098
  964SOL    HW113821   6.980   2.665   2.303  0.0387  0.3554 -0.0457
  964SOL    HW213822   6.892   2.706   2.172 -1.3757 -0.8182  0.5216
  965SOL     OW13823   8.438   7.777   2.747 -0.3822 -0.3732 -0.0238
  965SOL    HW113824   8.517   7.773   2.685  0.1615 -0.8721  0.7031
  965SOL    HW213825   8.354   7.774   2.693  0.0742 -2.5884 -0.6703
  966SOL     OW13826   5.374   4.271   0.417  0.4607 -0.3631 -0.6458
  966SOL    HW113827   5.407   4.201   0.354 -0.9521 -3.1217  1.5382
  966SOL    HW213828   5.275   4.282   0.406  0.6214  1.0464 -0.7324
  967SOL     OW13829   0.839   9.746   1.784  0.5800  0.2641 -0.0938
  967SOL    HW113830   0.926   9.718   1.744  0.8775 -0.4174  1.0068
  967SOL    HW213831   0.810   9.833   1.744  0.5558 -0.6940 -2.2106
  968SOL     OW13832   6.620   8.753   3.075  0.3635 -0.6382  0.2230
  968SOL    HW113833   6.521   8.761   3.088  0.2009 -1.1380 -0.6680
  968SOL    HW213834   6.663   8.727   3.161 -0.1713  0.4943  0.8455
  969SOL     OW13835   0.699   9.525   2.494 -0.7108 -0.3677  0.7366
  969SOL    HW113836   0.743   9.608   2.461  0.2946 -0.8678  0.7965
  969SOL    HW213837   0.650   9.545   2.579  1.2864 -0.2609  1.9150
  970SOL     OW13838   0.378   3.633   4.524  0.4453 -0.2089 -0.0634
  970SOL    HW113839   0.389   3.696   4.448 -1.2931 -1.0149 -1.0177
  970SOL    HW213840   0.411   3.675   4.608  2.5494  0.6264 -1.2748
  971SOL     OW13841   1.905   7.083   5.122  0.1174  0.3519  0.1053
  971SOL    HW113842   1.938   7.153   5.059  0.0951 -0.1146 -0.4275
  971SOL    HW213843   1.939   7.102   5.214 -0.3574  1.3818  0.0769
  972SOL     OW13844   3.328   8.417   1.609 -0.0706  0.9766  0.7024
  972SOL    HW113845   3.382   8.438   1.690 -1.3400  2.2907  1.2154
  972SOL    HW213846   3.247   8.476   1.606 -1.3387 -0.7704 -0.2021
  973SOL     OW13847   0.488   6.291   4.099  0.1499 -0.4712  0.5282
  973SOL    HW113848   0.399   6.333   4.115  1.0456  2.0195 -0.7186
  973SOL    HW213849   0.493   6.256   4.005  1.3981  1.9530 -0.3709
  974SOL     OW13850   8.282   8.829   2.703 -0.3051  0.2945  0.1623
  974SOL    HW113851   8.315   8.735   2.706 -1.1690 -0.0637 -1.4466
  974SOL    HW213852   8.243   8.849   2.613  0.3866  2.3662  0.2858
  975SOL     OW13853   9.575   9.363   2.794 -0.3517  0.3713 -0.6080
  975SOL    HW113854   9.650   9.407   2.842 -1.1739  0.3204  0.7442
  975SOL    HW213855   9.611   9.309   2.717  1.0143 -0.0317  0.3036
  976SOL     OW13856   2.271   5.271   1.643  0.2106  0.3185  0.2409
  976SOL    HW113857   2.186   5.228   1.612 -0.2687  1.5662 -0.2238
  976SOL    HW213858   2.280   5.361   1.601  1.9006  0.0987  0.0953
  977SOL     OW13859   4.058   9.337   2.785  0.7938  0.3679 -0.1411
  977SOL    HW113860   4.069   9.392   2.868 -0.7271 -1.2324  1.1616
  977SOL    HW213861   4.099   9.247   2.799 -2.3739 -1.1098  0.1450
  978SOL     OW13862   3.846   1.142   1.713 -0.2150  0.6212  0.6505
  978SOL    HW113863   3.810   1.054   1.744 -1.8314  0.6129 -1.1624
  978SOL    HW213864   3.928   1.128   1.658  1.0847  0.4657  2.5446
  979SOL     OW13865   3.985   9.221   2.330  0.2070  0.4125  0.6070
  979SOL    HW113866   4.078   9.189   2.313 -0.3237 -0.5875 -0.4429
  979SOL    HW213867   3.977   9.250   2.426  1.2713 -0.6326  1.0253
  980SOL     OW13868   2.972   7.396   3.055  0.0414 -0.4691 -0.1682
  980SOL    HW113869   2.961   7.495   3.044 -0.0548 -0.3323  1.0567
  980SOL    HW213870   3.013   7.376   3.144  0.6713 -1.5065 -0.6741
  981SOL     OW13871   1.099   9.667   1.683 -0.0147 -0.1990  0.1759
  981SOL    HW113872   1.149   9.744   1.721  0.5330 -0.3749 -0.1878
  981SOL    HW213873   1.106   9.668   1.583 -1.4494  0.2709  0.0610
  982SOL     OW13874   3.512   7.235   3.351  0.0328 -0.1266  0.4136
  982SOL    HW113875   3.461   7.295   3.290  1.0685  0.3038 -0.0540
  982SOL    HW213876   3.577   7.181   3.298 -0.8026 -1.5801  0.8532
  983SOL     OW13877   9.301   7.204   0.695 -0.5351 -0.3298  0.6032
  983SOL    HW113878   9.322   7.292   0.653 -0.4222  0.4162  2.1885
  983SOL    HW213879   9.233   7.156   0.639 -1.3631  1.2124  0.2537
  984SOL     OW13880   9.466   6.010   4.138 -0.0512 -0.1471  0.0611
  984SOL    HW113881   9.390   6.051   4.087 -0.7705 -3.3729 -1.6264
  984SOL    HW213882   9.429   5.941   4.201  1.3233 -0.2108  0.8035
  985SOL     OW13883   2.818   2.315   1.233 -0.0148 -0.2944 -0.1576
  985SOL    HW113884   2.774   2.273   1.313  2.0557  0.4313  1.4044
  985SOL    HW213885   2.811   2.415   1.240  1.6652 -0.1722  0.0212
  986SOL     OW13886   9.022   5.671   1.463 -0.2160  0.0102 -0.2151
  986SOL    HW113887   9.019   5.733   1.542 -0.5236  0.3499 -0.4939
  986SOL    HW213888   9.013   5.576   1.496 -0.2801  0.1451  0.1664
  987SOL     OW13889   4.632   5.026   3.424 -0.3702  0.3832 -0.0379
  987SOL    HW113890   4.545   5.064   3.391  0.9022  3.9641  0.6008
  987SOL    HW213891   4.613   4.961   3.498 -2.4789  2.3685  1.2659
  988SOL     OW13892   5.837   8.161   2.951 -0.2658 -0.0989 -0.2610
  988SOL    HW113893   5.913   8.199   2.898  0.0923  2.3113  1.8817
  988SOL    HW213894   5.860   8.069   2.981  0.5065 -0.5739 -2.2452
  989SOL     OW13895   1.021   4.258   0.586 -0.1998  0.9975  0.0937
  989SOL    HW113896   1.022   4.350   0.625  0.7269  0.1447  2.1650
  989SOL    HW213897   1.115   4.225   0.576 -0.5525 -0.4496  1.2329
  990SOL     OW13898   2.649   7.376   0.603 -0.0233 -0.1076  0.0465
  990SOL    HW113899   2.736   7.424   0.612 -0.4912  0.3902  2.1661
  990SOL    HW213900   2.574   7.438   0.624 -0.8256 -0.8903 -0.4510
  991SOL     OW13901   9.971   6.890   3.818 -0.5337 -0.2569  0.2557
  991SOL    HW113902  10.025   6.901   3.734  0.5923 -1.9690  0.7404
  991SOL    HW213903  10.026   6.918   3.897 -1.4863  1.0565  0.4620
  992SOL     OW13904   7.743   0.696   4.584 -0.2646  0.4009  0.2011
  992SOL    HW113905   7.788   0.780   4.554 -4.1162  2.0889 -1.1480
  992SOL    HW213906   7.770   0.621   4.525  0.7682  1.3744 -0.5739
  993SOL     OW13907   6.189   0.414   2.110  0.2680  0.0488  0.6361
  993SOL    HW113908   6.204   0.464   2.195  1.9975  1.4723 -0.4921
  993SOL    HW213909   6.101   0.365   2.115  0.4049  0.0196  3.2644
  994SOL     OW13910   3.208   5.248   1.188  0.1959 -0.0844  0.1448
  994SOL    HW113911   3.272   5.174   1.208 -0.5133 -0.4986  0.9131
  994SOL    HW213912   3.256   5.322   1.141  1.0504 -0.7525 -0.0488
  995SOL     OW13913   9.372   7.650   0.905  0.6771 -0.1684 -0.3571
  995SOL    HW113914   9.444   7.603   0.957  0.1377  0.6540  1.1525
  995SOL    HW213915   9.283   7.616   0.934  0.3063  1.4234  0.3839
  996SOL     OW13916   3.019   1.159   2.119 -0.6356 -0.1511  0.0154
  996SOL    HW113917   3.002   1.164   2.021  0.4123  0.4246 -0.1374
  996SOL    HW213918   2.951   1.215   2.167  0.6683  1.9923 -0.5794
  997SOL     OW13919   4.136   8.447   3.971  0.3080  0.1075  0.1982
  997SOL    HW113920   4.206   8.383   3.940  0.9644  0.5147  0.8396
  997SOL    HW213921   4.177   8.537   3.986 -0.5244  0.5734 -0.2761
  998SOL     OW13922   0.875   2.373   1.248  0.2263  0.2006 -0.4638
  998SOL    HW113923   0.903   2.406   1.339  0.3369  0.1240 -0.4703
  998SOL    HW213924   0.954   2.372   1.187  0.5915 -1.7246  0.0177
  999SOL     OW13925   1.251   6.614   1.143  0.3225 -0.9314 -0.2848
  999SOL    HW113926   1.290   6.702   1.171 -0.6105 -1.3322  2.4138
  999SOL    HW213927   1.214   6.622   1.050  0.0595  1.5827  0.0086
 1000SOL     OW13928   4.851   4.150   0.535  0.0982 -0.5693 -0.4596
 1000SOL    HW113929   4.923   4.182   0.596  1.3377  1.8317 -3.0548
 1000SOL    HW213930   4.888   4.086   0.469 -0.4168 -0.3146 -1.0046
 1001SOL     OW13931   8.017   8.132   4.329 -1.0337  0.4815 -0.5161
 1001SOL    HW113932   8.028   8.140   4.428  2.9090  0.1263 -0.8210
 1001SOL    HW213933   7.941   8.071   4.309 -0.7410 -0.9206  2.3459
 1002SOL     OW13934   3.055   9.006   2.971 -0.3083  0.0487  0.5281
 1002SOL    HW113935   2.977   9.061   2.998 -0.2952 -0.2675  1.2209
 1002SOL    HW213936   3.094   9.042   2.886 -1.9532 -0.5395 -0.5003
 1003SOL     OW13937   7.043   7.037   3.457 -0.1977  0.1746 -0.2595
 1003SOL    HW113938   7.026   6.987   3.542 -1.6604 -0.0510 -0.6654
 1003SOL    HW213939   7.123   7.095   3.468  0.8700 -1.4264  0.5875
 1004SOL     OW13940   1.812   5.382   0.181  0.2898 -0.2563 -0.4449
 1004SOL    HW113941   1.885   5.403   0.117  0.2384 -1.0512 -0.7670
 1004SOL    HW213942   1.731   5.351   0.131  0.1900 -0.6989 -0.0167
 1005SOL     OW13943   5.194   9.093   1.726  0.0016  0.3147  0.1265
 1005SOL    HW113944   5.197   9.191   1.707 -0.4256  0.5240  1.1029
 1005SOL    HW213945   5.165   9.044   1.644 -0.9350  1.1117 -0.0266
 1006SOL     OW13946   0.754   8.452   4.129  0.3576  0.3585 -0.2589
 1006SOL    HW113947   0.705   8.376   4.087  1.3214 -0.0891 -0.5662
 1006SOL    HW213948   0.815   8.495   4.062 -0.5893  1.7707 -0.2546
 1007SOL     OW13949   3.741   8.751   3.498  0.1799 -0.0341  0.0653
 1007SOL    HW113950   3.650   8.713   3.510  0.3884  0.0480  1.9990
 1007SOL    HW213951   3.806   8.678   3.478  0.4792 -0.6592  3.1846
 1008SOL     OW13952   2.279   6.992   2.176 -0.2803 -0.3137  0.4718
 1008SOL    HW113953   2.344   7.047   2.229 -0.6926 -0.5117  1.1921
 1008SOL    HW213954   2.252   6.912   2.230 -0.3114 -0.7884 -0.2467
 1009SOL     OW13955   5.996   8.338   3.126  0.1970  0.0795 -0.2544
 1009SOL    HW113956   6.019   8.252   3.171 -0.3538 -0.4445 -0.9617
 1009SOL    HW213957   6.070   8.403   3.140  0.3369 -0.3022  0.8174
 1010SOL     OW13958   0.177   1.598   1.414  0.0971 -0.1896 -0.1001
 1010SOL    HW113959   0.175   1.498   1.421  0.2833 -0.4004 -2.6104
 1010SOL    HW213960   0.269   1.627   1.386  0.1323  0.7173  0.9296
 1011SOL     OW13961   3.250   4.993   4.528 -0.0272 -0.0686 -0.2235
 1011SOL    HW113962   3.162   4.992   4.576 -0.7494  3.1526 -1.3421
 1011SOL    HW213963   3.324   5.000   4.594 -0.8114  0.7595  0.5850
 1012SOL     OW13964   2.198   5.796   2.989  0.0261 -0.1055  0.0310
 1012SOL    HW113965   2.256   5.812   2.909 -0.0557  2.4023  0.4383
 1012SOL    HW213966   2.230   5.715   3.038  2.5367  0.6431 -0.3201
 1013SOL     OW13967   3.544   7.312   0.834  0.6614  0.1733 -0.0043
 1013SOL    HW113968   3.496   7.307   0.746 -0.6090  2.2616  0.5178
 1013SOL    HW213969   3.516   7.236   0.892  0.8687 -0.7459 -1.0847
 1014SOL     OW13970   9.259   1.977   4.083  0.2931 -0.6339  0.2226
 1014SOL    HW113971   9.206   2.043   4.136 -0.6288 -2.4490  1.6324
 1014SOL    HW213972   9.211   1.957   3.997 -0.8125 -1.4468  1.0036
 1015SOL     OW13973   6.925   1.443   1.336  0.3856 -0.4695  0.2986
 1015SOL    HW113974   6.922   1.352   1.295 -0.0440  0.1295 -1.0379
 1015SOL    HW213975   6.863   1.504   1.286 -1.8358 -0.2393  3.2092
 1016SOL     OW13976   2.125   8.023   0.331  0.3365  0.0481  0.2235
 1016SOL    HW113977   2.103   8.070   0.245 -0.1064  0.7334  0.7091
 1016SOL    HW213978   2.175   7.939   0.310 -1.9118 -1.0703 -0.8626
 1017SOL     OW13979   0.654   9.452   0.545  0.0993 -1.1126  0.0146
 1017SOL    HW113980   0.693   9.380   0.603 -0.6531 -2.0314 -0.6079
 1017SOL    HW213981   0.729   9.499   0.497  0.4774 -2.7892 -1.0777
 1018SOL     OW13982   9.290   4.505   2.476 -0.3439 -0.0443  0.2341
 1018SOL    HW113983   9.195   4.520   2.447  0.0989  0.7327 -0.8566
 1018SOL    HW213984   9.323   4.418   2.439 -0.9944 -0.8697  1.5737
 1019SOL     OW13985   9.224   0.709   1.323  0.1112 -0.0144  0.8360
 1019SOL    HW113986   9.153   0.700   1.392 -0.4838 -0.7220  0.1355
 1019SOL    HW213987   9.275   0.623   1.315  0.8414  0.3859  1.1091
 1020SOL     OW13988   2.877   8.731   4.226  0.2138 -0.2399  0.2679
 1020SOL    HW113989   2.951   8.744   4.293 -1.6544  0.7040  2.2027
 1020SOL    HW213990   2.903   8.772   4.139  1.5108  1.1061  1.2681
 1021SOL     OW13991   9.177   8.430   2.741  0.0126 -0.3696 -0.0993
 1021SOL    HW113992   9.090   8.386   2.719 -1.7198  1.5194  2.6806
 1021SOL    HW213993   9.252   8.368   2.719 -2.1126 -2.7940 -0.7516
 1022SOL     OW13994   0.295   8.919   2.330  0.3921 -0.2028 -0.0085
 1022SOL    HW113995   0.294   8.820   2.313 -0.5802 -0.2617  0.4191
 1022SOL    HW213996   0.373   8.941   2.389  1.9667 -0.4054 -1.9634
 1023SOL     OW13997   9.970   6.284   5.510 -0.1731 -0.0405 -0.5234
 1023SOL    HW113998   9.938   6.322   5.424  0.7513  0.2458 -0.7335
 1023SOL    HW213999  10.069   6.277   5.510 -0.0058  1.8978  1.3236
 1024SOL     OW14000   0.146   2.454   1.794  0.5667  0.2565 -0.2575
 1024SOL    HW114001   0.093   2.429   1.713 -0.0049  0.2196  0.1278
 1024SOL    HW214002   0.197   2.538   1.776 -0.2154  0.7133 -0.3660
 1025SOL     OW14003   9.403   1.832   5.209  0.0985 -0.7795 -0.1592
 1025SOL    HW114004   9.311   1.842   5.173 -0.2774 -0.4398  0.8673
 1025SOL    HW214005   9.464   1.799   5.137 -0.0289  2.4864 -1.8333
 1026SOL     OW14006   7.559   0.110   1.563 -1.3028 -0.1937 -0.9515
 1026SOL    HW114007   7.586   0.083   1.655 -0.7850  2.7485 -0.1850
 1026SOL    HW214008   7.639   0.107   1.503 -1.3510 -0.7843 -0.9911
 1027SOL     OW14009   7.864   1.231   6.130 -0.5101 -0.0595 -0.1535
 1027SOL    HW114010   7.906   1.211   6.042  0.3896 -1.4665  0.5858
 1027SOL    HW214011   7.781   1.286   6.116 -0.7979 -0.9264 -1.9299
 1028SOL     OW14012   9.904   0.254   4.311  0.8159  0.5313  0.4097
 1028SOL    HW114013   9.809   0.267   4.340  0.2038 -2.1029 -0.2557
 1028SOL    HW214014   9.949   0.343   4.303 -1.7253  1.8552  0.2497
 1029SOL     OW14015   0.421   9.439   3.780  0.1876 -0.1814  0.2938
 1029SOL    HW114016   0.508   9.480   3.751 -0.9237  1.6253 -0.5929
 1029SOL    HW214017   0.422   9.341   3.761  1.8962 -0.1150 -0.0211
 1030SOL     OW14018   1.865   1.200   4.825  0.2520  0.0283  0.1202
 1030SOL    HW114019   1.958   1.181   4.795  1.0338 -0.7955  2.8444
 1030SOL    HW214020   1.867   1.269   4.898 -1.2397 -0.0964  0.3022
 1031SOL     OW14021   2.400   5.712   5.138  0.1189  0.2238  0.1713
 1031SOL    HW114022   2.474   5.669   5.086 -0.4937 -0.8306  0.1533
 1031SOL    HW214023   2.334   5.642   5.165  0.5984  0.7082  2.6571
 1032SOL     OW14024   0.680   4.738   2.821 -0.0148 -0.4896 -0.1288
 1032SOL    HW114025   0.664   4.714   2.725 -1.0517 -1.4660  0.2747
 1032SOL    HW214026   0.641   4.828   2.840  0.6382 -0.0745 -0.7453
 1033SOL     OW14027   3.766   1.025   3.659  0.5411 -0.0334  0.3237
 1033SOL    HW114028   3.860   1.002   3.633  0.1783  0.8606 -1.9235
 1033SOL    HW214029   3.708   0.945   3.645  0.6517 -0.0509 -0.0481
 1034SOL     OW14030   8.709   0.160   1.659  0.3216 -0.1217 -0.1797
 1034SOL    HW114031   8.675   0.066   1.662  0.5535 -0.2374 -0.9527
 1034SOL    HW214032   8.648   0.220   1.710  1.0174 -0.9502  1.6480
 1035SOL     OW14033   2.864   9.518   1.919  0.2045 -0.1367  0.1012
 1035SOL    HW114034   2.801   9.568   1.859  1.9428  0.4275 -1.2831
 1035SOL    HW214035   2.891   9.432   1.876 -0.3283 -0.8204  1.1098
 1036SOL     OW14036   1.847   8.187   6.633  0.2436  0.6480 -0.2438
 1036SOL    HW114037   1.912   8.151   6.566  1.3484  1.4103  0.4077
 1036SOL    HW214038   1.833   8.284   6.616 -2.1149  0.1382 -1.4908
 1037SOL     OW14039   9.690   1.763   0.987 -0.3133 -0.7126  0.3874
 1037SOL    HW114040   9.659   1.804   1.073  0.0704 -1.0554  0.6963
 1037SOL    HW214041   9.790   1.761   0.986 -0.2754  0.7374 -0.7620
 1038SOL     OW14042   2.625   7.060   4.808 -0.6848  0.2595  0.2298
 1038SOL    HW114043   2.680   7.127   4.859  0.0665 -0.3897  0.2779
 1038SOL    HW214044   2.585   7.105   4.728 -0.9794  1.0134  0.7953
 1039SOL     OW14045   0.099   9.567   1.124 -0.5498  0.0157 -0.3947
 1039SOL    HW114046   0.105   9.629   1.045  0.1935 -0.2786 -0.5724
 1039SOL    HW214047   0.086   9.620   1.207  1.3051  0.5156 -0.3911
 1040SOL     OW14048   4.068   6.873   2.216 -0.4383 -0.5841  0.9556
 1040SOL    HW114049   4.135   6.798   2.209 -0.4163 -0.5299  0.5473
 1040SOL    HW214050   4.022   6.884   2.128 -0.8522 -0.4946  1.1815
 1041SOL     OW14051   5.449   8.412   3.479 -0.2780  0.1393 -0.1201
 1041SOL    HW114052   5.427   8.337   3.417 -0.4666  1.1495 -1.2987
 1041SOL    HW214053   5.444   8.499   3.430 -0.5860  0.9830  1.3599
 1042SOL     OW14054   4.806   0.280   1.558  0.4038 -0.2690  0.2908
 1042SOL    HW114055   4.843   0.348   1.620  2.7876 -1.3201  0.0507
 1042SOL    HW214056   4.879   0.243   1.500 -0.5431 -3.9284  1.2790
 1043SOL     OW14057   0.344   6.639   6.468  0.0024 -0.1421  0.1867
 1043SOL    HW114058   0.405   6.717   6.484 -0.0673 -0.1879  0.6682
 1043SOL    HW214059   0.360   6.603   6.376 -0.1702  0.6201 -0.1465
 1044SOL     OW14060   7.200   9.873   4.191 -0.1061 -0.2848 -0.4739
 1044SOL    HW114061   7.150   9.790   4.167  0.3128 -1.1970  1.6680
 1044SOL    HW214062   7.298   9.855   4.188  0.0275  0.5411 -1.3609
 1045SOL     OW14063   4.270   2.463   1.015  0.0781  0.3403  0.2457
 1045SOL    HW114064   4.282   2.388   1.080 -0.9335  0.5394  0.6633
 1045SOL    HW214065   4.173   2.483   1.004  0.2407  0.3409 -1.2942
 1046SOL     OW14066   9.588   4.915   0.751 -0.2623  0.6468  0.3323
 1046SOL    HW114067   9.686   4.895   0.745 -0.4475 -0.0237 -0.5430
 1046SOL    HW214068   9.556   4.947   0.662 -0.9015  0.6188  0.5529
 1047SOL     OW14069   6.996   0.911   5.301 -0.0199  1.0873  0.0187
 1047SOL    HW114070   7.093   0.919   5.279  0.5225 -1.6304  1.2500
 1047SOL    HW214071   6.941   0.940   5.222  1.8150  0.7718 -1.3932
 1048SOL     OW14072   9.478   4.328   4.058 -0.0229  0.2846  0.1020
 1048SOL    HW114073   9.409   4.397   4.035  0.2197  0.5277  0.1070
 1048SOL    HW214074   9.434   4.238   4.062 -0.6934  0.6500  1.7919
 1049SOL     OW14075   9.061   8.610   2.939  0.1683 -0.2968  0.5542
 1049SOL    HW114076   9.103   8.540   2.880 -0.4657  0.6089 -1.0047
 1049SOL    HW214077   9.082   8.590   3.035 -0.6886 -3.1046  0.2050
 1050SOL     OW14078   8.484   7.206   4.554  0.3275  0.8665  0.2863
 1050SOL    HW114079   8.480   7.106   4.564 -1.9496  0.8056 -0.8948
 1050SOL    HW214080   8.477   7.230   4.458 -0.5787  2.2002  0.6712
 1051SOL     OW14081   7.948   1.823   3.595 -0.2756  0.1205 -0.0430
 1051SOL    HW114082   7.867   1.876   3.620 -1.0697 -0.7624 -0.7469
 1051SOL    HW214083   7.930   1.726   3.606  0.1406 -0.1727 -1.7667
 1052SOL     OW14084   8.031   6.878   4.583 -0.4616 -0.1712  0.2461
 1052SOL    HW114085   8.122   6.839   4.570  0.2379  1.1441  1.1493
 1052SOL    HW214086   8.038   6.966   4.629 -2.2418 -0.3817  0.9687
 1053SOL     OW14087   7.165   1.765   0.381  0.5137 -0.5914 -0.0102
 1053SOL    HW114088   7.204   1.782   0.471 -2.0587 -1.1768  1.2628
 1053SOL    HW214089   7.150   1.666   0.369  1.5615 -0.6052 -1.4105
 1054SOL     OW14090   4.635   6.017   0.310  0.2165 -0.1807 -0.1832
 1054SOL    HW114091   4.628   5.918   0.317 -0.4284  0.0209  2.3649
 1054SOL    HW214092   4.550   6.054   0.271  0.4916 -0.6182 -1.2168
 1055SOL     OW14093   7.929   4.343   1.397 -0.1249 -0.0539 -0.0005
 1055SOL    HW114094   7.900   4.390   1.480  0.5297  0.2101  0.0784
 1055SOL    HW214095   7.911   4.401   1.317 -0.2912 -0.1038  0.0003
 1056SOL     OW14096   5.469   9.111   4.564  0.1917 -0.1631 -0.7583
 1056SOL    HW114097   5.390   9.172   4.564  1.2225  1.3138  3.0682
 1056SOL    HW214098   5.440   9.020   4.595 -0.0300  0.4012  0.7474
 1057SOL     OW14099   9.829   9.043   4.169  0.0406  0.0097  0.5840
 1057SOL    HW114100   9.848   9.005   4.078 -0.8009  0.1657  0.3460
 1057SOL    HW214101   9.775   9.126   4.160 -0.5900 -0.3243  1.2575
 1058SOL     OW14102   1.842   7.659   2.285 -0.5247  0.6060 -0.6419
 1058SOL    HW114103   1.812   7.753   2.303  4.0034  1.9311  0.6708
 1058SOL    HW214104   1.867   7.651   2.189 -1.0897  0.7000 -0.7978
 1059SOL     OW14105   1.475   5.491   4.472 -0.4692 -0.0240 -0.4492
 1059SOL    HW114106   1.519   5.402   4.484  1.8483  1.1414 -0.1177
 1059SOL    HW214107   1.540   5.556   4.432 -1.6249  1.9904  0.8588
 1060SOL     OW14108   8.962   1.722   2.464 -0.3666  0.3585  0.1681
 1060SOL    HW114109   8.946   1.819   2.445 -2.3722  0.1006  0.4225
 1060SOL    HW214110   8.877   1.672   2.452  0.6388 -1.3626  0.1561
 1061SOL     OW14111   9.057   8.166   4.537 -0.1061  0.6451 -0.2769
 1061SOL    HW114112   9.139   8.204   4.493 -0.1717 -2.1497 -2.9533
 1061SOL    HW214113   9.082   8.082   4.586 -1.0507  0.8214  0.5209
 1062SOL     OW14114   9.324   9.423   2.886  0.4273  0.2138 -0.1558
 1062SOL    HW114115   9.293   9.507   2.840 -0.7277 -0.7761 -1.2511
 1062SOL    HW214116   9.403   9.386   2.837 -0.0169 -0.1580 -0.5983
 1063SOL     OW14117   2.917   6.303   2.084  0.3513  0.1244  0.1925
 1063SOL    HW114118   2.980   6.239   2.041 -0.8351 -0.5169 -0.6418
 1063SOL    HW214119   2.886   6.267   2.171  0.7540  0.2061  0.3685
 1064SOL     OW14120   2.593   1.496   1.265  0.0050 -0.2098  0.5370
 1064SOL    HW114121   2.506   1.496   1.315  0.3482 -0.5832  1.1319
 1064SOL    HW214122   2.669   1.489   1.329  0.5360  1.3769  0.1232
 1065SOL     OW14123   9.444   5.914   1.742 -0.7028 -0.1393 -0.0714
 1065SOL    HW114124   9.533   5.896   1.699  0.1995 -0.2381  1.7893
 1065SOL    HW214125   9.426   5.845   1.812 -1.0998  1.3249  1.2958
 1066SOL     OW14126   5.652   7.086   4.110 -0.0353 -0.3664 -0.0979
 1066SOL    HW114127   5.563   7.047   4.129 -1.1505  2.1011 -0.0380
 1066SOL    HW214128   5.652   7.124   4.017  1.2873 -1.2578 -0.4712
 1067SOL     OW14129   4.919   2.527   1.666  0.1747  1.0033 -0.5996
 1067SOL    HW114130   4.917   2.581   1.582  0.7669 -1.0191 -1.9622
 1067SOL    HW214131   4.977   2.447   1.653 -2.3162 -1.0835  0.6288
 1068SOL     OW14132   0.533   5.020   3.252  0.2277 -0.0013 -0.3676
 1068SOL    HW114133   0.446   5.054   3.288  0.3697 -0.8538  0.8233
 1068SOL    HW214134   0.606   5.038   3.319  0.4166 -2.0190  0.0079
 1069SOL     OW14135   3.890   1.776   3.524  0.4665 -0.6457  0.5658
 1069SOL    HW114136   3.888   1.682   3.490  0.3307  0.3070 -2.2101
 1069SOL    HW214137   3.797   1.805   3.546  0.0952 -0.1533 -1.5712
 1070SOL     OW14138   3.584   3.934   5.233 -0.1188  0.0146  0.4127
 1070SOL    HW114139   3.631   3.904   5.150 -0.7240  0.7578 -0.2011
 1070SOL    HW214140   3.491   3.896   5.234 -1.5260  3.1899 -1.2344
 1071SOL     OW14141   3.483   9.984   3.828  0.4619 -0.0593  0.7441
 1071SOL    HW114142   3.561   9.928   3.854 -0.0738 -1.4726 -0.6281
 1071SOL    HW214143   3.398   9.938   3.854  0.0386  0.8656  1.0523
 1072SOL     OW14144   6.951   8.729   4.847  0.2794  0.2314 -0.1631
 1072SOL    HW114145   6.896   8.661   4.895 -0.0816  0.8238  0.2598
 1072SOL    HW214146   7.031   8.753   4.903  1.1828 -0.8963 -0.9284
 1073SOL     OW14147   2.192   3.021   2.688 -0.3420  0.1534 -0.1796
 1073SOL    HW114148   2.242   3.107   2.682 -1.5662  0.7726 -1.9724
 1073SOL    HW214149   2.199   2.984   2.781  1.9509  1.1008  0.0358
 1074SOL     OW14150   7.474   1.689   3.248 -0.1117  0.2541 -0.1940
 1074SOL    HW114151   7.534   1.732   3.315 -0.7107  2.3927 -0.9720
 1074SOL    HW214152   7.381   1.724   3.258 -0.5530 -0.6082 -1.0921
 1075SOL     OW14153   3.379   3.503   4.418 -0.3666  0.0595  0.0950
 1075SOL    HW114154   3.456   3.519   4.355  0.4962 -3.3845  0.1862
 1075SOL    HW214155   3.312   3.444   4.373 -1.4900  0.5291  1.1517
 1076SOL     OW14156   1.380   9.123   4.532 -0.0545  0.0311 -0.4328
 1076SOL    HW114157   1.326   9.114   4.616 -1.0253 -1.2388 -1.1816
 1076SOL    HW214158   1.319   9.125   4.453  0.9451 -0.4280 -1.2300
 1077SOL     OW14159   7.979   7.509   2.585 -0.7565  0.2104 -0.5134
 1077SOL    HW114160   7.933   7.517   2.497  2.0603 -0.2234 -2.1067
 1077SOL    HW214161   7.945   7.429   2.634 -0.2903 -1.2750 -2.5486
 1078SOL     OW14162   1.052   4.718   5.856  0.0912 -0.6322  0.3748
 1078SOL    HW114163   1.129   4.681   5.907  0.0132 -0.1452  0.8415
 1078SOL    HW214164   0.967   4.680   5.893  0.1292 -1.6163 -0.5082
 1079SOL     OW14165   8.788   4.395   3.338  0.2350  0.0153 -0.0993
 1079SOL    HW114166   8.750   4.470   3.392  1.9658  0.1378  0.9844
 1079SOL    HW214167   8.775   4.414   3.241  1.1356  1.9888  0.1481
 1080SOL     OW14168   0.251   6.528   3.866 -0.4294  0.3019  0.4018
 1080SOL    HW114169   0.178   6.577   3.819  0.2083 -0.0934 -1.0303
 1080SOL    HW214170   0.228   6.431   3.873 -0.1884  0.2317  0.2348
 1081SOL     OW14171   7.634   0.223   3.941  0.0417 -0.5658 -0.0543
 1081SOL    HW114172   7.693   0.228   4.021  0.6652  1.4934 -0.6121
 1081SOL    HW214173   7.681   0.175   3.868 -0.4468 -2.2589  0.7180
 1082SOL     OW14174   0.105   3.883   5.875  0.1780  0.4006 -0.2362
 1082SOL    HW114175   0.165   3.942   5.821 -0.4148  0.3185 -0.9829
 1082SOL    HW214176   0.010   3.895   5.845 -0.2141  0.6827  1.0715
 1083SOL     OW14177   4.510   1.125   4.218  0.0953  0.3821 -0.2355
 1083SOL    HW114178   4.559   1.212   4.218  1.3625 -0.3262  1.3901
 1083SOL    HW214179   4.566   1.054   4.259 -0.8375 -1.2880 -1.7643
 1084SOL     OW14180   2.374   0.632   3.192 -0.3083  0.4644 -0.0693
 1084SOL    HW114181   2.474   0.625   3.188 -0.2846  0.4988  0.5021
 1084SOL    HW214182   2.340   0.667   3.104  0.0581 -1.0087 -0.8134
 1085SOL     OW14183   8.839   6.525   3.007 -0.9336  0.3401 -0.1925
 1085SOL    HW114184   8.822   6.611   3.055 -2.0815  1.3064 -2.2849
 1085SOL    HW214185   8.754   6.474   3.000 -0.7422  0.1429 -1.0770
 1086SOL     OW14186   7.731   7.857   2.416  0.0430 -0.2593 -1.1404
 1086SOL    HW114187   7.827   7.881   2.432 -0.3701  1.5638 -1.3550
 1086SOL    HW214188   7.726   7.784   2.348  1.3624 -1.6774  0.2475
 1087SOL     OW14189   2.008   3.529   6.273  0.3365  0.1018 -0.3821
 1087SOL    HW114190   1.942   3.522   6.348  0.8566 -0.5165  0.0257
 1087SOL    HW214191   2.092   3.480   6.297  1.2962  1.6345 -0.5332
 1088SOL     OW14192   0.198   8.384   0.757  0.2355 -0.1964 -0.6049
 1088SOL    HW114193   0.174   8.292   0.728  0.8395 -0.0177 -1.6718
 1088SOL    HW214194   0.287   8.382   0.804 -1.2019 -0.6552  2.2164
 1089SOL     OW14195   0.542   6.286   2.985  0.0898 -0.0471 -0.6521
 1089SOL    HW114196   0.605   6.359   3.011  1.9793 -2.4411  1.6894
 1089SOL    HW214197   0.500   6.247   3.067 -0.4311 -2.0169 -1.8213
 1090SOL     OW14198   8.892   4.127   4.292 -0.2963 -0.0082  0.1422
 1090SOL    HW114199   8.940   4.049   4.331 -0.0451 -0.0090 -0.1620
 1090SOL    HW214200   8.814   4.095   4.238 -0.5101 -0.0196  0.4619
 1091SOL     OW14201   8.739   0.327   3.676  0.0751 -0.8434 -0.3231
 1091SOL    HW114202   8.749   0.419   3.713 -2.1186 -1.7585  2.7021
 1091SOL    HW214203   8.811   0.310   3.609  1.7252  2.3229  0.5633
 1092SOL     OW14204   4.678   7.241   3.806 -0.3265  0.7267 -0.1275
 1092SOL    HW114205   4.751   7.306   3.786  0.5727 -0.2900 -0.2062
 1092SOL    HW214206   4.635   7.212   3.720 -0.7131  1.1990 -0.0939
 1093SOL     OW14207   6.950   1.824   2.664  0.5197  0.5621 -0.6394
 1093SOL    HW114208   6.990   1.914   2.646  0.2140  1.1154  1.3053
 1093SOL    HW214209   6.994   1.783   2.744 -2.3579  0.9646  1.2548
 1094SOL     OW14210   4.284   9.863   2.198  0.1453  0.5370  0.6855
 1094SOL    HW114211   4.278   9.812   2.112 -0.3101 -1.5538  1.9312
 1094SOL    HW214212   4.361   9.927   2.193 -0.6053  1.3152 -1.7103
 1095SOL     OW14213   0.319   2.763   1.047  0.5704 -0.3390 -0.0933
 1095SOL    HW114214   0.297   2.835   1.113  0.6248  0.6921 -1.1934
 1095SOL    HW214215   0.406   2.720   1.072  1.2112  0.8869 -0.1915
 1096SOL     OW14216   4.114   8.727   1.133  0.6220  0.3358 -0.7388
 1096SOL    HW114217   4.098   8.763   1.041  0.3529  0.2570 -0.7239
 1096SOL    HW214218   4.083   8.632   1.137  2.4389 -0.2881 -1.1194
 1097SOL     OW14219   9.271   8.772   3.648  0.3630  0.1890  0.3949
 1097SOL    HW114220   9.207   8.729   3.585  1.7693 -0.2987 -0.7436
 1097SOL    HW214221   9.235   8.768   3.741 -1.3092  0.0790 -0.2363
 1098SOL     OW14222   9.934   7.991   3.311  0.1954 -0.3343 -0.3373
 1098SOL    HW114223   9.869   8.051   3.358  0.8109  1.1219 -1.3334
 1098SOL    HW214224   9.925   8.001   3.212  2.3636  0.3710 -0.4933
 1099SOL     OW14225   9.252   8.667   3.901  0.5178  0.3205 -0.4742
 1099SOL    HW114226   9.316   8.727   3.948 -0.3176  0.8705 -0.0184
 1099SOL    HW214227   9.165   8.665   3.952 -0.3634  0.8471 -1.9389
 1100SOL     OW14228   0.088   8.412   4.591  0.1223  0.5133 -0.5093
 1100SOL    HW114229   0.063   8.316   4.604 -0.3858  0.7859  0.5718
 1100SOL    HW214230   0.169   8.433   4.645  1.3409  0.2271 -2.2003
 1101SOL     OW14231   3.849   6.061   3.347  0.0912 -0.2252  0.3268
 1101SOL    HW114232   3.895   6.141   3.308  1.0455 -0.8073  0.2439
 1101SOL    HW214233   3.916   5.987   3.360 -0.3667 -0.2956  2.3696
 1102SOL     OW14234   8.560   8.842   4.434  0.1052  0.1043 -0.0527
 1102SOL    HW114235   8.653   8.843   4.397 -0.2406  0.7366 -0.9358
 1102SOL    HW214236   8.509   8.766   4.392  0.1626 -0.1072  0.2649
 1103SOL     OW14237   2.981   9.138   3.529 -0.2051  0.1636 -0.4157
 1103SOL    HW114238   3.019   9.198   3.460 -0.4049 -0.6095 -1.2067
 1103SOL    HW214239   2.888   9.111   3.503 -0.8534  1.0531  0.8850
 1104SOL     OW14240   8.706   2.140   0.348 -0.3288 -0.4794 -0.2949
 1104SOL    HW114241   8.632   2.208   0.350  0.1458  0.0861 -1.4867
 1104SOL    HW214242   8.736   2.127   0.254  1.8421  0.0991  0.2964
 1105SOL     OW14243   6.207   8.520   2.768  0.1967  0.0353 -0.1796
 1105SOL    HW114244   6.281   8.517   2.835  0.4928 -0.5014 -0.5265
 1105SOL    HW214245   6.134   8.578   2.803  1.6939  2.3324 -0.7748
 1106SOL     OW14246   4.120   3.942   3.982  0.6662 -0.0196  0.1428
 1106SOL    HW114247   4.177   3.988   3.914 -0.0851 -1.4099 -1.4469
 1106SOL    HW214248   4.091   3.853   3.947  0.8082 -1.0516  2.5420
 1107SOL     OW14249   2.723   0.261   2.657  0.3907  0.0858 -0.0319
 1107SOL    HW114250   2.762   0.257   2.564 -2.1887  0.9990 -1.1850
 1107SOL    HW214251   2.723   0.356   2.688  0.1573 -0.0745  0.4477
 1108SOL     OW14252   9.073   8.938   4.727 -0.1698  0.1955 -0.1094
 1108SOL    HW114253   9.156   8.918   4.778 -0.1729  1.2302  0.3046
 1108SOL    HW214254   9.001   8.966   4.790 -0.1576  1.5338 -0.6647
 1109SOL     OW14255   0.537   4.530   4.004 -0.1632  0.3287  0.4659
 1109SOL    HW114256   0.534   4.602   3.934 -0.5689 -0.6828 -0.5538
 1109SOL    HW214257   0.609   4.465   3.982 -1.0867 -0.6613  0.3231
 1110SOL     OW14258   9.696   1.950   0.409 -0.0000  0.4783 -0.6008
 1110SOL    HW114259   9.633   1.918   0.480  0.0310 -0.7025 -1.0984
 1110SOL    HW214260   9.736   2.037   0.437 -0.3092  0.2311  0.6314
 1111SOL     OW14261   3.933   7.578   0.931  0.4841  0.0647  0.0001
 1111SOL    HW114262   3.839   7.551   0.952  0.7306 -0.3851  0.5394
 1111SOL    HW214263   3.952   7.667   0.971  0.3513  0.0660  0.0606
 1112SOL     OW14264   1.313   7.186   1.530  0.0704 -0.3576  0.2072
 1112SOL    HW114265   1.368   7.125   1.586 -1.5100 -2.2752 -0.2367
 1112SOL    HW214266   1.360   7.202   1.443  1.4819  0.8140  1.1611
 1113SOL     OW14267   1.410   6.221   3.996  0.1637  0.2559  0.8349
 1113SOL    HW114268   1.405   6.290   3.924 -0.3920  0.1044  0.7234
 1113SOL    HW214269   1.321   6.216   4.043  0.4692  0.2356  1.4208
 1114SOL     OW14270   1.326   5.708   0.081  0.1552 -0.8341 -0.2395
 1114SOL    HW114271   1.359   5.699   0.175 -0.5681 -0.7757  0.0254
 1114SOL    HW214272   1.272   5.627   0.056 -0.3081 -0.4985 -0.3343
 1115SOL     OW14273   0.324   3.279   2.650 -0.3818  0.1920  0.2450
 1115SOL    HW114274   0.388   3.317   2.718  0.3502 -1.5232  0.5279
 1115SOL    HW214275   0.329   3.179   2.651 -1.4278  0.1040 -1.3275
 1116SOL     OW14276   2.807   8.896   3.227 -0.0051 -0.0058 -0.3204
 1116SOL    HW114277   2.765   8.874   3.139 -0.4886  0.6724 -0.2626
 1116SOL    HW214278   2.775   8.986   3.258  1.0055  0.2478  0.0225
 1117SOL     OW14279   8.976   3.273   4.231  0.2031  0.4573  0.4510
 1117SOL    HW114280   8.877   3.262   4.222  0.0566  1.0801  1.2480
 1117SOL    HW214281   9.011   3.328   4.155 -0.1368  0.6707  0.4511
 1118SOL     OW14282   6.901   6.989   4.668 -0.1733 -0.0978  0.1381
 1118SOL    HW114283   6.947   6.903   4.692  1.2939  0.5142 -0.4293
 1118SOL    HW214284   6.968   7.063   4.664 -1.4012  1.0440  0.4123
 1119SOL     OW14285   7.703   6.600   4.984  0.0345 -0.6101 -0.3548
 1119SOL    HW114286   7.764   6.670   4.947 -0.9638  0.6431  0.3290
 1119SOL    HW214287   7.608   6.626   4.965 -0.3473 -1.7487 -0.0197
 1120SOL     OW14288   4.653   1.489   4.056  0.0715 -0.0462 -0.2896
 1120SOL    HW114289   4.562   1.452   4.035  0.2232 -1.4345  1.3575
 1120SOL    HW214290   4.686   1.542   3.979 -2.5380  1.2477 -0.5580
 1121SOL     OW14291   2.688   6.677   3.339  0.4728  0.5248 -0.2409
 1121SOL    HW114292   2.708   6.705   3.433 -0.5478  0.8992 -0.1302
 1121SOL    HW214293   2.747   6.601   3.313  1.2754  0.9098  0.4473
 1122SOL     OW14294   6.034   1.763   4.631 -0.0103  0.2774 -0.2845
 1122SOL    HW114295   6.059   1.755   4.535 -0.1640 -1.5009 -0.2055
 1122SOL    HW214296   6.105   1.813   4.680  0.6438  0.1675 -1.1076
 1123SOL     OW14297   4.506   1.111   2.845  0.4015  0.3951 -0.2178
 1123SOL    HW114298   4.564   1.031   2.828 -0.1816 -0.1005  0.1182
 1123SOL    HW214299   4.548   1.192   2.804  1.0110 -0.0777 -0.5305
 1124SOL     OW14300   8.155   7.382   3.751  0.5636 -0.3100 -0.3563
 1124SOL    HW114301   8.138   7.394   3.848 -0.2167  2.8478 -0.8363
 1124SOL    HW214302   8.103   7.303   3.717  0.3415 -1.0263  1.6217
 1125SOL     OW14303   8.951   4.376   5.927  0.4438 -0.1534  0.5407
 1125SOL    HW114304   9.032   4.432   5.907 -1.2441  0.8428 -4.3451
 1125SOL    HW214305   8.965   4.283   5.893 -0.4764  0.0909 -0.5635
 1126SOL     OW14306   3.025   4.421   4.837 -0.2854  0.2948  0.4614
 1126SOL    HW114307   2.980   4.425   4.748 -2.1360  1.2381  1.4091
 1126SOL    HW214308   3.094   4.493   4.844  1.4860 -1.2113 -1.0354
 1127SOL     OW14309   9.174   5.079   6.200 -0.3202 -0.3700  0.0417
 1127SOL    HW114310   9.075   5.089   6.188 -0.4623 -1.1551  0.4820
 1127SOL    HW214311   9.215   5.047   6.115 -0.2246  1.4607 -0.5988
 1128SOL     OW14312   4.604   4.748   2.167 -0.3103 -0.4690  0.2540
 1128SOL    HW114313   4.687   4.705   2.203 -0.9793 -1.3612  0.7429
 1128SOL    HW214314   4.628   4.833   2.120  0.8222 -0.4763  0.8162
 1129SOL     OW14315   7.963   0.689   0.769  0.0660 -0.0217  0.1649
 1129SOL    HW114316   8.055   0.672   0.805  0.0483 -0.8607 -0.1817
 1129SOL    HW214317   7.897   0.631   0.817 -0.2685  0.4773  0.3168
 1130SOL     OW14318   1.977   0.578   4.870 -0.4269 -0.5177 -0.0898
 1130SOL    HW114319   1.906   0.511   4.891 -0.0556 -0.4041  1.6110
 1130SOL    HW214320   1.943   0.670   4.890  0.6776 -0.5690  2.1697
 1131SOL     OW14321   8.686   6.134   6.421 -0.4716 -0.3376  0.0674
 1131SOL    HW114322   8.784   6.124   6.441 -0.4935  0.8569  0.8033
 1131SOL    HW214323   8.675   6.191   6.339 -0.5877  0.5575  0.7059
 1132SOL     OW14324   3.694   4.112   1.350 -0.5851  0.2614  0.0993
 1132SOL    HW114325   3.690   4.012   1.359  2.2490 -0.1270 -2.2144
 1132SOL    HW214326   3.666   4.138   1.258  2.6778  1.2110 -0.6909
 1133SOL     OW14327   8.505   0.853   6.730 -0.1889 -0.7900 -0.3888
 1133SOL    HW114328   8.424   0.810   6.689 -0.4387  0.3370 -1.1325
 1133SOL    HW214329   8.476   0.917   6.802 -0.0059 -0.0635 -0.9480
 1134SOL     OW14330   5.125   3.602   2.495  0.0979 -0.1129  0.3773
 1134SOL    HW114331   5.196   3.542   2.459 -0.6297 -0.9014  0.2619
 1134SOL    HW214332   5.128   3.601   2.595  1.8698  1.7870  0.4013
 1135SOL     OW14333   0.343   7.980   0.566  0.1454 -0.8736 -0.2724
 1135SOL    HW114334   0.411   8.052   0.551  0.7737 -1.6498 -1.1648
 1135SOL    HW214335   0.301   7.992   0.656 -0.2880  1.0582 -0.6979
 1136SOL     OW14336   1.320   5.428   2.704 -0.3175  0.1339 -0.3176
 1136SOL    HW114337   1.394   5.442   2.639 -0.3654 -1.1326 -0.6630
 1136SOL    HW214338   1.301   5.330   2.712 -4.4457  0.6256 -3.0068
 1137SOL     OW14339   9.131   5.534   1.241  0.2766 -0.4973  0.0048
 1137SOL    HW114340   9.086   5.612   1.285 -0.9578 -0.5017 -1.1900
 1137SOL    HW214341   9.076   5.451   1.256 -1.1689 -0.1599 -3.0466
 1138SOL     OW14342   7.236   0.498   1.522 -0.2765  0.5479 -0.3966
 1138SOL    HW114343   7.148   0.511   1.568 -0.2669  0.7279 -0.4278
 1138SOL    HW214344   7.294   0.440   1.578  0.7345  2.9693  1.1479
 1139SOL     OW14345   0.006   2.299   0.351 -0.1673 -0.1470  0.1212
 1139SOL    HW114346  -0.015   2.301   0.253  0.7067  0.0915 -0.0708
 1139SOL    HW214347   0.074   2.369   0.372 -0.4913 -0.0722  0.9375
 1140SOL     OW14348   1.811   3.543   5.084 -0.0817 -0.3095  0.0803
 1140SOL    HW114349   1.836   3.567   4.990  0.6993  0.6209  0.5145
 1140SOL    HW214350   1.887   3.565   5.145 -0.0653 -2.1765  0.7533
 1141SOL     OW14351   1.072   2.280   0.862 -0.6624  0.3273  0.1662
 1141SOL    HW114352   1.104   2.188   0.840 -0.3674  0.5623 -0.3730
 1141SOL    HW214353   0.987   2.299   0.812  0.0611  0.8970 -0.8576
 1142SOL     OW14354   5.948   1.808   1.267 -0.3204 -0.5734 -0.2081
 1142SOL    HW114355   5.912   1.899   1.286  0.8626 -0.2097  0.3143
 1142SOL    HW214356   5.918   1.745   1.338  1.6940  0.1579  1.3156
 1143SOL     OW14357   4.103   5.593   3.327 -0.4930 -0.1397  0.2565
 1143SOL    HW114358   4.127   5.524   3.395  0.2571 -1.6553 -1.4993
 1143SOL    HW214359   4.007   5.582   3.300  0.3545 -2.3542 -2.0536
 1144SOL     OW14360   9.355   0.554   2.352  0.1193  0.0546 -0.2159
 1144SOL    HW114361   9.304   0.534   2.269  0.0563  1.2826 -0.4915
 1144SOL    HW214362   9.397   0.645   2.344  0.4520  0.0142  0.9260
 1145SOL     OW14363   2.792   7.755   0.990 -0.0135  0.2439  0.5619
 1145SOL    HW114364   2.803   7.840   0.939 -0.6482 -0.3561 -0.5953
 1145SOL    HW214365   2.768   7.776   1.085 -0.6317  1.3496  0.1665
 1146SOL     OW14366   8.202   4.041   4.386  0.4289  0.0085 -0.2168
 1146SOL    HW114367   8.112   4.064   4.424  0.0803 -0.3098 -0.8392
 1146SOL    HW214368   8.269   4.036   4.460 -0.2888 -0.8466  0.3861
 1147SOL     OW14369   8.529   2.349   0.341 -0.1141  0.1064 -0.0455
 1147SOL    HW114370   8.589   2.426   0.366  0.5278  0.2420 -1.8961
 1147SOL    HW214371   8.477   2.374   0.259 -0.9240 -0.9298  0.1541
 1148SOL     OW14372   6.404   0.291   5.376  0.3444 -0.3012  0.2666
 1148SOL    HW114373   6.377   0.387   5.368  2.0751  0.2749  1.1121
 1148SOL    HW214374   6.494   0.285   5.420  0.7927 -2.2499 -0.8529
 1149SOL     OW14375   3.162   4.250   5.871  0.0734 -0.0634  0.6300
 1149SOL    HW114376   3.248   4.300   5.878 -0.0471  0.4431 -1.2793
 1149SOL    HW214377   3.156   4.206   5.781 -2.3544  1.2517  0.1021
 1150SOL     OW14378   1.429   6.251   0.877  0.3648  0.3370 -0.2320
 1150SOL    HW114379   1.498   6.299   0.930  0.9985 -1.3257  0.4835
 1150SOL    HW214380   1.388   6.179   0.933 -0.3219 -0.1959 -1.3951
 1151SOL     OW14381   3.854   8.398   4.056  0.1556  0.3036  0.0261
 1151SOL    HW114382   3.818   8.467   3.993  2.0928  0.1647 -1.2607
 1151SOL    HW214383   3.953   8.392   4.046  0.1384 -1.9221  0.9032
 1152SOL     OW14384   2.306   5.411   6.312 -0.2664 -0.2859  0.3032
 1152SOL    HW114385   2.382   5.475   6.318 -1.5372  1.2081  1.0677
 1152SOL    HW214386   2.335   5.320   6.343  1.4394  0.0259 -0.3680
 1153SOL     OW14387   0.005   3.217   1.376  0.2976  0.3395 -0.1963
 1153SOL    HW114388  -0.026   3.273   1.453  2.6689  0.9140  0.3660
 1153SOL    HW214389  -0.016   3.263   1.290 -2.7452 -0.4938  0.0317
 1154SOL     OW14390   7.015   9.473   3.656 -0.3546  0.1707  0.1842
 1154SOL    HW114391   6.980   9.488   3.564 -2.1304  0.5100  0.8924
 1154SOL    HW214392   7.030   9.562   3.701 -2.8066  0.0025  1.4168
 1155SOL     OW14393   0.076   3.165   1.049 -0.2822  0.1488  0.1505
 1155SOL    HW114394   0.030   3.219   1.120  0.3100 -1.5459  1.8581
 1155SOL    HW214395   0.156   3.216   1.016 -0.0049  0.5479  1.3925
 1156SOL     OW14396   0.505   4.907   6.613  0.2024 -0.7362 -0.3455
 1156SOL    HW114397   0.563   4.833   6.579 -0.7360 -1.2185 -0.8886
 1156SOL    HW214398   0.454   4.947   6.537 -2.6796 -2.4921  0.6108
 1157SOL     OW14399   3.034   3.155   3.962 -0.8549  0.5414 -0.0548
 1157SOL    HW114400   3.023   3.057   3.976 -1.4711  0.5665 -0.3377
 1157SOL    HW214401   3.131   3.177   3.952 -0.5227  0.3076  2.4727
 1158SOL     OW14402   4.622   0.666   3.191 -0.3984  0.3137 -0.0662
 1158SOL    HW114403   4.549   0.725   3.158  0.7095  1.2336 -0.9332
 1158SOL    HW214404   4.592   0.617   3.272 -1.6546  1.3778  0.1188
 1159SOL     OW14405   8.748   3.159   5.042 -0.6819  0.1345 -0.1125
 1159SOL    HW114406   8.833   3.156   5.095 -0.0455 -0.4632 -1.1589
 1159SOL    HW214407   8.716   3.253   5.034  0.5393  0.4951 -0.7606
 1160SOL     OW14408   2.760   3.376   4.706 -0.2863 -0.2851  0.1838
 1160SOL    HW114409   2.814   3.415   4.633 -1.3603  1.2460  0.1955
 1160SOL    HW214410   2.665   3.405   4.697 -1.3518 -3.7701 -0.4365
 1161SOL     OW14411   4.696   8.040   2.991  0.7822 -0.0505  0.1674
 1161SOL    HW114412   4.693   8.005   3.085 -0.3966 -0.1641  0.0924
 1161SOL    HW214413   4.737   8.131   2.990  1.2009 -0.2339  0.7374
 1162SOL     OW14414   1.153   7.840   1.144 -0.2060 -0.6155 -0.3838
 1162SOL    HW114415   1.252   7.829   1.139 -0.2817 -0.4542 -3.5874
 1162SOL    HW214416   1.120   7.814   1.235  2.7058 -1.0061  0.6016
 1163SOL     OW14417   8.323   7.921   1.904  0.2535 -0.1843  0.2342
 1163SOL    HW114418   8.240   7.919   1.961  0.0068  1.6450 -0.0441
 1163SOL    HW214419   8.302   7.881   1.815 -0.2400 -0.0289  0.2774
 1164SOL     OW14420   1.089   5.786   0.554  0.1430 -0.6753 -0.0510
 1164SOL    HW114421   1.128   5.799   0.462  0.6803 -1.2627  0.0890
 1164SOL    HW214422   1.132   5.851   0.617  2.4004 -2.6456  0.5234
 1165SOL     OW14423   8.770   9.018   4.621  0.2365 -0.2801  0.7190
 1165SOL    HW114424   8.866   9.043   4.632  0.2653 -0.9701  2.1452
 1165SOL    HW214425   8.762   8.919   4.616 -0.5886 -0.3332  2.7480
 1166SOL     OW14426   8.058   2.908   4.822 -0.3416 -0.7564 -0.4116
 1166SOL    HW114427   8.067   2.999   4.862 -0.0525 -1.2745  0.7191
 1166SOL    HW214428   8.149   2.868   4.808 -0.5091 -1.5532  0.7014
 1167SOL     OW14429   7.635   0.749   5.168 -0.1034 -0.4367 -0.8048
 1167SOL    HW114430   7.637   0.836   5.119  1.0860 -1.1821 -2.1175
 1167SOL    HW214431   7.548   0.702   5.149 -0.3118  0.0030 -0.9380
 1168SOL     OW14432   2.505   6.125   2.400  0.0660  0.0911  0.1816
 1168SOL    HW114433   2.598   6.141   2.367  0.1767 -0.2933  0.3118
 1168SOL    HW214434   2.458   6.213   2.410  0.0015  0.2006 -1.0780
 1169SOL     OW14435   0.847   2.633   0.460  0.2681 -0.0716  0.3286
 1169SOL    HW114436   0.890   2.642   0.550  1.1274  1.2170 -0.2032
 1169SOL    HW214437   0.914   2.599   0.394 -0.2493 -0.6092  0.0771
 1170SOL     OW14438   3.385   8.104   0.953  0.5348 -0.3790 -0.5173
 1170SOL    HW114439   3.318   8.031   0.960  0.5732 -0.4707 -1.1035
 1170SOL    HW214440   3.477   8.065   0.947  0.6488 -0.2513  0.3335
 1171SOL     OW14441   7.919   6.146   2.106 -0.1743  0.2247 -0.5459
 1171SOL    HW114442   7.936   6.062   2.156  0.0701  0.7903  0.3351
 1171SOL    HW214443   7.899   6.220   2.170 -1.1799  0.6615 -1.3426
 1172SOL     OW14444   0.860   6.537   1.780  0.3434  0.4923 -0.4890
 1172SOL    HW114445   0.899   6.454   1.739  0.0170  1.0686 -2.0005
 1172SOL    HW214446   0.923   6.573   1.849  0.8548 -0.5690 -0.3949
 1173SOL     OW14447   9.253   3.848   0.056  0.0316 -0.3667  0.2907
 1173SOL    HW114448   9.331   3.792   0.028  1.4792  0.1460  3.1038
 1173SOL    HW214449   9.256   3.935   0.006  1.5366 -0.1668  0.6902
 1174SOL     OW14450   8.006   2.913   0.344  0.3503 -0.0927 -0.2130
 1174SOL    HW114451   8.078   2.956   0.399 -0.9777 -0.5366  1.9196
 1174SOL    HW214452   8.008   2.950   0.251  0.9971  2.5476  0.8201
 1175SOL     OW14453   2.395   1.459   4.597 -0.0651  0.3058  0.3240
 1175SOL    HW114454   2.484   1.413   4.589 -0.6590 -0.8560  0.4285
 1175SOL    HW214455   2.354   1.437   4.685 -1.1527 -0.3967 -0.3499
 1176SOL     OW14456   9.695   2.295   1.586  0.0410  0.0895  0.1768
 1176SOL    HW114457   9.749   2.215   1.562 -0.3776 -0.5023  1.1920
 1176SOL    HW214458   9.626   2.270   1.653 -0.8882  1.0422 -0.4042
 1177SOL     OW14459   2.389   9.192   1.546 -0.0746 -0.6080  0.6795
 1177SOL    HW114460   2.384   9.094   1.566  0.7836 -0.7191  0.3485
 1177SOL    HW214461   2.420   9.241   1.628 -0.1895 -0.6469  0.7468
 1178SOL     OW14462   0.158   1.246   4.137  0.5213  0.1117 -0.0136
 1178SOL    HW114463   0.149   1.250   4.038 -0.1826  1.6137  0.1012
 1178SOL    HW214464   0.246   1.205   4.161  1.0775  0.5577 -1.2542
 1179SOL     OW14465   1.490   4.340   1.897 -0.3387 -0.0104 -0.4313
 1179SOL    HW114466   1.522   4.322   1.804 -0.6013  1.7354 -0.8722
 1179SOL    HW214467   1.515   4.264   1.956  2.3419  0.1553 -1.3075
 1180SOL     OW14468   8.667   1.882   5.519  0.8667  0.2710  0.0712
 1180SOL    HW114469   8.724   1.957   5.485  0.6349  0.0430 -0.8408
 1180SOL    HW214470   8.722   1.822   5.577  1.7079 -0.2674 -1.2622
 1181SOL     OW14471   2.657   3.802   3.124 -0.1654 -0.4868  0.0509
 1181SOL    HW114472   2.613   3.891   3.127 -1.9319 -1.3598  0.8395
 1181SOL    HW214473   2.589   3.730   3.137  1.1153 -1.9952 -1.2428
 1182SOL     OW14474   5.739   8.204   3.223  0.0747 -0.1668 -0.1781
 1182SOL    HW114475   5.800   8.217   3.144 -2.1178  0.7593 -1.7501
 1182SOL    HW214476   5.703   8.110   3.222  1.0491 -0.5593  0.4724
 1183SOL     OW14477   6.775   1.559   1.755  0.4170  0.3212 -0.3012
 1183SOL    HW114478   6.702   1.514   1.704  0.8750 -0.0585 -0.6200
 1183SOL    HW214479   6.738   1.593   1.842 -0.0787 -0.1076 -0.3390
 1184SOL     OW14480   1.704   0.625   1.914 -0.1920  0.6042 -0.3365
 1184SOL    HW114481   1.610   0.656   1.920 -0.4740 -0.2993  0.0035
 1184SOL    HW214482   1.745   0.622   2.005  0.3347  1.4832 -0.5338
 1185SOL     OW14483   1.792   1.886   2.197 -0.3880  0.2905 -0.1346
 1185SOL    HW114484   1.855   1.862   2.123 -0.1287 -0.6406  0.3798
 1185SOL    HW214485   1.761   1.980   2.186 -0.0716  0.2662 -1.2291
 1186SOL     OW14486   2.730   5.728   1.521 -0.4187  0.6786  0.1914
 1186SOL    HW114487   2.768   5.821   1.509  0.0332  0.3359 -1.1051
 1186SOL    HW214488   2.790   5.676   1.582 -0.6371  1.2103  0.8714
 1187SOL     OW14489   6.452   1.728   2.434 -0.3441  0.0742 -1.0306
 1187SOL    HW114490   6.489   1.676   2.510 -3.2550 -0.7742 -0.1288
 1187SOL    HW214491   6.499   1.702   2.349  0.5335 -1.5490 -0.0650
 1188SOL     OW14492   2.387   4.235   6.666  0.1359 -0.5323  0.5480
 1188SOL    HW114493   2.482   4.250   6.639  0.0090 -1.0346 -0.1991
 1188SOL    HW214494   2.365   4.293   6.745  1.1361 -0.6145  0.8954
 1189SOL     OW14495   7.971   0.924   1.858 -0.5528  0.2936 -0.9923
 1189SOL    HW114496   7.899   0.993   1.845 -0.0122  0.8045 -1.3148
 1189SOL    HW214497   7.931   0.833   1.849 -1.2231  0.5669 -0.8524
 1190SOL     OW14498   2.773   5.391   3.549 -0.1620 -0.6116  0.1946
 1190SOL    HW114499   2.738   5.331   3.478 -0.8053 -0.4740  0.3894
 1190SOL    HW214500   2.809   5.336   3.624 -0.2468 -0.7563  0.1294
 1191SOL     OW14501   5.437   9.421   3.697  0.8578  0.0174  0.0846
 1191SOL    HW114502   5.496   9.483   3.645  0.1589 -0.5870 -1.4714
 1191SOL    HW214503   5.362   9.472   3.738  1.2203  0.4475  0.2092
 1192SOL     OW14504   0.498   2.748   3.711  0.3728  0.4661 -0.0507
 1192SOL    HW114505   0.576   2.783   3.660  0.8169  0.1120  0.3818
 1192SOL    HW214506   0.509   2.769   3.808  0.3187 -0.2740  0.1216
 1193SOL     OW14507   4.299   5.177   3.129  0.2186 -0.6208  0.8184
 1193SOL    HW114508   4.255   5.152   3.215  0.4442 -1.1750  0.7799
 1193SOL    HW214509   4.324   5.274   3.130 -0.8954 -0.3294  0.8828
 1194SOL     OW14510   1.094   3.674   5.998  0.0537  0.4318  0.2445
 1194SOL    HW114511   1.097   3.644   6.093  2.3711  0.2173  0.1262
 1194SOL    HW214512   1.103   3.595   5.937  0.8881  0.8117 -0.1279
 1195SOL     OW14513   9.748   7.692   2.211 -0.3049 -0.0891 -0.0982
 1195SOL    HW114514   9.824   7.748   2.246 -1.2481 -0.6251  2.9208
 1195SOL    HW214515   9.782   7.601   2.187 -0.0199 -0.4570  1.6255
 1196SOL     OW14516   2.862   6.612   1.680  0.3408  0.3326 -0.1134
 1196SOL    HW114517   2.902   6.550   1.748  1.6255  0.0654 -1.0947
 1196SOL    HW214518   2.767   6.585   1.663  0.2555 -0.0947  0.9757
 1197SOL     OW14519   7.294   1.024   3.697  0.1228 -0.3796  0.1442
 1197SOL    HW114520   7.252   1.106   3.658 -1.8631 -1.4675 -0.0793
 1197SOL    HW214521   7.385   1.011   3.659  0.3575  1.5896  0.0138
 1198SOL     OW14522   0.976   7.499   3.793 -0.1852 -0.2190  0.4992
 1198SOL    HW114523   1.035   7.566   3.839 -0.0864  0.9024 -1.2153
 1198SOL    HW214524   0.880   7.522   3.809 -0.1684  1.5175 -1.6961
 1199SOL     OW14525   4.063   5.515   2.853  0.0314 -0.5647  0.0655
 1199SOL    HW114526   4.098   5.585   2.791  0.7655 -0.5420  0.4970
 1199SOL    HW214527   3.997   5.458   2.805  1.7959 -1.5850 -1.2384
 1200SOL     OW14528   0.241   2.699   1.733  0.6426  0.2184 -0.4228
 1200SOL    HW114529   0.179   2.769   1.697  0.3985 -0.9286 -2.2701
 1200SOL    HW214530   0.335   2.721   1.708  0.7834  0.8794  0.6419
 1201SOL     OW14531   9.030   9.990   5.074 -0.3496  0.4665  0.2119
 1201SOL    HW114532   9.074   9.974   4.986 -0.2124 -0.6157  0.4697
 1201SOL    HW214533   9.048  10.084   5.104  0.7343  0.4144 -0.2624
 1202SOL     OW14534   2.735   7.995   0.492  1.2683  0.4412 -0.2445
 1202SOL    HW114535   2.714   7.982   0.589  1.8401  0.7839 -0.0674
 1202SOL    HW214536   2.790   8.078   0.481  2.1035 -0.1647 -0.7286
 1203SOL     OW14537   8.918   2.937   4.371 -0.4065 -0.1302 -0.1148
 1203SOL    HW114538   8.918   2.847   4.326  0.6289 -0.4724  0.5436
 1203SOL    HW214539   9.012   2.968   4.383 -0.7128  0.4992  0.7270
 1204SOL     OW14540   4.649   3.119   0.323 -0.3371  0.4935 -1.2385
 1204SOL    HW114541   4.726   3.171   0.361  0.1739  0.7288 -2.5577
 1204SOL    HW214542   4.628   3.042   0.383 -0.5102  1.6928  0.2690
 1205SOL     OW14543   1.454   7.866   0.724  0.3572  0.5224 -0.3657
 1205SOL    HW114544   1.446   7.784   0.668 -3.4250 -2.5560  4.2784
 1205SOL    HW214545   1.548   7.874   0.759  1.2882 -0.5802 -2.5867
 1206SOL     OW14546   9.642   9.374   4.416  0.8461  0.0481 -0.3125
 1206SOL    HW114547   9.680   9.331   4.334 -1.5842 -1.4866 -0.6781
 1206SOL    HW214548   9.587   9.453   4.391 -1.0270 -1.2254 -0.3242
 1207SOL     OW14549   4.700   3.486   0.481 -0.7454  0.1721  0.1620
 1207SOL    HW114550   4.653   3.572   0.461  0.1143  0.4141 -0.8728
 1207SOL    HW214551   4.704   3.430   0.398 -2.3180 -1.3763  1.1084
 1208SOL     OW14552   3.669   5.166   2.845  0.9499  0.1551 -0.2256
 1208SOL    HW114553   3.725   5.237   2.802 -0.0137  1.7034  1.0110
 1208SOL    HW214554   3.653   5.189   2.941 -1.4229 -0.4769 -0.4208
 1209SOL     OW14555   8.917   1.977   2.404  0.1593  0.3463  0.0578
 1209SOL    HW114556   8.907   1.986   2.305  2.2096 -0.0245 -0.2182
 1209SOL    HW214557   8.834   2.007   2.449 -0.7439  0.6653 -1.7773
 1210SOL     OW14558   4.427   0.816   3.094  0.8981 -0.3967 -0.4986
 1210SOL    HW114559   4.434   0.817   2.995 -0.6063  0.6262 -0.6003
 1210SOL    HW214560   4.331   0.813   3.121  1.3333 -2.4571  0.9209
 1211SOL     OW14561   7.605   0.300   2.473  0.5667  0.2162  0.0630
 1211SOL    HW114562   7.682   0.354   2.508  2.4534 -1.1189 -1.9171
 1211SOL    HW214563   7.531   0.361   2.447  1.3603  1.6072  1.0162
 1212SOL     OW14564   7.613   7.220   5.157  0.3478  0.0642 -0.5157
 1212SOL    HW114565   7.677   7.292   5.131 -0.0839  0.1872 -1.2332
 1212SOL    HW214566   7.643   7.133   5.117 -0.2348  0.2267 -1.3221
 1213SOL     OW14567   6.693   1.770   2.622 -0.2309  0.2497 -0.3765
 1213SOL    HW114568   6.677   1.832   2.545 -1.1869  0.2765 -0.1580
 1213SOL    HW214569   6.790   1.773   2.648  0.1748 -0.0264 -1.8140
 1214SOL     OW14570   5.261   0.944   1.709 -0.0833 -0.1758 -0.2970
 1214SOL    HW114571   5.330   1.008   1.676 -0.2295 -0.1157 -0.4869
 1214SOL    HW214572   5.274   0.856   1.663 -0.5794  0.0430 -0.8673
 1215SOL     OW14573   4.825   6.992   2.030 -0.1286 -0.4555  0.1223
 1215SOL    HW114574   4.823   7.077   1.978 -1.7032  0.3539  1.4704
 1215SOL    HW214575   4.837   6.915   1.967  2.0866  0.7779 -1.0356
 1216SOL     OW14576   6.883   0.528   2.168  0.3309 -0.0631  0.0712
 1216SOL    HW114577   6.909   0.466   2.243  1.3112 -1.0751 -1.0807
 1216SOL    HW214578   6.922   0.618   2.185  0.5893 -0.2974  0.7660
 1217SOL     OW14579   0.877   3.634   6.542  0.3840 -0.3620  0.0192
 1217SOL    HW114580   0.870   3.576   6.461  0.8245 -1.0879  0.4921
 1217SOL    HW214581   0.786   3.667   6.567  0.1207 -0.8973 -0.2262
 1218SOL     OW14582   0.771   6.752   0.096  0.2626  0.6952  0.4154
 1218SOL    HW114583   0.854   6.797   0.063 -0.0664  2.7545  2.2142
 1218SOL    HW214584   0.692   6.787   0.046  0.2630  0.3291  0.1622
 1219SOL     OW14585   0.335   3.280   1.795  0.1143  0.0431  0.5490
 1219SOL    HW114586   0.306   3.344   1.866  0.2742 -0.8091  1.3943
 1219SOL    HW214587   0.327   3.323   1.706 -1.4566  0.6502  0.9670
 1220SOL     OW14588   6.087   9.009   3.352  0.0694 -0.3772  0.1433
 1220SOL    HW114589   6.083   8.915   3.318 -3.1226  0.0923 -1.0032
 1220SOL    HW214590   6.009   9.060   3.316  1.0810  2.3883  1.7380
 1221SOL     OW14591   9.035   3.646   4.261 -0.5885  0.5137  0.4160
 1221SOL    HW114592   8.940   3.631   4.234 -0.1706 -1.3092 -0.0806
 1221SOL    HW214593   9.093   3.646   4.179 -0.1423  1.5603  0.7218
 1222SOL     OW14594   5.015   9.965   4.720  0.0591 -0.2474 -0.2174
 1222SOL    HW114595   5.010   9.884   4.778 -0.8164 -0.9946 -1.3260
 1222SOL    HW214596   4.977   9.945   4.630 -1.0483  1.6486 -0.2137
 1223SOL     OW14597   0.173   7.397   5.618 -0.0726 -0.6331 -0.0431
 1223SOL    HW114598   0.127   7.424   5.702 -1.1967  0.4349 -0.9700
 1223SOL    HW214599   0.214   7.478   5.575 -1.4862 -0.7553 -1.6721
 1224SOL     OW14600   1.097   3.463   1.928  0.2662  0.6784 -0.4442
 1224SOL    HW114601   1.126   3.507   2.012  0.4225  0.7433 -0.5337
 1224SOL    HW214602   1.003   3.491   1.907  0.9174  2.2357 -1.3675
 1225SOL     OW14603   2.712   7.842   2.883 -0.5695  0.0221 -0.3811
 1225SOL    HW114604   2.695   7.772   2.952  0.4335  1.2490  1.1562
 1225SOL    HW214605   2.773   7.805   2.813  0.4926 -0.4711  0.7712
 1226SOL     OW14606   9.732   4.438   4.814 -0.2663 -0.2028 -0.0141
 1226SOL    HW114607   9.728   4.527   4.770  1.2295  0.6677  1.5608
 1226SOL    HW214608   9.654   4.428   4.876 -0.8909 -0.3460 -0.8084
 1227SOL     OW14609   2.653   0.872   1.505  0.8924 -0.1961 -0.5396
 1227SOL    HW114610   2.574   0.906   1.557  1.5466 -0.2761  0.5150
 1227SOL    HW214611   2.661   0.923   1.419 -0.0680  0.0828 -0.4685
 1228SOL     OW14612   1.951   9.778   3.548 -0.0304  0.1018  0.1315
 1228SOL    HW114613   1.871   9.748   3.496  0.5415  0.3532 -0.8950
 1228SOL    HW214614   1.924   9.851   3.611 -0.6165  0.1399 -0.1638
 1229SOL     OW14615   3.255   2.654   0.840 -0.3705 -0.1476 -0.2292
 1229SOL    HW114616   3.317   2.586   0.800 -0.4927 -0.6068  0.3420
 1229SOL    HW214617   3.167   2.610   0.859 -0.7357  0.3976 -0.6580
 1230SOL     OW14618   2.210   3.729   3.244 -0.1255  0.5110 -0.0733
 1230SOL    HW114619   2.178   3.762   3.333 -1.8533  2.0227 -1.2156
 1230SOL    HW214620   2.200   3.801   3.176 -0.8690 -1.3086 -1.9656
 1231SOL     OW14621   1.547   9.589   2.212  0.4160  0.3071 -0.8560
 1231SOL    HW114622   1.494   9.649   2.272  0.2790 -1.1273  0.4906
 1231SOL    HW214623   1.492   9.567   2.132 -0.9980 -0.9962  0.4234
 1232SOL     OW14624   0.956   5.693   3.983  0.5075  0.1485 -0.3947
 1232SOL    HW114625   0.989   5.780   4.020 -0.3740  0.4399 -0.2914
 1232SOL    HW214626   0.884   5.657   4.041  0.0016 -0.0256 -1.1177
 1233SOL     OW14627   0.174   6.885   2.711 -0.3204  0.5396  0.4488
 1233SOL    HW114628   0.261   6.845   2.683 -0.1194  1.6067 -0.4831
 1233SOL    HW214629   0.100   6.848   2.654  0.0449  2.4666 -1.3234
 1234SOL     OW14630   8.147   9.755   2.967 -0.1596 -0.0713 -0.0846
 1234SOL    HW114631   8.052   9.724   2.955 -0.0826 -0.3352 -0.0252
 1234SOL    HW214632   8.170   9.818   2.893 -0.8220  1.0740  0.6684
 1235SOL     OW14633   3.707   4.775   0.641 -0.1759  0.4100  0.5623
 1235SOL    HW114634   3.673   4.854   0.691 -0.1664  0.5676  0.3183
 1235SOL    HW214635   3.766   4.721   0.702  1.0014  1.3731  0.3158
 1236SOL     OW14636   6.642   0.724   3.046 -0.0046  0.1904  0.3090
 1236SOL    HW114637   6.672   0.631   3.027  1.2655  0.2959  1.6922
 1236SOL    HW214638   6.619   0.771   2.961  1.2149 -0.7617 -0.5456
 1237SOL     OW14639   1.550   4.556   0.874  0.1332  0.4844 -0.1409
 1237SOL    HW114640   1.589   4.603   0.954  0.3356 -0.6280  0.4158
 1237SOL    HW214641   1.610   4.482   0.846 -0.2587  0.4682 -0.9479
 1238SOL     OW14642   2.482   9.241   4.189 -0.2134 -0.0242  0.0808
 1238SOL    HW114643   2.510   9.199   4.102  0.4470  0.8935 -0.1526
 1238SOL    HW214644   2.461   9.169   4.255  1.3372 -0.7329 -0.1795
 1239SOL     OW14645   3.756   3.792   4.764 -0.2472 -0.0511  0.1561
 1239SOL    HW114646   3.665   3.759   4.739 -1.3537  0.5251  3.2161
 1239SOL    HW214647   3.747   3.869   4.827  2.3470 -0.0552  0.5804
 1240SOL     OW14648   0.510   5.602   6.138  0.1449 -0.1313  0.3001
 1240SOL    HW114649   0.516   5.505   6.160 -1.5536 -0.4887 -0.6937
 1240SOL    HW214650   0.564   5.655   6.203  1.6942 -1.8016  0.4004
 1241SOL     OW14651   2.906   9.373   1.048  0.0029  0.7675 -0.4480
 1241SOL    HW114652   2.945   9.281   1.062  2.5732  1.2825 -3.7067
 1241SOL    HW214653   2.957   9.439   1.104  0.0007  0.5961 -0.2440
 1242SOL     OW14654   9.675   4.758   1.911 -0.2734  0.0432 -0.3512
 1242SOL    HW114655   9.764   4.715   1.924 -0.8680 -0.9132  0.7335
 1242SOL    HW214656   9.627   4.715   1.834 -0.0826  0.0900 -0.4957
 1243SOL     OW14657   2.344   6.308   5.060 -0.0233 -0.5246  0.3236
 1243SOL    HW114658   2.434   6.271   5.086 -1.3236 -1.6801  3.4897
 1243SOL    HW214659   2.344   6.407   5.072  1.6981 -0.1311 -2.5626
 1244SOL     OW14660   6.806   0.163   4.369  0.3719  0.3432 -0.3266
 1244SOL    HW114661   6.816   0.102   4.290 -1.4712 -0.2878 -0.1110
 1244SOL    HW214662   6.794   0.108   4.452  0.7813  1.0059  0.1735
 1245SOL     OW14663   0.955   1.936   0.802 -0.6658  0.0812  0.1398
 1245SOL    HW114664   0.914   1.928   0.893 -2.6167 -0.5259 -0.7683
 1245SOL    HW214665   1.049   1.903   0.806 -0.5467  0.5483  2.0494
 1246SOL     OW14666   0.462   9.358   2.383  0.1357 -0.4907  0.1713
 1246SOL    HW114667   0.552   9.393   2.411  0.9005 -1.3449 -1.1413
 1246SOL    HW214668   0.448   9.267   2.424 -0.8443  0.3157  1.6816
 1247SOL     OW14669   9.751   5.429   5.652  0.3339  0.1642  0.3869
 1247SOL    HW114670   9.843   5.468   5.644  0.9801 -1.2930  0.5185
 1247SOL    HW214671   9.739   5.392   5.744  0.2288 -1.1229 -0.1294
 1248SOL     OW14672   1.490   6.824   0.499 -0.1144  0.6595  0.1971
 1248SOL    HW114673   1.444   6.906   0.533 -0.6935  0.0641  0.8646
 1248SOL    HW214674   1.538   6.846   0.414  1.3488  2.1705  1.3673
 1249SOL     OW14675   0.953   3.694   4.264  0.1560  0.6079 -0.3650
 1249SOL    HW114676   0.886   3.626   4.293  0.9690 -0.2957 -0.5663
 1249SOL    HW214677   0.933   3.722   4.170  0.6353 -0.4111 -0.7858
 1250SOL     OW14678   9.610   5.856   5.937 -0.0415  0.1247  0.2858
 1250SOL    HW114679   9.596   5.931   6.001  0.6206  0.6121 -0.1363
 1250SOL    HW214680   9.522   5.822   5.905 -0.4632 -1.4198  2.9500
 1251SOL     OW14681   7.447   8.879   3.614  0.8724 -0.0401 -0.2149
 1251SOL    HW114682   7.364   8.936   3.612  0.6872 -0.3146 -0.4645
 1251SOL    HW214683   7.474   8.862   3.709  0.7399  0.1963 -0.1350
 1252SOL     OW14684   7.724   3.010   0.899  0.3571  0.3380 -0.2116
 1252SOL    HW114685   7.809   3.055   0.874  0.3802  2.0733  2.7043
 1252SOL    HW214686   7.647   3.070   0.876  0.0285 -0.4021 -1.0817
 1253SOL     OW14687   9.797   9.281   1.790 -0.0883 -0.2092 -0.4357
 1253SOL    HW114688   9.881   9.330   1.815  0.7347 -0.7998 -1.9811
 1253SOL    HW214689   9.723   9.347   1.776  0.3485  0.3924  0.0435
 1254SOL     OW14690   6.858   1.625   3.779 -0.2140  0.2335  0.2714
 1254SOL    HW114691   6.776   1.582   3.817  0.4314 -0.4056  0.9704
 1254SOL    HW214692   6.838   1.662   3.689 -0.7541 -1.6643 -0.4134
 1255SOL     OW14693   9.196   2.674   4.752  0.0362 -0.2360  0.3665
 1255SOL    HW114694   9.189   2.630   4.842  1.2800  2.8417  2.0287
 1255SOL    HW214695   9.123   2.741   4.741  0.7287  0.4055 -0.3662
 1256SOL     OW14696   5.339   5.447   0.475 -0.2463  0.0658 -0.2407
 1256SOL    HW114697   5.438   5.430   0.477 -0.1482  0.5608 -0.6257
 1256SOL    HW214698   5.290   5.361   0.466  0.0946 -0.3189  1.4908
 1257SOL     OW14699   0.683   7.850   4.236 -0.1539 -0.2217 -0.2540
 1257SOL    HW114700   0.613   7.883   4.299 -0.8971 -1.0748 -0.6266
 1257SOL    HW214701   0.701   7.920   4.166 -0.8759 -0.1299 -0.3547
 1258SOL     OW14702   9.391   3.383   2.037  0.0033 -0.4032  0.0676
 1258SOL    HW114703   9.455   3.360   1.964 -1.4774 -1.3157 -0.9529
 1258SOL    HW214704   9.299   3.350   2.014 -0.6750  0.1096  1.9114
 1259SOL     OW14705   4.274   9.884   1.337 -0.3238  0.1340  0.0540
 1259SOL    HW114706   4.310   9.924   1.253  0.0077 -0.1549  0.0540
 1259SOL    HW214707   4.182   9.919   1.355  0.1831  1.3445  0.3643
 1260SOL     OW14708   4.304   2.056   1.078 -0.2926 -0.2535 -0.0356
 1260SOL    HW114709   4.316   2.139   1.133  1.3050 -0.5004  0.0113
 1260SOL    HW214710   4.210   2.052   1.044 -0.2041  1.9691 -0.6504
 1261SOL     OW14711   1.738   2.783   0.388  0.3706  0.8821  0.6447
 1261SOL    HW114712   1.761   2.738   0.474 -1.9252  0.8006  1.2299
 1261SOL    HW214713   1.764   2.879   0.393  1.7890  0.5068  0.7888
 1262SOL     OW14714   8.585   0.244   1.038  0.1293  0.3060  0.1374
 1262SOL    HW114715   8.616   0.216   1.129 -1.4451 -0.6599  0.3930
 1262SOL    HW214716   8.563   0.342   1.039 -0.4344  0.1767  0.9561
 1263SOL     OW14717   3.569   9.863   1.841  0.1407  0.4441  0.3699
 1263SOL    HW114718   3.645   9.898   1.786 -0.0601 -1.3765 -1.1199
 1263SOL    HW214719   3.495   9.834   1.780 -0.3538 -1.0013  1.6490
 1264SOL     OW14720   6.064   7.216   3.963  0.2128 -0.0527 -0.1522
 1264SOL    HW114721   6.110   7.293   3.917 -1.5307  0.7070 -0.6596
 1264SOL    HW214722   6.110   7.131   3.939  1.2230  0.6698 -0.8313
 1265SOL     OW14723   1.484   6.372   0.049  0.5726  0.2098 -0.1825
 1265SOL    HW114724   1.568   6.425   0.038  0.2075  0.7323 -0.4976
 1265SOL    HW214725   1.482   6.297  -0.016  0.0707  1.1429 -1.2565
 1266SOL     OW14726   4.427   7.670   4.238  0.3670 -0.0974 -0.2089
 1266SOL    HW114727   4.422   7.599   4.167 -1.5109 -1.1014  0.8978
 1266SOL    HW214728   4.359   7.651   4.309  1.7513  1.2859  1.5265
 1267SOL     OW14729   9.600   6.073   3.506  0.1174  0.8307 -0.4211
 1267SOL    HW114730   9.698   6.059   3.490  0.3041  2.2042 -0.4883
 1267SOL    HW214731   9.587   6.140   3.578 -0.7814 -0.2299  0.4202
 1268SOL     OW14732   8.600   8.802   4.018 -0.6208 -0.1198  0.5811
 1268SOL    HW114733   8.672   8.870   4.005 -0.6034 -0.2065  0.2212
 1268SOL    HW214734   8.590   8.748   3.935 -1.7835  0.5419  0.2823
 1269SOL     OW14735   7.522   1.861   2.538  0.3312  0.4770  0.2207
 1269SOL    HW114736   7.471   1.850   2.624  0.4146  1.7612  0.4325
 1269SOL    HW214737   7.467   1.913   2.473  0.8157  0.6511 -0.0473
 1270SOL     OW14738   5.903   1.046   1.900 -0.3173 -0.2352 -0.2793
 1270SOL    HW114739   5.829   1.034   1.834 -0.5561  1.6901 -0.3737
 1270SOL    HW214740   5.865   1.062   1.991  0.0142 -1.6506  0.1347
 1271SOL     OW14741   6.306   9.417   2.175  0.3597 -0.0995 -0.1336
 1271SOL    HW114742   6.383   9.360   2.148  0.8693  0.3119  0.4528
 1271SOL    HW214743   6.339   9.509   2.198 -0.1522 -0.2423  1.2207
 1272SOL     OW14744   6.054   0.647   3.842  0.4673 -0.1482  0.6626
 1272SOL    HW114745   5.957   0.670   3.844  0.5178  0.1135 -0.1061
 1272SOL    HW214746   6.072   0.576   3.910 -0.0828  0.4982  1.4947
 1273SOL     OW14747   0.376   7.640   4.385 -0.3455 -0.0798  0.7651
 1273SOL    HW114748   0.282   7.674   4.385 -0.2347  0.2354  0.7784
 1273SOL    HW214749   0.388   7.576   4.460 -0.5438 -0.1012  0.7791
 1274SOL     OW14750   2.739   8.116   5.154  0.2210  0.0293  0.4776
 1274SOL    HW114751   2.813   8.183   5.158  0.7247 -0.4191 -1.1929
 1274SOL    HW214752   2.651   8.163   5.155  0.5131  0.5762  2.2929
 1275SOL     OW14753   7.750   7.607   3.124  0.1290  0.0692 -0.1603
 1275SOL    HW114754   7.693   7.576   3.200  0.0011  1.5078  0.3479
 1275SOL    HW214755   7.831   7.548   3.117 -0.4077 -0.7393  0.3903
 1276SOL     OW14756   1.957   0.915   4.629 -0.0377  0.6031 -0.3763
 1276SOL    HW114757   2.023   0.848   4.594 -1.8716  0.2636 -3.4513
 1276SOL    HW214758   1.873   0.867   4.655 -1.1002  1.5804 -1.9137
 1277SOL     OW14759   2.463   5.517   3.850  0.5178 -0.1038  0.2177
 1277SOL    HW114760   2.562   5.530   3.860  0.4709  0.8975 -0.4801
 1277SOL    HW214761   2.443   5.483   3.758  0.1414  0.6367  0.0232
 1278SOL     OW14762   3.297   6.669   0.806 -0.1697  0.3452 -0.3727
 1278SOL    HW114763   3.205   6.668   0.846 -0.2105  0.3698 -0.4669
 1278SOL    HW214764   3.291   6.695   0.709  0.0749  1.7722 -0.0186
 1279SOL     OW14765   9.975   7.295   6.398  0.1720  0.0340  0.4055
 1279SOL    HW114766   9.885   7.331   6.423 -0.4949 -0.8881 -0.6459
 1279SOL    HW214767   9.987   7.203   6.437  0.9501  0.4214  1.1199
 1280SOL     OW14768   2.405   3.999   0.072 -0.1525 -0.9765  0.3661
 1280SOL    HW114769   2.451   4.071   0.021  0.5624  0.4155  2.9280
 1280SOL    HW214770   2.331   3.962   0.016  0.6090  0.4563 -1.6859
 1281SOL     OW14771   7.894   1.085   0.178 -0.2315 -0.2542  0.6071
 1281SOL    HW114772   7.800   1.120   0.176 -0.4542 -0.8519  0.4120
 1281SOL    HW214773   7.896   1.001   0.232  0.6937  1.1957  2.8910
 1282SOL     OW14774   0.313   0.480   5.088  0.1156  0.1465  0.0017
 1282SOL    HW114775   0.252   0.557   5.106 -1.2623 -0.5148 -1.7541
 1282SOL    HW214776   0.261   0.394   5.092  0.8342 -0.3907 -1.9832
 1283SOL     OW14777   3.081   6.329   1.320  0.6229  0.1560  0.7229
 1283SOL    HW114778   3.133   6.344   1.236 -0.2424 -0.6364  0.0299
 1283SOL    HW214779   3.142   6.331   1.399  1.5114  0.4146  0.0299
 1284SOL     OW14780   9.769   1.773   1.442 -0.2443  0.1296  0.1621
 1284SOL    HW114781   9.758   1.681   1.404 -2.0247  0.0134  0.9121
 1284SOL    HW214782   9.866   1.792   1.458  0.2670 -1.0026 -1.4972
 1285SOL     OW14783   4.702   9.581   2.507  0.2149  0.2839 -0.0334
 1285SOL    HW114784   4.700   9.485   2.479  3.3293  0.3015 -0.5274
 1285SOL    HW214785   4.715   9.587   2.606  1.9241  0.1637 -0.2371
 1286SOL     OW14786   9.035   0.138   0.491 -0.1797  0.3678  0.7126
 1286SOL    HW114787   9.123   0.107   0.526 -0.3614 -0.2997  0.5870
 1286SOL    HW214788   8.969   0.063   0.496 -0.0834  0.0995 -1.5388
 1287SOL     OW14789   4.027   9.982   1.396  0.1549 -0.5489  0.1465
 1287SOL    HW114790   3.938  10.029   1.398  0.7769  0.6537  0.1705
 1287SOL    HW214791   4.013   9.883   1.391 -1.1916 -0.3807  0.4701
 1288SOL     OW14792   2.749   4.119   1.360  0.4555 -0.1534  0.0709
 1288SOL    HW114793   2.800   4.121   1.446  0.9575  0.1862 -0.2321
 1288SOL    HW214794   2.813   4.130   1.283 -0.1155  0.6979 -0.2921
 1289SOL     OW14795   2.345   2.042   4.268  0.2175  0.7475 -0.1549
 1289SOL    HW114796   2.393   2.122   4.233 -0.5424  1.2581 -0.0532
 1289SOL    HW214797   2.292   2.068   4.349 -0.1672  0.1796 -0.2224
 1290SOL     OW14798   2.040   4.535   1.627 -0.1623 -0.2999  0.2562
 1290SOL    HW114799   2.077   4.560   1.538 -0.8942  1.3388  0.3790
 1290SOL    HW214800   2.059   4.608   1.692 -3.3525  0.5171  0.3603
 1291SOL     OW14801   1.392   0.503   2.119 -0.2879  0.0095  0.1707
 1291SOL    HW114802   1.473   0.445   2.116  0.0739  0.5859 -2.0148
 1291SOL    HW214803   1.411   0.590   2.074 -1.0393  1.5921  2.8411
 1292SOL     OW14804   3.561   0.525   1.585 -0.3134  0.0406 -0.1070
 1292SOL    HW114805   3.519   0.557   1.669 -2.3545 -0.5511 -0.8586
 1292SOL    HW214806   3.529   0.580   1.508 -0.7203 -1.2198 -0.8618
 1293SOL     OW14807   9.729   0.507   4.758 -0.3201 -0.2093  0.3780
 1293SOL    HW114808   9.708   0.433   4.695 -1.0588  1.3882 -1.2904
 1293SOL    HW214809   9.809   0.558   4.725  0.1095 -0.1760  1.4406
 1294SOL     OW14810   1.122   7.285   2.868 -0.3297  0.0927 -0.4909
 1294SOL    HW114811   1.065   7.319   2.943  0.3134 -1.4253  0.6924
 1294SOL    HW214812   1.080   7.312   2.781 -1.8694  0.6020  0.3732
 1295SOL     OW14813   1.325   4.795   1.173  0.3966  0.3614 -0.1720
 1295SOL    HW114814   1.225   4.796   1.183  0.3856 -1.5831  0.0720
 1295SOL    HW214815   1.361   4.887   1.191 -1.3541  1.1240 -0.4268
 1296SOL     OW14816   4.036   3.181   2.576  0.0969 -0.0081 -0.0227
 1296SOL    HW114817   4.037   3.168   2.675  1.3029  0.4826  0.0432
 1296SOL    HW214818   4.114   3.133   2.535 -0.0566  0.2796 -0.6645
 1297SOL     OW14819   3.470   7.554   3.475 -0.2281  0.2803  0.2330
 1297SOL    HW114820   3.493   7.468   3.519  2.5714  0.8364 -0.0417
 1297SOL    HW214821   3.466   7.627   3.544 -2.3780  0.0163  0.4353
 1298SOL     OW14822   2.527   9.141   3.928  0.3886  0.0539 -0.6012
 1298SOL    HW114823   2.560   9.054   3.890  0.3426 -0.3068  0.1785
 1298SOL    HW214824   2.469   9.186   3.860 -2.3454 -2.1074  0.1945
 1299SOL     OW14825   9.402   9.531   2.481 -0.4609  0.5368  0.0128
 1299SOL    HW114826   9.369   9.439   2.501  1.1508 -0.3777 -1.3894
 1299SOL    HW214827   9.346   9.598   2.529 -0.4337 -1.2582  2.6191
 1300SOL     OW14828   5.058   1.652   2.430 -0.3458  0.2631  0.3996
 1300SOL    HW114829   5.048   1.706   2.514  0.6371 -0.1393  0.7882
 1300SOL    HW214830   5.024   1.559   2.446  2.1701 -0.5804  1.1759
 1301SOL     OW14831   4.588   1.537   2.368 -0.1031  0.2483  0.4958
 1301SOL    HW114832   4.527   1.579   2.300 -0.6397  1.3100  1.6073
 1301SOL    HW214833   4.604   1.602   2.442  1.5921 -0.3864  0.7221
 1302SOL     OW14834   6.323   7.686   5.228 -0.1384  0.3454  0.0515
 1302SOL    HW114835   6.400   7.716   5.172 -1.1413  1.0117 -0.9913
 1302SOL    HW214836   6.324   7.587   5.237  1.0958  0.3870  0.4244
 1303SOL     OW14837   6.977   1.092   5.716 -0.3296 -0.0878 -0.4337
 1303SOL    HW114838   6.900   1.102   5.653 -1.2638 -2.2100  0.3272
 1303SOL    HW214839   7.051   1.042   5.671  0.1082  0.8392 -0.7491
 1304SOL     OW14840   0.787   9.738   0.969 -0.4652 -0.3549  0.0148
 1304SOL    HW114841   0.828   9.762   1.056  0.9024  0.2203 -0.7653
 1304SOL    HW214842   0.760   9.821   0.920  1.4717 -0.4869 -1.3613
 1305SOL     OW14843   4.490   5.020   2.974  0.6335 -0.1956 -0.1675
 1305SOL    HW114844   4.454   5.093   3.032 -1.8576 -0.9354 -0.6944
 1305SOL    HW214845   4.449   4.933   3.001  1.1405 -0.8902 -1.5735
 1306SOL     OW14846   6.368   0.242   4.810  0.3166 -0.3813  0.1066
 1306SOL    HW114847   6.364   0.212   4.905  1.3645  0.4365  0.4136
 1306SOL    HW214848   6.275   0.259   4.777 -0.1784 -2.2689  0.4486
 1307SOL     OW14849   2.227   0.487   3.497  0.2985  0.1566  0.4527
 1307SOL    HW114850   2.231   0.582   3.467 -1.7337 -0.1232 -0.7933
 1307SOL    HW214851   2.187   0.483   3.588  1.7975  0.5933  1.1530
 1308SOL     OW14852   0.414   8.239   4.553 -0.4415 -0.4279 -0.0654
 1308SOL    HW114853   0.512   8.246   4.535 -0.5177  0.2356 -0.2405
 1308SOL    HW214854   0.380   8.328   4.584 -1.0790 -0.5242 -0.4883
 1309SOL     OW14855   0.997   2.936   3.894  0.6042 -0.1834 -0.4706
 1309SOL    HW114856   0.958   2.877   3.823 -1.3215 -0.2252  0.6063
 1309SOL    HW214857   1.012   3.028   3.856 -1.4245  0.0960 -0.6568
 1310SOL     OW14858   5.562   8.900   4.387  0.3075 -0.1028  0.1726
 1310SOL    HW114859   5.524   8.989   4.410 -0.1459 -0.0487 -0.7317
 1310SOL    HW214860   5.586   8.899   4.290 -1.0131 -1.4148 -0.1730
 1311SOL     OW14861   9.294   0.452   0.742  0.0444 -0.0332  0.2637
 1311SOL    HW114862   9.216   0.429   0.684  0.7929 -0.1313 -0.7247
 1311SOL    HW214863   9.335   0.369   0.778 -1.3064  0.0907  2.1434
 1312SOL     OW14864   4.029   3.081   1.214 -0.2151 -0.2193 -0.0412
 1312SOL    HW114865   4.059   3.129   1.296 -0.1524  1.5957 -1.0887
 1312SOL    HW214866   3.956   3.134   1.170  0.6062 -0.5258 -1.8030
 1313SOL     OW14867   3.471   2.964   3.144  0.1855  0.0529 -0.1479
 1313SOL    HW114868   3.501   2.871   3.124  0.7136 -0.0556  1.0881
 1313SOL    HW214869   3.507   3.027   3.075 -1.0626 -0.8000 -1.5982
 1314SOL     OW14870   8.333   8.555   3.130  0.4796  0.2576  0.1834
 1314SOL    HW114871   8.285   8.491   3.189 -1.1858  0.6320 -0.7351
 1314SOL    HW214872   8.421   8.579   3.171  0.1539 -0.9140  1.5910
 1315SOL     OW14873   0.025   7.144   2.665  0.0626  0.1334  0.0284
 1315SOL    HW114874   0.051   7.060   2.713 -0.1273 -0.0162 -0.1272
 1315SOL    HW214875  -0.060   7.179   2.703  0.1537  0.2675  0.1083
 1316SOL     OW14876   8.189   5.487   2.438 -0.6463 -0.0893 -0.4307
 1316SOL    HW114877   8.164   5.393   2.459 -1.2231  0.1985  0.1809
 1316SOL    HW214878   8.158   5.511   2.346 -1.1713 -0.2502 -0.2945
 1317SOL     OW14879   5.653   9.411   2.538 -0.0130 -0.1818  0.5401
 1317SOL    HW114880   5.696   9.410   2.448  2.1567 -0.1123  1.5467
 1317SOL    HW214881   5.588   9.487   2.544  1.1208  0.8764 -0.3844
 1318SOL     OW14882   9.568   6.326   1.104  0.5560  0.1708  0.3496
 1318SOL    HW114883   9.471   6.321   1.127  0.6460  0.6387  0.8502
 1318SOL    HW214884   9.584   6.286   1.014 -0.0016 -0.5321  0.5650
 1319SOL     OW14885   9.000   2.756   5.102  0.7153  0.5289  0.4126
 1319SOL    HW114886   8.920   2.753   5.042  1.1937  0.6595 -0.2491
 1319SOL    HW214887   8.979   2.711   5.189  0.5256 -1.1402 -0.4802
 1320SOL     OW14888   8.187   7.622   3.589 -0.6785  0.1918 -0.0884
 1320SOL    HW114889   8.122   7.564   3.638 -1.0122  0.4003 -0.2899
 1320SOL    HW214890   8.151   7.715   3.582 -0.6338  0.1636 -0.7337
 1321SOL     OW14891   0.006   8.989   4.367  0.3328  0.0977  0.2004
 1321SOL    HW114892  -0.058   9.006   4.293  1.4668 -1.1141 -1.0861
 1321SOL    HW214893   0.053   8.902   4.351  1.0380  0.1206  2.0206
 1322SOL     OW14894   4.878   0.294   4.441  0.4028  0.1999 -0.2436
 1322SOL    HW114895   4.791   0.281   4.393 -0.2729  1.5970  0.5620
 1322SOL    HW214896   4.860   0.308   4.539  1.6373 -0.9163  0.1551
 1323SOL     OW14897   9.144   1.628   2.982  0.3857  0.2667  0.4508
 1323SOL    HW114898   9.196   1.674   2.911 -1.1204 -1.3008 -1.7508
 1323SOL    HW214899   9.175   1.533   2.989 -1.8953 -0.6143 -0.7133
 1324SOL     OW14900   8.493   4.912   4.906 -0.1556 -0.7871 -0.0895
 1324SOL    HW114901   8.571   4.967   4.878  1.0004 -2.4714 -0.2141
 1324SOL    HW214902   8.409   4.955   4.871  0.7800  0.4103 -0.9408
 1325SOL     OW14903   3.501   8.561   4.188 -0.4660 -0.2588 -0.1280
 1325SOL    HW114904   3.517   8.463   4.181  1.1433  0.0833 -1.3896
 1325SOL    HW214905   3.454   8.581   4.274 -1.1533 -2.1662 -0.0483
 1326SOL     OW14906   1.079   6.424   2.022  0.1093 -0.0739  0.6249
 1326SOL    HW114907   1.014   6.374   1.965  1.3426 -0.0643 -0.8249
 1326SOL    HW214908   1.066   6.522   2.009  0.2266 -0.0677  0.5582
 1327SOL     OW14909   1.410   6.669   2.659  0.2717  0.1953 -0.6584
 1327SOL    HW114910   1.510   6.667   2.668  0.3171 -0.8350 -1.3066
 1327SOL    HW214911   1.375   6.575   2.662 -0.7281  0.5920  0.0877
 1328SOL     OW14912   9.827   3.251   4.453  0.7175 -0.5580  0.7777
 1328SOL    HW114913   9.917   3.211   4.474  1.1879 -1.5720 -2.8688
 1328SOL    HW214914   9.773   3.185   4.400 -1.2189  1.0279  0.7354
 1329SOL     OW14915   6.904   8.392   4.126 -0.1656 -0.0903 -0.1468
 1329SOL    HW114916   6.906   8.488   4.154 -0.6284 -0.4576  1.1988
 1329SOL    HW214917   6.809   8.364   4.110  0.0346 -0.1072 -1.3144
 1330SOL     OW14918   2.037   7.848   6.336  0.1082 -0.2757 -0.0699
 1330SOL    HW114919   2.032   7.789   6.417 -1.5354 -0.2523 -0.1412
 1330SOL    HW214920   1.982   7.809   6.263  0.8938  0.1548 -0.8947
 1331SOL     OW14921   8.158   2.080   5.306 -0.0391 -0.3885 -0.3367
 1331SOL    HW114922   8.178   2.121   5.395  1.1049  2.5100 -1.8598
 1331SOL    HW214923   8.059   2.082   5.290 -0.0169  1.8436 -0.3569
 1332SOL     OW14924   4.278   2.676   4.911 -0.1382  0.4097 -0.1959
 1332SOL    HW114925   4.337   2.612   4.961 -1.1296 -0.7328 -0.4575
 1332SOL    HW214926   4.327   2.712   4.832  0.3790 -0.1607 -0.1392
 1333SOL     OW14927   3.839   2.549   3.387  0.3057  0.1165  0.0782
 1333SOL    HW114928   3.914   2.612   3.367 -0.9790  0.9244 -2.2680
 1333SOL    HW214929   3.772   2.552   3.314 -0.3107 -3.2302  0.4394
 1334SOL     OW14930   2.138   9.596   1.418  0.2297  0.6277 -0.5504
 1334SOL    HW114931   2.184   9.658   1.481 -2.6252 -0.5810  2.8911
 1334SOL    HW214932   2.046   9.629   1.399 -0.0898 -0.7288 -1.4636
 1335SOL     OW14933   8.496   7.642   2.099 -0.2388 -0.0475  0.5373
 1335SOL    HW114934   8.520   7.732   2.063 -0.7779 -0.2695 -0.3970
 1335SOL    HW214935   8.451   7.588   2.027 -0.6324 -0.7767  1.3199
 1336SOL     OW14936   8.088   2.267   1.222  0.1690 -1.0405 -0.7298
 1336SOL    HW114937   7.999   2.254   1.267  0.3794 -2.2762 -0.6749
 1336SOL    HW214938   8.080   2.242   1.126  0.1775 -0.0606 -0.9968
 1337SOL     OW14939   0.284   9.872   3.708  0.6991  0.3380  0.1998
 1337SOL    HW114940   0.279   9.836   3.801  0.4048  1.4025  0.6011
 1337SOL    HW214941   0.194   9.907   3.681  0.5868 -0.6970 -0.7818
 1338SOL     OW14942   7.799   5.215   1.600 -0.4545  0.4624 -0.0116
 1338SOL    HW114943   7.783   5.127   1.644  0.5365 -0.6489 -1.7948
 1338SOL    HW214944   7.888   5.251   1.629 -0.2336  0.1971 -0.3578
 1339SOL     OW14945   1.477   2.050   2.346 -0.6850  0.5401  0.6492
 1339SOL    HW114946   1.392   2.099   2.365 -2.2540 -2.1574  0.8301
 1339SOL    HW214947   1.504   1.997   2.427 -1.5411 -2.5147 -1.0125
 1340SOL     OW14948   2.365   5.065   2.944 -1.0751  0.4194 -0.1556
 1340SOL    HW114949   2.305   5.038   2.869 -0.5277  2.0224 -1.2019
 1340SOL    HW214950   2.408   4.984   2.984  0.3762 -0.3211 -3.0725
 1341SOL     OW14951   9.841   0.729   4.430  0.0288  0.2884 -0.1444
 1341SOL    HW114952   9.886   0.701   4.514 -2.1521  0.0575  0.9694
 1341SOL    HW214953   9.821   0.827   4.434 -0.7190  0.1335 -0.0961
 1342SOL     OW14954   7.563   0.642   6.346  0.2847 -0.2433 -0.0637
 1342SOL    HW114955   7.520   0.710   6.286  0.4912  0.4453  0.5566
 1342SOL    HW214956   7.660   0.663   6.357  0.0546  0.1884  1.2455
 1343SOL     OW14957   6.669   3.744   0.664 -0.6004  0.5106  0.0815
 1343SOL    HW114958   6.757   3.698   0.654  0.6903  2.5012  1.9242
 1343SOL    HW214959   6.636   3.773   0.574 -0.8519 -2.8337 -0.9660
 1344SOL     OW14960   8.667   9.252   4.486  0.1261  0.0617  0.6888
 1344SOL    HW114961   8.578   9.225   4.523 -0.1117  0.1624  0.1902
 1344SOL    HW214962   8.709   9.174   4.440  0.3328 -0.0089  0.9961
 1345SOL     OW14963   4.720   9.825   4.186  0.2119 -0.1476 -0.4133
 1345SOL    HW114964   4.688   9.796   4.096 -1.3738  1.4012 -0.3721
 1345SOL    HW214965   4.712   9.924   4.193 -2.7879 -0.5416  2.6273
 1346SOL     OW14966   2.263   4.446   4.120 -0.0790 -0.1906 -0.0532
 1346SOL    HW114967   2.246   4.544   4.113 -1.4547 -0.2858  1.9106
 1346SOL    HW214968   2.177   4.396   4.127  0.6480 -1.4500  0.2460
 1347SOL     OW14969   1.662   5.016   5.600  0.1674 -0.7997 -0.0596
 1347SOL    HW114970   1.696   4.922   5.604  0.8653 -0.5197  1.0072
 1347SOL    HW214971   1.688   5.058   5.513  2.1636 -0.7541  0.5313
 1348SOL     OW14972   8.216   9.502   4.620  0.3476 -0.0509  0.3850
 1348SOL    HW114973   8.194   9.457   4.534  1.2403 -0.4648  0.3676
 1348SOL    HW214974   8.167   9.457   4.695 -0.8151  0.6214  0.0399
 1349SOL     OW14975   3.124   6.761   2.858 -0.1202 -0.3181 -0.1851
 1349SOL    HW114976   3.076   6.791   2.941  0.5809 -0.4791  0.2909
 1349SOL    HW214977   3.119   6.662   2.851  1.8524 -0.5313  0.9710
 1350SOL     OW14978   8.579   7.748   0.546  0.1600  0.6312 -0.1663
 1350SOL    HW114979   8.567   7.707   0.636  1.3902  1.5700  0.4438
 1350SOL    HW214980   8.558   7.681   0.476  0.2960 -0.4570  0.8157
 1351SOL     OW14981   0.340   5.615   1.343 -0.5672  0.3251  0.0821
 1351SOL    HW114982   0.404   5.692   1.351  1.8590 -1.5352 -0.8204
 1351SOL    HW214983   0.356   5.550   1.417 -2.5385  0.6099  0.7831
 1352SOL     OW14984   0.391   0.198   4.125 -0.2458 -0.4622 -0.9321
 1352SOL    HW114985   0.447   0.178   4.205 -2.1876 -0.4250  0.4503
 1352SOL    HW214986   0.339   0.281   4.140  1.0351  0.7782 -3.1388
 1353SOL     OW14987   4.513   2.100   1.435 -0.2023  0.1802 -0.2431
 1353SOL    HW114988   4.595   2.074   1.486 -0.4774  0.4980  0.3645
 1353SOL    HW214989   4.449   2.146   1.496 -0.9941 -0.3926 -0.6331
 1354SOL     OW14990   1.151   3.122   5.479  0.1937 -0.2694  0.6451
 1354SOL    HW114991   1.161   3.075   5.566  2.4203 -4.4292 -1.7213
 1354SOL    HW214992   1.055   3.147   5.466 -0.3866 -0.7048  3.6812
 1355SOL     OW14993   7.657   6.807   4.783  0.0651  0.2352 -0.1450
 1355SOL    HW114994   7.559   6.809   4.804  0.2805  0.3438  0.8370
 1355SOL    HW214995   7.692   6.900   4.782 -0.3121  0.4005 -2.7694
 1356SOL     OW14996   9.970   5.607   4.353  0.1212  0.1969 -0.5206
 1356SOL    HW114997   9.909   5.593   4.274 -1.4154 -0.9833  0.8442
 1356SOL    HW214998   9.945   5.543   4.426  1.0921  1.7185  1.1762
 1357SOL     OW14999   1.597   5.235   1.763  0.4400  0.0762 -0.3339
 1357SOL    HW115000   1.530   5.162   1.772 -0.9424  1.4268  0.4576
 1357SOL    HW215001   1.675   5.216   1.823 -0.2046 -0.4201  0.3538
 1358SOL     OW15002   4.392   3.857   4.624 -0.2649 -0.1413 -0.0392
 1358SOL    HW115003   4.461   3.787   4.641 -0.7971 -0.5248  0.5693
 1358SOL    HW215004   4.368   3.902   4.710 -0.6009  0.1500 -0.2803
 1359SOL     OW15005   9.136   5.070   4.626 -0.1440  0.8526 -0.2737
 1359SOL    HW115006   9.151   4.974   4.604 -0.1338  1.2711 -2.2223
 1359SOL    HW215007   9.157   5.086   4.722  1.5869 -0.7479 -0.3456
 1360SOL     OW15008   1.674   7.361   4.055  0.0050  0.2136 -0.3914
 1360SOL    HW115009   1.752   7.392   4.001 -1.8034  1.2190 -2.4769
 1360SOL    HW215010   1.644   7.271   4.022 -1.0681  0.8030 -1.0510
 1361SOL     OW15011   0.205   9.414   4.970  0.1571  0.1266 -0.4078
 1361SOL    HW115012   0.229   9.503   4.931  1.1974  0.4508  0.9411
 1361SOL    HW215013   0.110   9.393   4.947  0.3837  0.8363 -2.1121
 1362SOL     OW15014   9.340   5.620   0.565  0.0330  0.0336  0.0427
 1362SOL    HW115015   9.406   5.683   0.607  0.0939  0.0429 -0.0657
 1362SOL    HW215016   9.312   5.551   0.632  1.8364 -1.3012 -0.5562
 1363SOL     OW15017   7.332   7.306   3.204  0.1955 -0.0436 -0.7493
 1363SOL    HW115018   7.268   7.272   3.135  0.1337 -1.7074  0.0908
 1363SOL    HW215019   7.426   7.286   3.175  0.2693  1.0216 -1.2619
 1364SOL     OW15020   0.687   4.707   6.533 -0.1841 -0.1405 -0.1857
 1364SOL    HW115021   0.634   4.654   6.467 -0.2441 -0.4680  0.1267
 1364SOL    HW215022   0.773   4.735   6.492 -0.3853 -0.0286 -0.5295
 1365SOL     OW15023   0.400   1.625   0.960  0.0333 -0.2461 -0.1490
 1365SOL    HW115024   0.481   1.672   0.925  1.3480 -1.6659  0.9162
 1365SOL    HW215025   0.343   1.595   0.883  1.2103 -0.4278 -0.9670
 1366SOL     OW15026   4.599   5.183   2.797  0.1128 -1.1498  0.1174
 1366SOL    HW115027   4.548   5.125   2.861 -0.2789 -1.5166 -0.5213
 1366SOL    HW215028   4.562   5.171   2.705 -0.3942  0.6127  0.0809
 1367SOL     OW15029   2.107   1.611   2.211 -0.5779  0.2606 -0.8292
 1367SOL    HW115030   2.183   1.669   2.241 -2.0836  1.1402  1.4377
 1367SOL    HW215031   2.050   1.662   2.146 -0.1057  0.1354 -1.3506
 1368SOL     OW15032   0.471   6.005   5.942 -0.7246  0.1945 -0.4505
 1368SOL    HW115033   0.403   6.062   5.989 -0.1474  1.2821 -0.9286
 1368SOL    HW215034   0.562   6.023   5.980 -0.1608  1.5113 -2.3430
 1369SOL     OW15035   9.835   7.990   2.982  0.6465  0.0738  0.6024
 1369SOL    HW115036   9.877   7.915   3.033 -0.3007  0.6222  2.2088
 1369SOL    HW215037   9.752   7.957   2.936 -0.5377  0.4193  2.4249
 1370SOL     OW15038   8.920   2.432   2.051 -0.2521  0.2238  0.1542
 1370SOL    HW115039   8.841   2.492   2.039 -0.3177  0.4417  1.5924
 1370SOL    HW215040   8.935   2.415   2.148  0.3601 -1.3126 -0.1861
 1371SOL     OW15041   1.491   7.606   3.499  0.2706 -0.0708 -0.3823
 1371SOL    HW115042   1.456   7.695   3.528 -0.4135  0.3705 -2.4903
 1371SOL    HW215043   1.584   7.617   3.463  0.3977 -0.3070 -0.1280
 1372SOL     OW15044   8.633   8.727   2.085 -0.8276  0.1837  0.7563
 1372SOL    HW115045   8.611   8.781   2.004 -1.2321 -0.8570  0.1590
 1372SOL    HW215046   8.731   8.733   2.104 -0.1463 -2.1027 -1.7027
 1373SOL     OW15047   9.033   5.029   0.109 -0.3881 -0.5498  0.1932
 1373SOL    HW115048   9.016   5.092   0.033  1.7026 -0.9821 -0.6763
 1373SOL    HW215049   9.130   5.006   0.112 -0.5918 -1.2530  2.4693
 1374SOL     OW15050   8.359   4.575   2.118 -0.0314 -0.0461  0.3610
 1374SOL    HW115051   8.385   4.669   2.099  0.0046  0.1770  1.5275
 1374SOL    HW215052   8.272   4.555   2.072 -0.0757  0.5677  0.1737
 1375SOL     OW15053   2.105   9.778   1.705  0.4275 -0.2436  0.0759
 1375SOL    HW115054   2.055   9.772   1.619  3.3105 -0.5721 -1.6347
 1375SOL    HW215055   2.095   9.870   1.742 -1.2031 -0.2249 -0.3532
 1376SOL     OW15056   0.069   8.518   1.300  0.1679  0.3444  0.0705
 1376SOL    HW115057   0.145   8.546   1.358 -0.6759 -1.5409  2.1484
 1376SOL    HW215058  -0.011   8.496   1.357 -2.0429  2.4509 -2.0514
 1377SOL     OW15059   9.727   5.961   3.894 -0.3628 -0.1378 -0.4039
 1377SOL    HW115060   9.803   5.925   3.948 -1.2622  1.5276  2.0323
 1377SOL    HW215061   9.652   5.894   3.894  0.7792 -1.4816 -2.2388
 1378SOL     OW15062   8.345   1.263   1.499  0.0092  0.4137 -0.5476
 1378SOL    HW115063   8.361   1.262   1.598 -2.4023  1.2849 -0.1361
 1378SOL    HW215064   8.287   1.340   1.475 -0.7966 -0.7445 -2.4426
 1379SOL     OW15065   9.901   1.321   4.957  0.3463  0.1571  0.2860
 1379SOL    HW115066   9.869   1.310   5.052  1.6939 -2.0792  0.5126
 1379SOL    HW215067   9.823   1.313   4.895 -0.2525 -0.4151  1.0903
 1380SOL     OW15068   6.448   7.772   3.048 -0.4963 -0.1109  0.2849
 1380SOL    HW115069   6.427   7.869   3.061  2.3941  0.6602 -0.4789
 1380SOL    HW215070   6.403   7.739   2.965 -0.8856  0.7679  0.1437
 1381SOL     OW15071   9.504   3.309   6.671  0.3340  0.4472 -0.2973
 1381SOL    HW115072   9.532   3.393   6.719  1.9861  0.4796 -1.2810
 1381SOL    HW215073   9.576   3.241   6.678  0.2182  0.1270 -1.9406
 1382SOL     OW15074   8.874   9.941   1.210 -0.3508  0.4988  0.1129
 1382SOL    HW115075   8.870   9.845   1.184  0.8493  0.8531 -1.4863
 1382SOL    HW215076   8.789   9.966   1.257 -0.9623 -1.1678 -0.0612
 1383SOL     OW15077   0.127   0.770   4.213 -0.4694  0.2020 -1.2154
 1383SOL    HW115078   0.056   0.838   4.196 -0.3238  0.0458 -2.5176
 1383SOL    HW215079   0.216   0.814   4.215 -0.4916  0.2328 -0.7121
 1384SOL     OW15080   4.528   1.355   4.565  0.1046 -0.5569  0.1081
 1384SOL    HW115081   4.430   1.364   4.584  0.6268  1.9985  1.7380
 1384SOL    HW215082   4.547   1.383   4.471 -0.5818 -0.1503  0.0914
 1385SOL     OW15083   5.129   7.992   2.170  0.3282  0.3283 -0.4101
 1385SOL    HW115084   5.039   7.984   2.212  0.4258  1.2946 -0.0179
 1385SOL    HW215085   5.178   7.905   2.182 -0.3961 -0.0701 -0.2791
 1386SOL     OW15086   4.456   4.401   6.509 -0.1039  0.0492 -0.0070
 1386SOL    HW115087   4.491   4.312   6.481 -0.1191  0.1422 -0.3214
 1386SOL    HW215088   4.530   4.468   6.510 -0.3620  0.3592 -1.1516
 1387SOL     OW15089   8.362   3.546   3.449  0.0320  0.2771 -0.1492
 1387SOL    HW115090   8.313   3.542   3.362  1.6444 -0.5848 -1.0509
 1387SOL    HW215091   8.403   3.456   3.468  1.0199  0.8942  0.7047
 1388SOL     OW15092   1.543   6.064   3.826 -0.2588  0.0192  0.1568
 1388SOL    HW115093   1.636   6.076   3.793 -0.9637  0.2056 -1.8324
 1388SOL    HW215094   1.509   6.149   3.865  0.3479 -0.0119  0.7551
 1389SOL     OW15095   0.126   8.064   1.076 -0.6016  0.4018  0.1704
 1389SOL    HW115096   0.038   8.111   1.071 -1.0439 -0.5184 -0.7646
 1389SOL    HW215097   0.149   8.045   1.172 -1.2349  0.9656  0.4356
 1390SOL     OW15098   5.182   2.500   3.881  0.7881  0.4707 -0.3555
 1390SOL    HW115099   5.204   2.403   3.894  0.4797  0.3054 -1.0060
 1390SOL    HW215100   5.201   2.550   3.965 -2.9533 -0.8441  1.4047
 1391SOL     OW15101   2.811   4.455   1.859 -0.3934 -0.0612  0.1984
 1391SOL    HW115102   2.879   4.472   1.788  2.0662 -0.5105  2.3908
 1391SOL    HW215103   2.797   4.357   1.870 -0.3653 -0.0150  0.6829
 1392SOL     OW15104   9.666   6.415   6.691  0.2902  0.2680 -0.1518
 1392SOL    HW115105   9.732   6.479   6.651  0.9013 -0.0473  0.3461
 1392SOL    HW215106   9.667   6.330   6.639 -0.1246  0.4570 -0.4762
 1393SOL     OW15107   2.152   7.731   2.104 -0.4312  0.3991  0.9248
 1393SOL    HW115108   2.073   7.670   2.103 -1.2054  1.3939  0.3940
 1393SOL    HW215109   2.218   7.700   2.035 -0.5493 -0.1820  1.0705
 1394SOL     OW15110   0.046   0.607   2.736 -0.1366  0.1907  0.3697
 1394SOL    HW115111   0.089   0.635   2.651 -2.4086  0.3702 -0.7441
 1394SOL    HW215112   0.107   0.544   2.785  1.6600  0.9887 -0.8257
 1395SOL     OW15113   2.838   6.844   2.565 -0.1941 -0.1931 -0.4379
 1395SOL    HW115114   2.924   6.793   2.552 -0.4189 -0.4187 -1.0512
 1395SOL    HW215115   2.815   6.893   2.481 -1.0462 -0.7171 -0.5128
 1396SOL     OW15116   8.885   4.879   6.327  0.3762  0.0599  0.0865
 1396SOL    HW115117   8.913   4.972   6.306 -3.4092  1.2990  0.1669
 1396SOL    HW215118   8.838   4.877   6.416  0.8354 -2.0307  0.3282
 1397SOL     OW15119   0.121   4.012   4.004 -0.7173  0.5120  0.0210
 1397SOL    HW115120   0.052   3.942   4.022 -1.2718  0.8838 -0.6529
 1397SOL    HW215121   0.115   4.083   4.073 -0.8234  0.4040  0.1228
 1398SOL     OW15122   9.855   7.442   4.452  0.6950  0.2696  0.7035
 1398SOL    HW115123   9.909   7.513   4.496 -0.0661  1.5479 -0.3754
 1398SOL    HW215124   9.909   7.398   4.381  1.1493 -0.1826  1.3322
 1399SOL     OW15125   8.983   1.507   3.179  0.3600  0.7473  0.1763
 1399SOL    HW115126   9.014   1.564   3.102  1.1492 -1.2225 -1.0194
 1399SOL    HW215127   9.055   1.441   3.201  0.3249  1.6026  2.9536
 1400SOL     OW15128   8.615   1.211   6.685  0.4897 -0.8137  0.5008
 1400SOL    HW115129   8.518   1.229   6.699  0.7782  0.7885  0.4818
 1400SOL    HW215130   8.628   1.165   6.597 -0.2517 -1.1824  0.5769
 1401SOL     OW15131   3.373   2.657   3.307  0.2991  0.1686  0.4289
 1401SOL    HW115132   3.370   2.609   3.395 -0.9612 -0.3800  0.0876
 1401SOL    HW215133   3.356   2.754   3.322 -2.7137 -0.3340  0.4910
 1402SOL     OW15134   0.718   6.671   2.076 -0.5261  0.1040  0.1967
 1402SOL    HW115135   0.656   6.708   2.007  0.5228 -4.4417 -3.4343
 1402SOL    HW215136   0.665   6.624   2.147 -1.4415 -3.0404 -2.4354
 1403SOL     OW15137   5.515   7.370   4.110 -0.3285  0.2084 -0.1498
 1403SOL    HW115138   5.608   7.338   4.089 -0.3214  0.6097 -0.7529
 1403SOL    HW215139   5.468   7.302   4.165  0.8134  0.6165  1.3557
 1404SOL     OW15140   6.927   0.521   5.969 -0.1044 -0.3084  0.7269
 1404SOL    HW115141   6.898   0.576   5.890 -0.2915 -1.0033  0.3124
 1404SOL    HW215142   6.913   0.424   5.949  0.2408 -0.5080  1.4573
 1405SOL     OW15143   2.118   4.069   1.773  0.7824  0.7193  0.4270
 1405SOL    HW115144   2.149   4.012   1.849 -0.0127 -1.5841 -0.9177
 1405SOL    HW215145   2.024   4.100   1.790  0.1195 -0.8909 -0.1752
 1406SOL     OW15146   6.965   7.888   4.270 -0.0328 -0.5073  0.4705
 1406SOL    HW115147   6.920   7.823   4.330 -1.4465  0.4345  0.4611
 1406SOL    HW215148   7.052   7.850   4.238 -0.0665 -1.6955  1.7574
 1407SOL     OW15149   3.291   7.902   2.597  0.3870  0.0517  0.0779
 1407SOL    HW115150   3.334   7.959   2.528  0.2291 -1.3860 -1.2501
 1407SOL    HW215151   3.236   7.958   2.659 -0.6913  1.1935 -1.8931
 1408SOL     OW15152   4.538   3.583   4.613  0.1019 -0.2198  0.2542
 1408SOL    HW115153   4.610   3.598   4.546  0.2257  0.1281  0.4607
 1408SOL    HW215154   4.453   3.625   4.580 -0.3843 -1.9304 -0.6653
 1409SOL     OW15155   4.952   3.980   0.314 -0.1622 -0.4134  0.0780
 1409SOL    HW115156   5.051   3.976   0.327 -0.4764 -2.5102  2.1319
 1409SOL    HW215157   4.915   3.888   0.306 -1.8915  0.3680 -1.3610
 1410SOL     OW15158   2.545   4.582   0.372  0.0381  1.0353  0.2449
 1410SOL    HW115159   2.628   4.588   0.427  1.0528  2.3604 -1.3900
 1410SOL    HW215160   2.551   4.502   0.311 -0.7321  0.0428  1.4335
 1411SOL     OW15161   9.495   5.310   6.182 -0.7044  0.1384  0.5444
 1411SOL    HW115162   9.567   5.269   6.126  0.1512 -0.2468  1.9086
 1411SOL    HW215163   9.458   5.242   6.245  0.3962  1.2910  2.4935
 1412SOL     OW15164   4.053   4.022   5.025  0.5291  0.2407  0.3279
 1412SOL    HW115165   4.116   4.034   5.103  0.2810 -1.3046  0.7728
 1412SOL    HW215166   4.034   3.925   5.012  0.6550  0.4791 -1.7484
 1413SOL     OW15167   6.310   9.499   1.890 -0.5349  0.0879 -0.0731
 1413SOL    HW115168   6.249   9.480   1.967 -0.2616 -0.3720  0.0370
 1413SOL    HW215169   6.371   9.421   1.877 -1.1962 -0.2294 -1.3417
 1414SOL     OW15170   1.870   2.338   2.813  0.0643 -0.2692  0.5364
 1414SOL    HW115171   1.771   2.321   2.820 -0.1237  0.1862 -0.8225
 1414SOL    HW215172   1.914   2.313   2.899 -1.7391  3.1056  2.5621
 1415SOL     OW15173   4.726   4.245   3.943  0.3188  0.0640 -0.0949
 1415SOL    HW115174   4.676   4.169   3.983  1.1455  0.3095  1.4733
 1415SOL    HW215175   4.690   4.331   3.980  1.3066  0.2785  0.3862
 1416SOL     OW15176   7.060   0.048   1.248  0.4110 -0.3057 -0.0766
 1416SOL    HW115177   7.125   0.033   1.323 -2.1341 -1.6643  1.9865
 1416SOL    HW215178   7.020   0.139   1.256 -0.8915 -0.9601  1.1141
 1417SOL     OW15179   8.807   2.663   4.601  0.3338 -0.0846  0.5255
 1417SOL    HW115180   8.768   2.602   4.670  0.0611  0.4040  0.8024
 1417SOL    HW215181   8.738   2.685   4.532  0.9502 -1.5533 -0.5883
 1418SOL     OW15182   7.801   9.669   3.924  0.1788 -0.1902  0.3806
 1418SOL    HW115183   7.813   9.661   3.825 -0.6968  1.0316  0.1711
 1418SOL    HW215184   7.889   9.660   3.969  0.7208  0.3165 -0.5771
 1419SOL     OW15185   8.931   1.933   0.243 -0.2790 -0.2773  0.4705
 1419SOL    HW115186   8.930   2.001   0.170  0.4494  2.2640  2.7339
 1419SOL    HW215187   8.838   1.898   0.258 -1.0409  1.7301  0.6005
 1420SOL     OW15188   0.214   8.598   5.306 -0.2773  0.0108 -0.1589
 1420SOL    HW115189   0.274   8.633   5.235  0.6035 -0.3249  0.4213
 1420SOL    HW215190   0.123   8.639   5.296 -0.7517 -1.6046 -2.7262
 1421SOL     OW15191   4.749   8.594   2.190 -0.2463 -0.3080  0.0032
 1421SOL    HW115192   4.755   8.495   2.178 -2.1933 -0.2437 -1.8169
 1421SOL    HW215193   4.816   8.639   2.131  1.7723 -0.5437  2.0272
 1422SOL     OW15194   3.663   5.266   0.036 -0.3771  0.7895  0.2000
 1422SOL    HW115195   3.743   5.235  -0.015  2.5293  2.0684  3.8299
 1422SOL    HW215196   3.638   5.358   0.006 -1.6400 -0.2632 -2.1422
 1423SOL     OW15197   9.681   7.797   5.188  0.0541  0.5782  0.3758
 1423SOL    HW115198   9.751   7.734   5.220 -1.7491 -1.0751  1.1884
 1423SOL    HW215199   9.655   7.774   5.095 -0.7253 -0.0242  0.7311
 1424SOL     OW15200   9.025   4.930   2.697  0.1688 -0.1254 -0.0547
 1424SOL    HW115201   9.086   4.995   2.652 -0.2494  0.1019 -0.2999
 1424SOL    HW215202   9.051   4.837   2.672 -1.4230  0.0534 -2.5646
 1425SOL     OW15203   0.999   7.305   4.787  0.1190  0.2436  0.4181
 1425SOL    HW115204   1.025   7.258   4.703  1.8297 -1.0446  1.6472
 1425SOL    HW215205   0.940   7.246   4.842 -0.7579  0.9742  0.2886
 1426SOL     OW15206   2.317   4.531   1.042 -0.8546 -0.1387  0.6748
 1426SOL    HW115207   2.258   4.483   0.977  0.6111 -0.2788 -0.5984
 1426SOL    HW215208   2.331   4.475   1.123 -2.6330 -0.0068  1.0769
 1427SOL     OW15209   4.553   2.786   2.013  0.3046 -0.3214  0.0101
 1427SOL    HW115210   4.579   2.691   1.994 -0.4021 -0.5672  0.2533
 1427SOL    HW215211   4.453   2.794   2.010  0.3289  0.2641  0.7146
 1428SOL     OW15212   3.766   8.180   2.726 -0.1650 -0.1902  0.3170
 1428SOL    HW115213   3.752   8.197   2.628 -1.4637 -0.8756  0.3737
 1428SOL    HW215214   3.740   8.262   2.777  0.1500  0.0353  0.1170
 1429SOL     OW15215   6.133   7.437   3.829  0.6514  0.2292  0.2848
 1429SOL    HW115216   6.098   7.524   3.864  2.1032  1.0557 -0.2754
 1429SOL    HW215217   6.152   7.446   3.731 -2.9455 -1.9128 -0.6968
 1430SOL     OW15218   9.898   0.648   2.152  0.1593  0.3397  0.4993
 1430SOL    HW115219   9.995   0.641   2.128  0.0412 -2.3603  0.5754
 1430SOL    HW215220   9.847   0.687   2.076  1.2418  1.2991  0.2590
 1431SOL     OW15221   6.466   0.933   1.203 -0.2581  0.0144 -0.2353
 1431SOL    HW115222   6.519   0.889   1.276 -1.4206  1.6111  1.6041
 1431SOL    HW215223   6.382   0.972   1.241 -0.5412  1.5121 -2.3064
 1432SOL     OW15224   2.287   4.484   2.406 -0.0573 -0.1191  0.2061
 1432SOL    HW115225   2.256   4.391   2.425 -1.8911  0.2951 -0.6661
 1432SOL    HW215226   2.271   4.506   2.310  0.9682  0.8845  0.2486
 1433SOL     OW15227   4.004   7.440   4.193  0.3608 -0.6351 -0.1202
 1433SOL    HW115228   4.048   7.527   4.169 -1.7564  0.2120 -0.9804
 1433SOL    HW215229   4.040   7.408   4.281  0.4292  1.6327  0.7107
 1434SOL     OW15230   4.656   5.391   2.453 -0.0319  0.1787  0.4244
 1434SOL    HW115231   4.753   5.414   2.444 -0.0492 -0.0338 -0.3519
 1434SOL    HW215232   4.601   5.465   2.412 -0.1217 -0.7333 -1.1414
 1435SOL     OW15233   6.126   4.589   0.891  0.1528  0.0634 -0.7804
 1435SOL    HW115234   6.124   4.491   0.870  0.6849  0.0314 -0.6887
 1435SOL    HW215235   6.049   4.612   0.950  1.1114 -0.6678  0.7927
 1436SOL     OW15236   9.315   7.799   3.610  0.0355 -0.3962  0.4773
 1436SOL    HW115237   9.331   7.718   3.554  3.2776  1.3895 -1.3695
 1436SOL    HW215238   9.275   7.871   3.553  0.4165  0.4245  1.2363
 1437SOL     OW15239   8.266   1.277   5.285  0.6958  0.4842 -0.0932
 1437SOL    HW115240   8.197   1.213   5.252 -0.4340  0.4591  2.2296
 1437SOL    HW215241   8.314   1.236   5.363  2.2748  1.1356 -0.7071
 1438SOL     OW15242   2.727   7.274   4.950 -0.2552  0.0362  0.1487
 1438SOL    HW115243   2.652   7.319   4.999 -0.4056 -0.4142  0.3346
 1438SOL    HW215244   2.814   7.311   4.981 -0.3500 -0.2504  0.7663
 1439SOL     OW15245   3.507   2.713   4.161  0.2431 -0.9338  0.7582
 1439SOL    HW115246   3.597   2.676   4.184  0.7316  0.4957  1.2088
 1439SOL    HW215247   3.467   2.660   4.086  1.8112 -1.0545 -0.0017
 1440SOL     OW15248   0.013   6.245   4.134  0.7615  0.2571 -0.3337
 1440SOL    HW115249  -0.014   6.257   4.230 -1.2248 -0.0656 -0.8300
 1440SOL    HW215250   0.043   6.333   4.097 -0.7741  0.9033 -0.0862
 1441SOL     OW15251   8.381   1.807   3.116  0.5465  0.8207  0.2507
 1441SOL    HW115252   8.339   1.815   3.206  0.2347 -0.5198  0.2271
 1441SOL    HW215253   8.474   1.772   3.125  0.4081  0.3979  0.0207
 1442SOL     OW15254   8.284   8.067   4.057 -0.4204  0.2233  0.3124
 1442SOL    HW115255   8.266   7.969   4.049 -3.0832  0.7893 -1.0852
 1442SOL    HW215256   8.354   8.094   3.991  0.0684 -0.6576  0.4638
 1443SOL     OW15257   7.359   3.299   0.679  0.0303 -0.1640 -0.1386
 1443SOL    HW115258   7.270   3.335   0.650 -0.6182  0.0186  2.0011
 1443SOL    HW215259   7.344   3.217   0.735  1.1375  0.6022  1.2971
 1444SOL     OW15260   7.985   0.899   4.556 -0.1127  0.0955  0.3246
 1444SOL    HW115261   8.018   0.806   4.574 -1.2948 -0.3378  0.3329
 1444SOL    HW215262   8.037   0.939   4.481  1.5937  0.0938  1.4849
 1445SOL     OW15263   9.814   4.378   4.386 -0.5306 -0.3187 -0.1061
 1445SOL    HW115264   9.724   4.414   4.408 -0.7248 -0.3841 -0.7756
 1445SOL    HW215265   9.810   4.330   4.298  0.2930  0.2185 -0.4424
 1446SOL     OW15266   7.830   2.579   4.009 -0.4426  0.5636  0.0452
 1446SOL    HW115267   7.924   2.603   3.983 -0.6298  1.6158  0.3095
 1446SOL    HW215268   7.795   2.647   4.073 -2.4924  1.9977 -2.4812
 1447SOL     OW15269   5.811   7.167   1.766 -0.6445  0.2922  0.4948
 1447SOL    HW115270   5.717   7.135   1.776 -1.3179  2.3815  1.0141
 1447SOL    HW215271   5.813   7.252   1.714  1.1603 -0.7949 -1.2854
 1448SOL     OW15272   1.453   9.853   3.682  0.1739  0.8483 -0.3845
 1448SOL    HW115273   1.446   9.812   3.773 -1.5670 -0.0500 -0.9126
 1448SOL    HW215274   1.388   9.928   3.674 -0.7634 -0.0649 -1.4077
 1449SOL     OW15275   8.718   3.069   0.670 -0.0547 -0.9368  0.5138
 1449SOL    HW115276   8.743   3.132   0.743 -0.1898 -0.4761  0.1622
 1449SOL    HW215277   8.769   3.092   0.587  0.7824 -2.0292  0.7164
 1450SOL     OW15278   1.356   0.956   2.103 -0.0615  0.2529 -0.5006
 1450SOL    HW115279   1.430   0.971   2.168 -0.5696  0.2293  0.0913
 1450SOL    HW215280   1.268   0.971   2.149 -0.4018  1.1355 -1.4256
 1451SOL     OW15281   2.927   0.173   4.090  0.4380 -0.3792 -0.3437
 1451SOL    HW115282   2.864   0.122   4.031  0.1920 -0.5298  0.0517
 1451SOL    HW215283   2.994   0.111   4.130  2.1793  0.0658 -2.4338
 1452SOL     OW15284   2.421   4.920   6.376  0.2875  0.6659 -0.1194
 1452SOL    HW115285   2.402   4.824   6.398 -1.0508  1.0457  0.4067
 1452SOL    HW215286   2.418   4.932   6.276  0.4181  0.1751 -0.1844
 1453SOL     OW15287   2.627   1.664   3.873 -0.7321 -0.1723  0.3053
 1453SOL    HW115288   2.669   1.749   3.905 -1.8016 -0.1899  1.7744
 1453SOL    HW215289   2.568   1.684   3.795 -0.6139  0.3665  0.3531
 1454SOL     OW15290   2.167   7.498   5.164 -0.2116  0.0695 -0.7234
 1454SOL    HW115291   2.176   7.404   5.197 -2.5395  0.1105  0.0895
 1454SOL    HW215292   2.258   7.539   5.155  0.8379 -2.3724 -1.4828
 1455SOL     OW15293   8.894   5.294   2.912  0.2712  0.4056  0.0898
 1455SOL    HW115294   8.815   5.343   2.875 -0.7521  0.7609  2.5858
 1455SOL    HW215295   8.870   5.198   2.928  0.1870  0.5979  1.1984
 1456SOL     OW15296   7.990   0.253   0.498  0.0490 -0.3488 -0.5591
 1456SOL    HW115297   8.060   0.217   0.560  0.2383 -1.7456 -1.5502
 1456SOL    HW215298   7.949   0.177   0.447 -1.7955  0.5204 -0.4098
 1457SOL     OW15299   5.959   0.876   1.007 -0.2321  0.4677 -0.0588
 1457SOL    HW115300   5.876   0.827   0.982  0.9649 -1.0562 -1.1944
 1457SOL    HW215301   6.033   0.810   1.024  0.9651  1.8100  0.0489
 1458SOL     OW15302   9.767   2.242   0.800 -0.0984  0.2531 -0.2826
 1458SOL    HW115303   9.856   2.259   0.843 -0.2909 -1.8086  0.9694
 1458SOL    HW215304   9.732   2.154   0.830 -2.1802  0.6629 -1.4573
 1459SOL     OW15305   4.649   2.939   1.806 -0.8869 -0.3234 -0.0406
 1459SOL    HW115306   4.622   2.876   1.733  1.1159 -1.7319  0.3643
 1459SOL    HW215307   4.625   2.899   1.895  2.5895 -1.7621  0.3407
 1460SOL     OW15308   7.595   8.393   4.832  0.6733 -0.7988  1.0830
 1460SOL    HW115309   7.690   8.402   4.860  0.4955  1.5426  1.0340
 1460SOL    HW215310   7.537   8.385   4.914  0.7487 -0.2944  1.1912
 1461SOL     OW15311   2.616   4.249   3.775  0.3596  0.1966  0.0453
 1461SOL    HW115312   2.687   4.209   3.718  1.6322 -0.9110  2.3557
 1461SOL    HW215313   2.654   4.273   3.864 -1.3900  2.6508  0.1865
 1462SOL     OW15314   3.507   2.976   0.732 -0.8784 -0.0759 -0.8191
 1462SOL    HW115315   3.422   3.013   0.694 -0.8850  0.5304 -0.2318
 1462SOL    HW215316   3.508   2.991   0.831 -1.5623 -3.0454 -0.3328
 1463SOL     OW15317   8.941   8.966   1.636 -0.1276 -0.1961  0.4605
 1463SOL    HW115318   9.000   8.969   1.717  0.4653 -0.8625  0.0566
 1463SOL    HW215319   8.934   9.057   1.597  0.6347 -0.1080  0.5163
 1464SOL     OW15320   4.517   9.416   1.720  0.4026 -0.3129 -0.3698
 1464SOL    HW115321   4.423   9.435   1.693 -0.0087  0.0195  1.2505
 1464SOL    HW215322   4.573   9.498   1.709  0.8776 -0.9468 -2.8583
 1465SOL     OW15323   9.579   3.826   4.737  0.0037 -0.6645  0.2758
 1465SOL    HW115324   9.497   3.851   4.686 -0.4296 -0.3635  1.1121
 1465SOL    HW215325   9.575   3.730   4.762 -0.7758 -0.3205  1.5424
 1466SOL     OW15326   1.704   2.222   4.708 -0.0572  0.4029 -0.5594
 1466SOL    HW115327   1.720   2.307   4.758 -0.0023 -0.2456  0.5495
 1466SOL    HW215328   1.789   2.192   4.664  0.9082 -1.0338  2.1638
 1467SOL     OW15329   2.191   5.730   3.410 -0.5674  0.1776  0.3968
 1467SOL    HW115330   2.207   5.756   3.506 -0.2343 -0.6071  0.5632
 1467SOL    HW215331   2.115   5.783   3.373  1.9648  3.5546 -0.2166
 1468SOL     OW15332   1.033   6.416   5.962  0.2071 -0.7211 -0.4067
 1468SOL    HW115333   1.027   6.332   6.016  1.8219 -1.7453 -1.7583
 1468SOL    HW215334   1.087   6.398   5.880 -1.0117  1.1733 -1.6461
 1469SOL     OW15335   7.235   8.232   5.234 -0.1487  0.8291  0.0326
 1469SOL    HW115336   7.318   8.252   5.287 -1.6243  0.5824  2.5413
 1469SOL    HW215337   7.178   8.314   5.228  0.0780  0.8884 -1.3015
 1470SOL     OW15338   0.342   8.446   3.489 -0.6615 -0.1882  0.3856
 1470SOL    HW115339   0.311   8.351   3.491 -2.8737  0.5169  1.4123
 1470SOL    HW215340   0.432   8.451   3.446 -0.4241 -2.7670  0.5064
 1471SOL     OW15341   7.270   0.442   6.007 -0.4056 -0.0334  0.1641
 1471SOL    HW115342   7.203   0.376   6.043  1.1398 -3.0306 -2.1842
 1471SOL    HW215343   7.358   0.425   6.050  0.5063 -0.9847 -2.0024
 1472SOL     OW15344   4.908   0.269   2.720 -0.3607  0.1540 -0.4484
 1472SOL    HW115345   4.880   0.173   2.716 -0.5657  0.2437 -1.5215
 1472SOL    HW215346   4.917   0.298   2.815 -3.0224 -0.1551 -0.0512
 1473SOL     OW15347   1.841   1.285   2.487  0.3900  0.2718  0.4006
 1473SOL    HW115348   1.895   1.327   2.414 -0.1998  1.4545  0.6207
 1473SOL    HW215349   1.756   1.337   2.499 -0.3718 -1.0329  0.6648
 1474SOL     OW15350   9.206   1.827   3.494  0.2188  0.2058  0.1396
 1474SOL    HW115351   9.157   1.914   3.504 -1.3769 -0.5750 -0.6236
 1474SOL    HW215352   9.290   1.842   3.442  0.6528  1.5175  1.1887
 1475SOL     OW15353   7.903   0.438   2.289 -0.4805  0.1318  0.6801
 1475SOL    HW115354   7.864   0.494   2.216  1.7592  0.5151 -0.2422
 1475SOL    HW215355   7.858   0.460   2.375 -2.8310  0.0196 -0.4680
 1476SOL     OW15356   7.395   8.762   5.969 -0.5271  0.0945 -0.0714
 1476SOL    HW115357   7.360   8.733   6.058  1.4218  0.1137  0.7208
 1476SOL    HW215358   7.470   8.703   5.941  1.2306  2.2331 -0.0268
 1477SOL     OW15359   1.100   7.104   4.603 -0.0291  0.1084  0.0321
 1477SOL    HW115360   1.088   7.029   4.538 -0.0458 -0.4113  0.6268
 1477SOL    HW215361   1.192   7.141   4.593 -0.7275  1.4148 -1.7225
 1478SOL     OW15362   2.144   7.127   1.146 -0.9413  0.3277 -0.5717
 1478SOL    HW115363   2.047   7.133   1.127 -0.7852  1.3596 -1.0565
 1478SOL    HW215364   2.185   7.218   1.146  0.0101 -0.0808 -0.2757
 1479SOL     OW15365   0.177   6.723   4.454 -1.0823 -0.5075  0.6474
 1479SOL    HW115366   0.271   6.742   4.481 -0.8458 -0.3380 -0.2851
 1479SOL    HW215367   0.172   6.634   4.409 -1.6482 -1.2451  2.1356
 1480SOL     OW15368   3.721   3.521   2.324  0.0558 -0.4434  0.2684
 1480SOL    HW115369   3.683   3.490   2.238  0.7132 -0.7985  0.0997
 1480SOL    HW215370   3.652   3.574   2.375 -0.6362 -1.0556 -0.0349
 1481SOL     OW15371   0.916   2.976   1.960  0.2771  0.5324  0.2726
 1481SOL    HW115372   0.866   3.039   2.019  1.0115  0.4158  1.0161
 1481SOL    HW215373   0.900   2.882   1.991 -0.8168  0.3430 -0.8329
 1482SOL     OW15374   3.429   8.326   3.125  0.1282  0.3190  0.0714
 1482SOL    HW115375   3.361   8.398   3.137  0.0879  0.3097 -0.1074
 1482SOL    HW215376   3.490   8.324   3.205  0.3068  0.7339 -0.0580
 1483SOL     OW15377   0.473   2.095   1.349 -0.5027  0.0282  0.3930
 1483SOL    HW115378   0.378   2.108   1.320  0.0786  0.1510 -1.4894
 1483SOL    HW215379   0.524   2.180   1.336  0.0383 -0.2314  0.7698
 1484SOL     OW15380   7.894   0.986   4.867 -0.1532 -0.3731  0.5890
 1484SOL    HW115381   7.872   0.962   4.773 -0.0638  0.3874  0.3680
 1484SOL    HW215382   7.982   0.946   4.892 -0.4784 -1.1125  0.5665
 1485SOL     OW15383   0.031   2.580   3.557  0.0783 -0.1082 -0.5571
 1485SOL    HW115384  -0.023   2.582   3.641 -3.5070 -0.1070 -2.7526
 1485SOL    HW215385   0.071   2.489   3.546 -0.9342 -0.6665  0.2419
 1486SOL     OW15386   1.014   6.202   3.780  0.0235  0.5763 -0.5900
 1486SOL    HW115387   0.967   6.246   3.704  3.1995  1.2612 -2.2471
 1486SOL    HW215388   1.069   6.125   3.746 -0.8120 -0.9953  1.4501
 1487SOL     OW15389   1.759   3.113   0.992  0.0118 -0.2316  0.5199
 1487SOL    HW115390   1.834   3.073   1.045  0.1035 -0.7924 -0.0332
 1487SOL    HW215391   1.796   3.173   0.921 -0.0956  0.2052  0.8335
 1488SOL     OW15392   9.491   5.921   5.124 -0.4615  0.5361  0.7372
 1488SOL    HW115393   9.503   5.940   5.027  4.3885 -2.6162  0.5707
 1488SOL    HW215394   9.534   5.993   5.178  1.0631 -0.1648  0.4575
 1489SOL     OW15395   8.307   1.279   2.044 -0.5833  0.0237  0.2487
 1489SOL    HW115396   8.381   1.242   2.101 -1.8769 -1.0749  1.2308
 1489SOL    HW215397   8.240   1.325   2.102  0.2153  2.6055 -0.8176
 1490SOL     OW15398   3.592   6.186   3.092 -0.1597 -0.2608 -0.5423
 1490SOL    HW115399   3.628   6.253   3.158 -0.3382 -0.9350  0.2474
 1490SOL    HW215400   3.668   6.146   3.041  0.4681 -3.1250  2.4842
 1491SOL     OW15401   8.033   9.761   3.252 -0.4055  0.5024  0.4895
 1491SOL    HW115402   8.106   9.825   3.277 -0.9431  1.3815 -0.1258
 1491SOL    HW215403   8.057   9.715   3.167  0.2820 -0.6244  1.2745
 1492SOL     OW15404   5.616   0.492   1.221 -0.0890  0.1505  0.1330
 1492SOL    HW115405   5.568   0.493   1.134  1.2528 -2.1146 -0.6691
 1492SOL    HW215406   5.663   0.405   1.233  1.8186  1.3628  1.9842
 1493SOL     OW15407   1.811   1.654   2.939 -0.1529  0.3444  0.4613
 1493SOL    HW115408   1.884   1.705   2.893 -0.2058  1.3181  1.4578
 1493SOL    HW215409   1.839   1.558   2.946 -0.2404  0.1317 -1.7810
 1494SOL     OW15410   4.086   4.861   1.730  0.1440 -0.4978  0.0513
 1494SOL    HW115411   3.997   4.873   1.775 -0.4095 -0.4107 -1.0614
 1494SOL    HW215412   4.092   4.769   1.691 -0.0387 -0.0210 -1.1259
 1495SOL     OW15413   1.081   5.161   2.157 -0.0454 -0.3367 -0.5581
 1495SOL    HW115414   1.111   5.155   2.253 -0.5101  2.8800 -0.1482
 1495SOL    HW215415   0.995   5.112   2.146 -0.1599 -0.4532  0.7519
 1496SOL     OW15416   2.221   6.139   0.184  0.2230 -0.1271 -0.3983
 1496SOL    HW115417   2.245   6.073   0.255  0.7169 -1.9862 -2.2439
 1496SOL    HW215418   2.132   6.116   0.145  0.9568 -0.4792 -1.9191
 1497SOL     OW15419   3.018   1.525   3.011  0.2058  0.1430 -0.1635
 1497SOL    HW115420   3.027   1.428   3.034 -0.2107 -0.5101 -2.6429
 1497SOL    HW215421   3.096   1.554   2.956  1.0730  1.6299  1.7742
 1498SOL     OW15422   4.804   3.598   1.437  0.2240 -0.1670  0.3243
 1498SOL    HW115423   4.722   3.562   1.394 -0.4968  0.8154  0.8588
 1498SOL    HW215424   4.825   3.545   1.520 -1.5476  1.3874  1.8064
 1499SOL     OW15425   8.734   0.591   3.728  0.2021  0.0523 -0.3334
 1499SOL    HW115426   8.668   0.565   3.798 -1.9174  2.4786 -1.3244
 1499SOL    HW215427   8.816   0.628   3.771  1.3863 -3.8806  0.9431
 1500SOL     OW15428   8.844   1.376   4.506 -0.0750  0.0227 -0.0100
 1500SOL    HW115429   8.804   1.286   4.487 -1.2151  0.7715 -1.3068
 1500SOL    HW215430   8.782   1.427   4.565  0.8658 -0.2563  1.2368
 1501SOL     OW15431   0.961   2.598   3.911 -0.9053  0.2139 -0.5818
 1501SOL    HW115432   0.918   2.659   3.844 -1.2926 -0.1031 -0.6278
 1501SOL    HW215433   0.971   2.646   3.998  1.0392  1.1388 -1.2937
 1502SOL     OW15434   2.594   6.319   4.881 -0.1169  0.1192 -0.2038
 1502SOL    HW115435   2.603   6.312   4.782 -0.0333  1.8421 -0.3283
 1502SOL    HW215436   2.514   6.374   4.904  0.7463  1.0386  0.6528
 1503SOL     OW15437   5.316   9.181   2.071  0.1814  0.3518  0.3203
 1503SOL    HW115438   5.266   9.267   2.078  0.8937  0.7739  0.3211
 1503SOL    HW215439   5.252   9.106   2.054 -0.1872  1.2527 -2.4213
 1504SOL     OW15440   0.792   5.381   2.163 -0.5521 -0.0226  0.5027
 1504SOL    HW115441   0.742   5.311   2.112  0.1634 -0.7309  0.7691
 1504SOL    HW215442   0.843   5.438   2.099  1.5292 -1.8307  0.4959
 1505SOL     OW15443   4.399   8.893   3.577  0.9726  0.0151  0.2621
 1505SOL    HW115444   4.497   8.877   3.581  0.9493  0.2464  2.0020
 1505SOL    HW215445   4.380   8.990   3.595  0.4199 -0.0404 -0.0041
 1506SOL     OW15446   8.423   1.995   1.207 -0.3687  0.0378 -0.4064
 1506SOL    HW115447   8.489   1.930   1.168  0.8564  0.2283  1.3032
 1506SOL    HW215448   8.433   1.997   1.306 -1.2265  1.9629 -0.3391
 1507SOL     OW15449   4.153   2.350   2.500  0.1557  0.5909 -0.2373
 1507SOL    HW115450   4.170   2.252   2.502 -2.0923  0.1346 -1.6052
 1507SOL    HW215451   4.105   2.377   2.584 -0.1123  0.3266 -0.3046
 1508SOL     OW15452   0.297   4.646   5.957 -0.1270 -0.1373  0.3775
 1508SOL    HW115453   0.215   4.642   6.014  1.2856 -1.6358  2.3750
 1508SOL    HW215454   0.321   4.741   5.939 -1.7102  0.3248  0.6591
 1509SOL     OW15455   4.011   5.412   5.533 -0.2976 -0.1218 -0.1130
 1509SOL    HW115456   4.092   5.456   5.494  0.2933  0.5578  1.8092
 1509SOL    HW215457   3.971   5.472   5.602 -2.1108 -0.7159 -0.6431
 1510SOL     OW15458   3.204   5.352   0.781  0.1067  0.3547 -0.2149
 1510SOL    HW115459   3.190   5.255   0.803  2.9850 -0.2816 -0.9645
 1510SOL    HW215460   3.273   5.390   0.842 -0.4239  1.7347 -0.4569
 1511SOL     OW15461   8.876   7.651   1.823 -0.0847  0.2883 -0.0760
 1511SOL    HW115462   8.792   7.648   1.768  1.2994 -0.8282 -2.2312
 1511SOL    HW215463   8.940   7.716   1.782  0.9428 -0.4974  0.2616
 1512SOL     OW15464   0.780   4.035   4.370 -0.8519 -0.4818  0.1124
 1512SOL    HW115465   0.870   4.056   4.332 -1.1446  0.6604  0.0319
 1512SOL    HW215466   0.759   4.099   4.444 -2.3410  0.4028 -1.0375
 1513SOL     OW15467   9.442   0.124   3.185 -0.8777  0.0929  0.4791
 1513SOL    HW115468   9.520   0.154   3.240  1.0820 -0.5591 -1.8393
 1513SOL    HW215469   9.385   0.203   3.162 -0.4511  0.7102  1.4946
 1514SOL     OW15470   6.310   7.868   1.882 -0.3992  0.5715  0.4173
 1514SOL    HW115471   6.372   7.942   1.857 -0.1428  0.4024  0.5591
 1514SOL    HW215472   6.244   7.854   1.808  0.9747 -0.5960 -0.6242
 1515SOL     OW15473   4.554   3.489   3.923  0.3915 -0.1605  0.2253
 1515SOL    HW115474   4.463   3.529   3.920  1.3086  1.9462 -1.1267
 1515SOL    HW215475   4.579   3.469   4.017 -1.2956 -0.3356  0.6461
 1516SOL     OW15476   0.099   5.634   5.309 -0.1966 -0.0687  0.2608
 1516SOL    HW115477   0.083   5.700   5.382 -2.3305  1.1602 -1.2859
 1516SOL    HW215478   0.146   5.679   5.233  1.8910 -1.3139  0.7584
 1517SOL     OW15479   7.077   1.728   2.887 -0.0142 -0.1090 -0.0592
 1517SOL    HW115480   7.133   1.809   2.904 -1.4204  0.9147 -0.2614
 1517SOL    HW215481   7.033   1.700   2.973  1.1028 -1.1648  0.1929
 1518SOL     OW15482   6.327   7.648   2.854 -0.4160 -0.1205  0.4617
 1518SOL    HW115483   6.351   7.559   2.892 -1.4502 -1.2343 -1.4332
 1518SOL    HW215484   6.267   7.636   2.775 -0.1306  2.2335 -0.1602
 1519SOL     OW15485   4.431   0.991   2.206 -0.1796  0.0603 -0.5063
 1519SOL    HW115486   4.452   1.085   2.234 -1.1975 -0.0398  0.6331
 1519SOL    HW215487   4.467   0.975   2.115 -1.9164  2.2748 -1.6397
 1520SOL     OW15488   2.437   1.408   3.063  0.1098  0.1546 -0.2717
 1520SOL    HW115489   2.475   1.320   3.090 -0.1621  0.5201  1.3628
 1520SOL    HW215490   2.346   1.418   3.101  0.3576  1.3769  0.0208
 1521SOL     OW15491   8.397   4.366   1.273 -0.5189 -0.4903 -0.4432
 1521SOL    HW115492   8.414   4.431   1.348 -1.4354 -1.4870  0.6536
 1521SOL    HW215493   8.438   4.401   1.189 -1.1908  1.6137  0.0764
 1522SOL     OW15494   4.315   3.008   3.442  0.4569  0.4000  0.1925
 1522SOL    HW115495   4.291   3.103   3.421  0.0830  0.8666  2.6418
 1522SOL    HW215496   4.414   3.001   3.455  0.8689 -0.1390 -2.7729
 1523SOL     OW15497   2.527   2.917   4.693 -0.0150 -0.0120  0.3001
 1523SOL    HW115498   2.573   2.828   4.700  0.8336  0.3219 -0.9052
 1523SOL    HW215499   2.440   2.914   4.743  0.0726 -1.4772  0.3740
 1524SOL     OW15500   3.509   8.195   4.444 -0.9342 -0.1116  0.1223
 1524SOL    HW115501   3.516   8.234   4.536 -2.0436  0.5330 -0.0542
 1524SOL    HW215502   3.583   8.129   4.429  0.8066  1.7228  0.5327
 1525SOL     OW15503   4.205   2.462   3.148 -0.3335 -0.1033  0.5012
 1525SOL    HW115504   4.108   2.463   3.122 -0.1933 -0.6633 -0.0422
 1525SOL    HW215505   4.223   2.383   3.207 -0.3228  0.3162  1.0695
 1526SOL     OW15506   9.596   2.388   3.797 -0.4926  0.1232  0.7419
 1526SOL    HW115507   9.601   2.479   3.756  2.0852 -1.1278 -1.9299
 1526SOL    HW215508   9.502   2.368   3.822 -1.1121  3.4959  1.3762
 1527SOL     OW15509   9.094   2.640   3.414  0.5268 -0.0412  0.2743
 1527SOL    HW115510   9.108   2.725   3.364  0.2115  0.2398  0.6599
 1527SOL    HW215511   9.003   2.605   3.396  0.1133  0.4879  1.2760
 1528SOL     OW15512   5.836   9.465   4.580  0.1972 -0.0052 -0.0212
 1528SOL    HW115513   5.782   9.539   4.541  0.1647 -1.0895 -2.1210
 1528SOL    HW215514   5.807   9.447   4.674 -2.5208  0.0079 -0.8263
 1529SOL     OW15515   0.611   6.125   5.505  0.3933 -0.0908 -0.2416
 1529SOL    HW115516   0.701   6.109   5.546  0.1959 -0.6188 -0.0179
 1529SOL    HW215517   0.622   6.182   5.423  0.8495  0.4505  0.1940
 1530SOL     OW15518   9.512   9.425   1.764  0.2198 -1.0742  0.1238
 1530SOL    HW115519   9.464   9.511   1.746  0.6917 -0.3075  2.4204
 1530SOL    HW215520   9.543   9.386   1.677 -3.3195 -0.9113 -1.2592
 1531SOL     OW15521   6.405   9.585   4.674  0.4302  0.3066 -0.0966
 1531SOL    HW115522   6.379   9.503   4.725  0.9086 -0.6378 -1.3304
 1531SOL    HW215523   6.350   9.663   4.704  1.5862  0.0697  2.7285
 1532SOL     OW15524   2.539   4.995   6.611 -0.2383  0.0059 -0.7769
 1532SOL    HW115525   2.487   4.986   6.526  0.3123 -1.2820 -0.9932
 1532SOL    HW215526   2.620   5.052   6.595 -0.6835  0.6029 -0.8680
 1533SOL     OW15527   0.286   2.368   4.009 -0.4811  0.4343 -0.3846
 1533SOL    HW115528   0.268   2.280   3.965  0.0829  1.6024 -3.0098
 1533SOL    HW215529   0.204   2.425   4.006 -0.0188  1.0580 -1.1994
 1534SOL     OW15530   2.595   5.760   0.112  0.2454 -0.3600 -0.2758
 1534SOL    HW115531   2.667   5.692   0.126 -2.3869 -2.8640  1.6796
 1534SOL    HW215532   2.552   5.781   0.200 -0.3729  2.3353 -1.1764
 1535SOL     OW15533   2.692   4.897   0.638 -0.0647 -0.2409  0.0010
 1535SOL    HW115534   2.785   4.882   0.671  0.4924  1.0846 -0.9202
 1535SOL    HW215535   2.631   4.915   0.715  0.3880 -1.3525  0.6266
 1536SOL     OW15536   9.381   2.896   3.850  0.0858 -0.0252  0.0127
 1536SOL    HW115537   9.384   2.800   3.876  1.4573 -0.1603 -0.6180
 1536SOL    HW215538   9.352   2.904   3.755 -1.8204  0.2959  0.6075
 1537SOL     OW15539   1.024   4.450   4.782 -0.1055 -0.2650  0.2196
 1537SOL    HW115540   1.121   4.431   4.799 -0.4419 -0.9689  1.3550
 1537SOL    HW215541   1.003   4.432   4.686  0.7754 -0.5838  0.0828
 1538SOL     OW15542   3.871   9.700   3.586 -0.2057 -0.1440  0.9107
 1538SOL    HW115543   3.915   9.730   3.670 -0.7414 -0.0826  1.1684
 1538SOL    HW215544   3.938   9.700   3.512  0.0791  0.5498  1.1642
 1539SOL     OW15545   8.296   5.910   1.759  0.1777 -0.7800  0.3959
 1539SOL    HW115546   8.267   5.815   1.764 -2.1139 -0.1893 -0.8454
 1539SOL    HW215547   8.388   5.915   1.721  0.9622 -2.5705  1.9810
 1540SOL     OW15548   4.850   7.244   1.918 -0.2315  0.2816  0.0107
 1540SOL    HW115549   4.859   7.297   1.834  0.9203  0.8553  0.4857
 1540SOL    HW215550   4.828   7.304   1.994  0.2424 -0.0279  0.3991
 1541SOL     OW15551   6.976   8.427   5.450  0.2947 -0.7492 -0.5165
 1541SOL    HW115552   6.924   8.353   5.406 -1.0836 -0.2364  0.2306
 1541SOL    HW215553   6.914   8.503   5.469  1.4196  0.0159  0.0440
 1542SOL     OW15554   2.245   6.457   0.770  0.1458  0.5123 -0.3674
 1542SOL    HW115555   2.329   6.474   0.718  0.0801  1.0926 -0.2891
 1542SOL    HW215556   2.223   6.538   0.824  0.3948 -0.1800  0.8169
 1543SOL     OW15557   1.205   4.051   0.718  0.0776 -0.3569  0.4728
 1543SOL    HW115558   1.261   4.126   0.754 -0.3546 -0.9066  2.3073
 1543SOL    HW215559   1.110   4.066   0.744 -0.0697 -1.3361  0.4797
 1544SOL     OW15560   8.304   1.991   4.828  0.4620 -0.1643 -0.1346
 1544SOL    HW115561   8.359   2.074   4.835  0.6679 -0.4186  1.6405
 1544SOL    HW215562   8.250   1.980   4.912 -0.0047 -1.5202 -0.5942
 1545SOL     OW15563   0.819   7.274   3.306 -0.6108  0.2014 -0.0368
 1545SOL    HW115564   0.742   7.212   3.292 -1.5743  1.1552  0.8781
 1545SOL    HW215565   0.883   7.233   3.371 -1.7890  0.5908  1.4118
 1546SOL     OW15566   7.409   1.978   3.247  0.4045  0.0390 -0.2354
 1546SOL    HW115567   7.335   1.923   3.285  0.1634 -0.4003 -1.3120
 1546SOL    HW215568   7.497   1.932   3.263  0.2004 -0.7074 -1.1800
 1547SOL     OW15569   0.718   4.255   6.116 -0.1109  0.2802 -0.1744
 1547SOL    HW115570   0.762   4.221   6.033  1.0221 -0.0542  0.5531
 1547SOL    HW215571   0.674   4.342   6.097 -0.4906 -0.1533 -1.3094
 1548SOL     OW15572   3.119   5.619   1.425  0.3882  0.1704  0.2384
 1548SOL    HW115573   3.027   5.595   1.395  0.6570 -1.6556  0.8044
 1548SOL    HW215574   3.141   5.711   1.395 -1.6390  0.6334  0.1192
 1549SOL     OW15575   9.938   6.573   0.488  0.3186 -0.0000  0.1134
 1549SOL    HW115576   9.854   6.525   0.461  0.4172  0.2220 -0.5912
 1549SOL    HW215577   9.925   6.613   0.579 -1.2105  2.1104 -0.9898
 1550SOL     OW15578   8.143   0.083   5.570  0.3447 -0.0786 -0.1163
 1550SOL    HW115579   8.228   0.134   5.564  0.2712 -0.1970 -2.9780
 1550SOL    HW215580   8.156   0.002   5.627  1.6167  0.8679  0.9545
 1551SOL     OW15581   9.135   6.725   1.192  0.0657  0.0988 -0.2206
 1551SOL    HW115582   9.114   6.823   1.196 -1.6378 -0.2292 -0.7400
 1551SOL    HW215583   9.066   6.678   1.137  2.3441 -1.0049 -2.2443
 1552SOL     OW15584   1.260   4.428   5.720 -0.5596 -0.0567  0.1362
 1552SOL    HW115585   1.243   4.359   5.790  0.7403 -0.0218  0.4960
 1552SOL    HW215586   1.253   4.387   5.629 -1.2515 -0.3269  0.3081
 1553SOL     OW15587   2.387   1.017   2.262  0.1217  0.3882 -0.2986
 1553SOL    HW115588   2.362   1.091   2.199 -1.9507  0.3998  0.5184
 1553SOL    HW215589   2.307   0.988   2.313  1.6418 -0.1217  1.8408
 1554SOL     OW15590   2.379   3.534   0.659 -0.4863  0.2796 -0.0741
 1554SOL    HW115591   2.428   3.618   0.635 -2.1644  1.4481  0.4585
 1554SOL    HW215592   2.282   3.555   0.674 -0.8144 -1.6473  0.7002
 1555SOL     OW15593   5.151   6.267   2.046  0.3111  0.4137 -0.4159
 1555SOL    HW115594   5.131   6.364   2.065 -1.2885  0.1145 -0.4899
 1555SOL    HW215595   5.249   6.256   2.029  0.6806  1.8414  0.6805
 1556SOL     OW15596   1.369   1.170   4.324 -0.3749 -0.3438 -0.2282
 1556SOL    HW115597   1.414   1.217   4.400  1.3730  0.2826 -1.5883
 1556SOL    HW215598   1.389   1.072   4.328  2.7890  0.1702 -1.8510
 1557SOL     OW15599   1.680   1.548   3.501  0.2124  0.3600 -0.1159
 1557SOL    HW115600   1.706   1.486   3.427 -0.6256  1.3839 -1.2837
 1557SOL    HW215601   1.703   1.642   3.475 -1.6756  0.9194  0.1936
 1558SOL     OW15602   4.638   9.909   2.658  0.0562  0.7621  0.3058
 1558SOL    HW115603   4.581   9.859   2.723 -0.5923 -0.5248 -1.2334
 1558SOL    HW215604   4.591   9.918   2.571  1.9403  0.1708 -0.8204
 1559SOL     OW15605   9.437   3.858   0.354  0.1518 -0.0684  0.2174
 1559SOL    HW115606   9.475   3.919   0.424  0.4279 -0.3246  0.2961
 1559SOL    HW215607   9.410   3.772   0.397  0.3566 -0.2400  0.0056
 1560SOL     OW15608   7.135   0.009   5.074 -0.5177  0.5932  0.4794
 1560SOL    HW115609   7.105   0.067   4.999 -0.3439 -0.5055 -0.4546
 1560SOL    HW215610   7.087  -0.078   5.070 -0.2072  0.3714  1.4039
 1561SOL     OW15611   7.167   7.683   4.178  0.5812 -0.1220  0.0234
 1561SOL    HW115612   7.196   7.602   4.127  1.9724 -1.7049  3.1829
 1561SOL    HW215613   7.244   7.745   4.190 -0.0363  0.8235 -0.7987
 1562SOL     OW15614   1.090   0.575   1.933 -0.2180 -0.3826  0.2541
 1562SOL    HW115615   1.120   0.621   1.849  1.4386 -1.2053  0.3851
 1562SOL    HW215616   1.080   0.477   1.916  1.4116 -0.7534  1.3458
 1563SOL     OW15617   3.259   1.071   4.447 -0.4106 -0.4032  0.1045
 1563SOL    HW115618   3.262   1.050   4.349 -0.5914  0.9155 -0.1863
 1563SOL    HW215619   3.167   1.101   4.472 -0.4698 -1.1137  0.7649
 1564SOL     OW15620   6.066   9.949   4.693  0.9154 -0.0494  0.0511
 1564SOL    HW115621   6.013  10.034   4.692  1.1351  0.1098  0.9109
 1564SOL    HW215622   6.007   9.873   4.719  0.2729 -0.4976 -2.5748
 1565SOL     OW15623   9.700   3.664   0.911  0.0801 -0.6310 -0.0505
 1565SOL    HW115624   9.626   3.723   0.876 -0.6407 -1.5187 -0.0294
 1565SOL    HW215625   9.760   3.639   0.835 -0.5066 -1.1485 -0.3514
 1566SOL     OW15626   3.264   4.325   4.165 -0.2076  0.0375 -0.5833
 1566SOL    HW115627   3.197   4.371   4.106  0.9155  2.3804 -0.0883
 1566SOL    HW215628   3.343   4.297   4.111 -0.8676 -1.3006 -0.8749
 1567SOL     OW15629   0.760   5.389   0.531 -0.1047  0.2231  0.2252
 1567SOL    HW115630   0.732   5.440   0.613 -0.9632  1.7082 -0.9642
 1567SOL    HW215631   0.681   5.339   0.494 -0.6161  2.2741 -1.5964
 1568SOL     OW15632   1.416   1.283   3.377 -0.4128  0.1262  0.3109
 1568SOL    HW115633   1.449   1.343   3.451  0.4028 -0.0389  0.0890
 1568SOL    HW215634   1.429   1.188   3.403 -1.3878  0.0513  0.5177
 1569SOL     OW15635   3.509   8.984   4.559 -0.4195  0.2081 -0.0534
 1569SOL    HW115636   3.605   8.995   4.584 -1.1995  1.9363  2.2437
 1569SOL    HW215637   3.494   9.023   4.468  1.4042 -1.8151 -1.2938
 1570SOL     OW15638   6.114   8.900   4.289 -0.0372  0.1628 -0.1588
 1570SOL    HW115639   6.029   8.875   4.243 -0.3813  0.3744  0.3551
 1570SOL    HW215640   6.157   8.819   4.328 -1.4813  0.4076  2.0720
 1571SOL     OW15641   1.933   7.216   5.379  0.3256 -0.1048 -0.6347
 1571SOL    HW115642   2.029   7.228   5.404  0.2204 -2.0466  0.8556
 1571SOL    HW215643   1.876   7.268   5.442  0.3820  0.7191 -1.2650
 1572SOL     OW15644   1.526   7.808   5.921  0.4859 -0.2091  0.0423
 1572SOL    HW115645   1.518   7.858   5.834  0.5126 -1.7562 -0.8690
 1572SOL    HW215646   1.453   7.838   5.983 -1.5618 -1.3600 -1.7076
 1573SOL     OW15647   2.303   7.220   0.257  0.2109 -0.1342  0.4723
 1573SOL    HW115648   2.329   7.162   0.180  0.0922 -0.5726  0.7584
 1573SOL    HW215649   2.328   7.175   0.343  1.2153  0.7686  0.6794
 1574SOL     OW15650   9.868   5.177   6.316  0.0457  0.0801  0.1876
 1574SOL    HW115651   9.853   5.270   6.283 -3.9704 -1.0684 -1.5475
 1574SOL    HW215652   9.835   5.169   6.410  0.3865  0.4077  0.3334
 1575SOL     OW15653   9.420   7.072   1.172  0.6687 -0.6204  0.3238
 1575SOL    HW115654   9.421   6.999   1.103 -1.2551  0.9604 -1.4781
 1575SOL    HW215655   9.365   7.043   1.250 -1.7554 -0.4603 -1.2340
 1576SOL     OW15656   0.582   3.620   3.761 -0.3784 -0.3676  0.2543
 1576SOL    HW115657   0.553   3.564   3.839  0.6483  0.7559  1.4877
 1576SOL    HW215658   0.507   3.627   3.696 -1.5094 -0.7804  1.4752
 1577SOL     OW15659   1.685   9.773   3.987  0.4312  0.3239  0.2533
 1577SOL    HW115660   1.591   9.747   3.964 -0.0143  1.9736  0.1346
 1577SOL    HW215661   1.745   9.695   3.973 -0.7648 -0.4600 -0.6713
 1578SOL     OW15662   3.452   4.429   0.855 -0.8701  0.1073 -0.2474
 1578SOL    HW115663   3.544   4.415   0.818 -0.7399  1.3186 -0.3936
 1578SOL    HW215664   3.415   4.341   0.886 -0.2453 -0.6213 -1.5338
 1579SOL     OW15665   1.290   4.438   4.598  0.2388 -0.1490 -0.1898
 1579SOL    HW115666   1.198   4.439   4.559  0.2424 -0.9721 -0.2328
 1579SOL    HW215667   1.321   4.343   4.608  1.1481  0.1287 -0.3272
 1580SOL     OW15668   4.219   0.980   4.244 -0.3227 -0.6635  0.2339
 1580SOL    HW115669   4.197   1.022   4.156 -2.0870 -0.2321  0.8676
 1580SOL    HW215670   4.304   1.019   4.279  0.6838 -1.2293 -1.5204
 1581SOL     OW15671   0.082   6.599   2.808  0.0751 -0.3512 -0.2205
 1581SOL    HW115672   0.149   6.640   2.869  0.3913 -0.6282 -0.3783
 1581SOL    HW215673  -0.008   6.639   2.825  0.1717 -0.3910  0.3873
 1582SOL     OW15674   4.225   9.626   2.816 -0.1676  0.1748  0.1827
 1582SOL    HW115675   4.270   9.555   2.762  0.3116  0.2847  0.4283
 1582SOL    HW215676   4.145   9.660   2.767 -0.6017 -0.7810  0.2228
 1583SOL     OW15677   4.069   0.403   1.850 -0.8285 -0.0214 -0.1368
 1583SOL    HW115678   3.993   0.395   1.786 -1.0954 -0.6050  0.2448
 1583SOL    HW215679   4.151   0.363   1.810 -1.0976 -0.7734  0.0401
 1584SOL     OW15680   8.021   5.869   3.733 -0.1002  0.0739 -0.8707
 1584SOL    HW115681   8.083   5.866   3.654 -0.1408  0.4247 -0.9179
 1584SOL    HW215682   7.926   5.861   3.702 -0.2364  2.0886 -1.0403
 1585SOL     OW15683   9.208   4.235   4.479  0.0867 -0.5787 -0.0548
 1585SOL    HW115684   9.167   4.161   4.531  0.3983  0.2893  1.4713
 1585SOL    HW215685   9.305   4.217   4.464  0.4580  0.0905  1.4265
 1586SOL     OW15686   9.162   4.784   6.378 -0.3988 -0.3457 -0.5308
 1586SOL    HW115687   9.250   4.738   6.369  0.6042  1.3708  0.1718
 1586SOL    HW215688   9.165   4.871   6.328 -1.9291 -0.6064 -1.0803
 1587SOL     OW15689   2.253   7.983   6.285 -0.4604 -0.6548  0.1266
 1587SOL    HW115690   2.171   7.932   6.311 -1.8262  0.4756 -1.7993
 1587SOL    HW215691   2.268   7.973   6.186 -0.4994  2.2725 -0.2190
 1588SOL     OW15692   6.901   1.317   4.722 -0.0039 -0.1430 -0.0226
 1588SOL    HW115693   6.977   1.363   4.768 -0.5121  0.0859  0.5948
 1588SOL    HW215694   6.915   1.218   4.725 -0.8086 -0.2170  2.0186
 1589SOL     OW15695   2.498   3.216   0.578  0.2927  0.2804  0.0068
 1589SOL    HW115696   2.460   3.223   0.486  0.0218 -0.9132  0.0102
 1589SOL    HW215697   2.515   3.307   0.615  1.2466  0.7662 -1.5645
 1590SOL     OW15698   5.221   0.661   4.817 -0.5460 -0.1697 -0.1908
 1590SOL    HW115699   5.279   0.580   4.815  0.9420  0.8649  0.4139
 1590SOL    HW215700   5.125   0.633   4.823 -0.1128 -1.8859 -0.9097
 1591SOL     OW15701   9.992   2.458   5.107 -0.6118 -0.0415  0.7548
 1591SOL    HW115702  10.075   2.429   5.155 -1.7375  0.6385  3.1473
 1591SOL    HW215703  10.015   2.532   5.044  0.8159 -0.7030  0.4706
 1592SOL     OW15704   3.734   9.947   1.400  0.1256 -0.8667 -0.5716
 1592SOL    HW115705   3.745   9.898   1.487  0.5916 -1.8250 -1.1567
 1592SOL    HW215706   3.740   9.882   1.325 -1.3222 -0.1969 -1.2833
 1593SOL     OW15707   8.904   4.667   0.521 -0.5470  0.3989 -0.0021
 1593SOL    HW115708   8.971   4.603   0.558  0.0789  0.9094 -0.2370
 1593SOL    HW215709   8.902   4.659   0.421 -0.8071  0.4163  0.0007
 1594SOL     OW15710   5.515   7.978   2.795  0.0724 -0.4100  0.4243
 1594SOL    HW115711   5.441   7.975   2.728  0.2373  2.6145  0.0060
 1594SOL    HW215712   5.598   7.939   2.756 -0.3249 -0.3791 -0.4694
 1595SOL     OW15713   4.765   5.397   2.798  0.3850 -0.3213 -0.4972
 1595SOL    HW115714   4.704   5.321   2.776  0.3504 -0.0047 -1.5399
 1595SOL    HW215715   4.825   5.372   2.874 -0.7589 -0.7858  0.2555
 1596SOL     OW15716   0.228   2.149   3.736  0.3126 -0.6270 -0.8560
 1596SOL    HW115717   0.259   2.094   3.813 -1.1043 -0.1019  0.0974
 1596SOL    HW215718   0.154   2.102   3.688 -2.2423  1.2419  1.1188
 1597SOL     OW15719   4.981   9.491   4.801  0.6425 -0.0719 -0.6831
 1597SOL    HW115720   5.004   9.439   4.884  0.2504 -0.5349 -0.8634
 1597SOL    HW215721   4.980   9.430   4.722  0.0419  0.1831 -0.8734
 1598SOL     OW15722   3.267   9.663   3.075  0.1700  0.2397  0.0945
 1598SOL    HW115723   3.310   9.715   3.001 -1.0851 -1.0791 -1.5851
 1598SOL    HW215724   3.324   9.584   3.098 -0.7537 -0.8492 -1.3222
 1599SOL     OW15725   8.351   5.212   1.456 -0.1011  0.3636  0.0026
 1599SOL    HW115726   8.318   5.156   1.532 -0.8364 -0.7367 -1.1003
 1599SOL    HW215727   8.306   5.301   1.459  0.3472  0.5558  1.2199
 1600SOL     OW15728   1.528   5.750   3.485 -0.0476  0.1758 -0.2217
 1600SOL    HW115729   1.582   5.753   3.569 -0.3810 -1.4358  0.0530
 1600SOL    HW215730   1.530   5.840   3.441 -0.0776  1.0986  1.6374
 1601SOL     OW15731   9.584   4.996   6.237  0.0350  0.2616 -0.3224
 1601SOL    HW115732   9.610   4.900   6.247  1.5701  0.7484  0.5429
 1601SOL    HW215733   9.527   5.024   6.313 -0.7095 -0.0605 -0.7603
 1602SOL     OW15734   8.275   9.376   3.225 -0.8207  0.2315 -0.2207
 1602SOL    HW115735   8.250   9.331   3.140  3.1452 -0.9943 -0.8033
 1602SOL    HW215736   8.215   9.343   3.299 -1.2729 -2.1727 -1.6159
 1603SOL     OW15737   5.262   4.003   0.134  0.2078 -0.3678  0.3429
 1603SOL    HW115738   5.164   3.990   0.121 -0.1063  2.1649  0.0954
 1603SOL    HW215739   5.287   4.098   0.117  2.6078 -0.8095  1.0975
 1604SOL     OW15740   0.048   5.853   1.983  0.0227  0.3333  0.6385
 1604SOL    HW115741   0.060   5.768   2.035 -1.2560 -0.1538  0.1522
 1604SOL    HW215742   0.073   5.837   1.888  0.0934  0.5902  0.6150
 1605SOL     OW15743   7.901   8.999   4.926 -0.7491  0.2206  0.4251
 1605SOL    HW115744   7.908   9.064   4.850 -0.2799  0.5354  0.7346
 1605SOL    HW215745   7.992   8.983   4.964 -0.3854 -2.8805 -1.5375
 1606SOL     OW15746   2.393   5.757   4.403 -0.5233  0.4115 -0.0354
 1606SOL    HW115747   2.336   5.762   4.321 -0.3707 -1.5477 -0.2792
 1606SOL    HW215748   2.340   5.721   4.479 -0.4447  1.4831  0.5353
 1607SOL     OW15749   8.853   1.210   2.327 -0.2778  0.2571 -0.1505
 1607SOL    HW115750   8.872   1.280   2.397 -2.0992 -1.6024  2.3266
 1607SOL    HW215751   8.776   1.240   2.271 -0.7353  0.5050  0.5865
 1608SOL     OW15752   4.984   0.522   4.770 -0.2728  0.5364  0.4088
 1608SOL    HW115753   4.893   0.550   4.738  0.0651  0.7934 -0.3361
 1608SOL    HW215754   4.992   0.423   4.765 -0.8989  0.4194  1.5205
 1609SOL     OW15755   9.821   0.998   4.571  0.4928 -0.1124  0.0398
 1609SOL    HW115756   9.815   0.936   4.650  0.8984  0.3821  0.4607
 1609SOL    HW215757   9.911   1.041   4.570 -0.4428  1.9397  0.8460
 1610SOL     OW15758   2.432   5.192   4.730 -0.0311 -0.3408  0.1122
 1610SOL    HW115759   2.494   5.270   4.740 -1.7194  1.0189  0.2619
 1610SOL    HW215760   2.405   5.183   4.634  1.3058 -1.6685 -0.1577
 1611SOL     OW15761   8.620   6.371   3.021  0.5888 -0.3130  0.1705
 1611SOL    HW115762   8.544   6.434   3.010  1.3108  0.6686  0.8042
 1611SOL    HW215763   8.585   6.281   3.049 -0.5482 -0.5758 -1.9838
 1612SOL     OW15764   8.143   6.912   3.267 -0.5044 -0.2462 -0.2381
 1612SOL    HW115765   8.177   6.971   3.193 -0.8699 -0.6099 -0.7002
 1612SOL    HW215766   8.216   6.850   3.295 -0.0152  0.6282  0.4665
 1613SOL     OW15767   9.169   4.774   6.001  0.2672 -0.1027  0.3026
 1613SOL    HW115768   9.102   4.783   6.075 -0.4095  0.4672 -0.3821
 1613SOL    HW215769   9.204   4.864   5.976  0.5271 -0.2984 -0.0485
 1614SOL     OW15770   5.838   9.855   3.760 -0.1921  0.4740 -0.2875
 1614SOL    HW115771   5.807   9.760   3.761 -1.2091  0.7585 -1.9088
 1614SOL    HW215772   5.849   9.888   3.854 -0.5464 -1.0096  0.2901
 1615SOL     OW15773   3.530   6.949   4.178 -0.0935 -0.3039  0.0342
 1615SOL    HW115774   3.604   7.016   4.173 -0.4071  0.0436  0.0196
 1615SOL    HW215775   3.555   6.867   4.125 -0.4400  0.5211 -1.4489
 1616SOL     OW15776   9.016   3.322   5.002 -0.1226  0.5356  0.5897
 1616SOL    HW115777   9.050   3.243   4.951  2.6067  1.9376  0.1492
 1616SOL    HW215778   8.944   3.367   4.949  0.7161  0.3211 -0.7585
 1617SOL     OW15779   3.611   6.750   1.255 -0.3273  0.2107  0.2183
 1617SOL    HW115780   3.531   6.696   1.229  0.0678  0.3461 -1.3530
 1617SOL    HW215781   3.647   6.797   1.174  0.5741  1.1754  1.1588
 1618SOL     OW15782   9.374   1.940   2.890  0.5311  0.0524 -0.4627
 1618SOL    HW115783   9.372   1.906   2.984  1.6613  1.1172 -0.0343
 1618SOL    HW215784   9.389   1.863   2.828  3.4140 -0.2509  0.5213
 1619SOL     OW15785   4.489   3.978   2.840 -0.1541 -0.2243  0.4428
 1619SOL    HW115786   4.484   4.052   2.906 -0.0106  0.3248 -0.1570
 1619SOL    HW215787   4.581   3.939   2.840  0.3212  0.8609 -0.5929
 1620SOL     OW15788   9.549   2.825   5.441  0.5503  0.0754  0.1632
 1620SOL    HW115789   9.571   2.830   5.538  0.9822  1.2949  0.0123
 1620SOL    HW215790   9.619   2.873   5.388  1.3350 -2.2190 -0.9173
 1621SOL     OW15791   9.435   9.564   4.283  0.0720 -0.3432 -0.1069
 1621SOL    HW115792   9.478   9.650   4.310 -1.1162  0.0020  0.7511
 1621SOL    HW215793   9.341   9.562   4.318  0.5365 -2.5816  1.0735
 1622SOL     OW15794   7.187   7.911   3.372  0.0432  0.7112  0.3722
 1622SOL    HW115795   7.250   7.881   3.300 -0.5488 -0.3144  0.2647
 1622SOL    HW215796   7.224   7.885   3.462 -0.0873  0.3512  0.3243
 1623SOL     OW15797   8.371   8.675   2.132  0.7228 -0.1875  0.5862
 1623SOL    HW115798   8.451   8.733   2.117 -0.9080  2.4361  1.7849
 1623SOL    HW215799   8.362   8.656   2.229 -0.8253  0.5801  0.5988
 1624SOL     OW15800   0.017   0.394   2.197 -0.3285  0.3066  0.1598
 1624SOL    HW115801  -0.043   0.471   2.177  0.8391  1.0126 -0.6463
 1624SOL    HW215802   0.110   0.427   2.212  0.0898 -0.8990  0.2761
 1625SOL     OW15803   8.636   1.474   3.013 -0.2503  0.0041  0.1599
 1625SOL    HW115804   8.550   1.424   2.999 -0.5489  0.8986 -1.3837
 1625SOL    HW215805   8.713   1.411   2.999 -0.6452 -0.9674  2.2301
 1626SOL     OW15806   9.054   3.449   0.501 -0.2625 -0.6104 -0.3503
 1626SOL    HW115807   9.008   3.435   0.413 -1.5665  0.5864  0.1288
 1626SOL    HW215808   9.151   3.468   0.485 -0.6912  0.5935 -1.5853
 1627SOL     OW15809   7.894   3.946   0.798  0.1072  0.0449 -0.3452
 1627SOL    HW115810   7.858   3.978   0.886 -1.7747  0.9985 -1.4327
 1627SOL    HW215811   7.968   3.881   0.814 -0.2630  0.1550  1.9538
 1628SOL     OW15812   2.940   5.847   5.518 -0.2634  0.2447 -0.1318
 1628SOL    HW115813   2.842   5.867   5.508  0.0546  0.8002 -2.2401
 1628SOL    HW215814   2.956   5.750   5.500 -0.3095  0.3206 -0.5731
 1629SOL     OW15815   0.136   5.373   0.690  0.0576  0.0605 -0.1434
 1629SOL    HW115816   0.053   5.429   0.689 -0.4838 -0.6552  1.9489
 1629SOL    HW215817   0.148   5.330   0.600 -1.3021  0.9362 -0.7660
 1630SOL     OW15818   3.306   6.082   2.333  0.2567  0.0314  0.7436
 1630SOL    HW115819   3.334   6.178   2.334 -0.3513  0.2110  0.6300
 1630SOL    HW215820   3.348   6.035   2.411  1.0296  0.2454  0.4679
 1631SOL     OW15821   3.754   5.725   1.063 -0.2082  0.5662  0.3401
 1631SOL    HW115822   3.689   5.667   1.113 -2.4554  0.8298 -2.1689
 1631SOL    HW215823   3.704   5.785   1.001  2.3571  2.2526 -0.1541
 1632SOL     OW15824   3.774   1.420   3.925 -0.0672  0.4246  0.5002
 1632SOL    HW115825   3.694   1.410   3.865 -0.6251 -0.5421  1.3750
 1632SOL    HW215826   3.766   1.506   3.975 -0.6780  0.2398  0.7342
 1633SOL     OW15827   3.424   8.732   4.895  0.3722  0.6165 -0.6496
 1633SOL    HW115828   3.336   8.702   4.935  0.3193 -1.4021 -2.2025
 1633SOL    HW215829   3.419   8.829   4.873 -1.1380  0.7454  0.1532
 1634SOL     OW15830   5.004   1.430   2.939 -0.0238 -0.2020  0.2790
 1634SOL    HW115831   4.909   1.447   2.913 -0.5590 -2.3210  0.7172
 1634SOL    HW215832   5.006   1.382   3.026  1.3892 -1.4692 -0.4370
 1635SOL     OW15833   3.181   4.628   3.401  0.0600 -0.6157 -0.1952
 1635SOL    HW115834   3.280   4.615   3.391  0.1092 -0.8976  0.6092
 1635SOL    HW215835   3.163   4.721   3.434  0.2390 -1.4219  2.2933
 1636SOL     OW15836   3.290   4.575   0.003  0.0108 -0.1023 -0.6053
 1636SOL    HW115837   3.356   4.647  -0.017 -0.0803  0.3532  0.7197
 1636SOL    HW215838   3.210   4.613   0.048 -0.4703 -0.8909 -0.7711
 1637SOL     OW15839   4.910   1.111   2.032 -0.1308 -0.0958  0.4263
 1637SOL    HW115840   4.853   1.171   1.974 -1.4247 -0.9919  0.7592
 1637SOL    HW215841   4.968   1.054   1.973  0.9223  1.2656  0.0980
 1638SOL     OW15842   0.826   6.282   2.425 -0.0553  0.4936 -0.4734
 1638SOL    HW115843   0.846   6.231   2.508  0.8985  0.5451 -0.6597
 1638SOL    HW215844   0.912   6.305   2.379 -0.4736  2.0343 -0.5243
 1639SOL     OW15845   2.134   9.081   0.997 -0.3181  0.7064 -0.7123
 1639SOL    HW115846   2.051   9.091   1.053  1.4614 -1.5501  2.5087
 1639SOL    HW215847   2.108   9.073   0.901 -3.6957  1.9031  0.0222
 1640SOL     OW15848   3.635   6.062   5.827 -0.2604 -0.4066  0.4037
 1640SOL    HW115849   3.695   6.110   5.762 -0.0663  1.5252  1.9504
 1640SOL    HW215850   3.692   6.014   5.895 -0.4657 -1.3326 -0.0743
 1641SOL     OW15851   0.079   5.853   0.901  0.1376  0.6208 -0.3300
 1641SOL    HW115852   0.087   5.928   0.836 -2.2663  0.7008 -0.5950
 1641SOL    HW215853   0.139   5.778   0.874  1.2213  1.7458 -1.0723
 1642SOL     OW15854   8.747   4.946   4.783 -0.0748 -0.5504  0.8128
 1642SOL    HW115855   8.740   5.045   4.768  0.1978 -0.6929 -0.2828
 1642SOL    HW215856   8.842   4.917   4.767 -0.0847 -0.9452  1.4525
 1643SOL     OW15857   2.349   3.588   2.212  0.2928 -0.6570 -0.1599
 1643SOL    HW115858   2.345   3.553   2.119 -0.8684  0.3385 -0.5028
 1643SOL    HW215859   2.282   3.662   2.223 -0.2893 -1.4274  1.7388
 1644SOL     OW15860   3.374   5.233   4.455  0.1747 -0.4787  0.0340
 1644SOL    HW115861   3.393   5.324   4.491 -0.7479  0.1988 -1.1431
 1644SOL    HW215862   3.330   5.177   4.525  1.7811 -0.3915  1.1205
 1645SOL     OW15863   7.690   5.967   3.782 -0.3002 -0.4313 -0.3474
 1645SOL    HW115864   7.727   5.877   3.761  0.3092 -0.1123 -0.6382
 1645SOL    HW215865   7.631   5.961   3.863 -0.5843 -1.1647 -0.6070
 1646SOL     OW15866   9.725   5.113   5.633  0.1052 -0.6773 -0.5051
 1646SOL    HW115867   9.716   5.167   5.549  1.1318 -0.3670 -0.4354
 1646SOL    HW215868   9.637   5.108   5.679  0.0210  1.0988 -0.4310
 1647SOL     OW15869   5.828   0.142   0.752 -0.4132  0.1255  0.0450
 1647SOL    HW115870   5.781   0.073   0.807  0.8387  0.1778  1.2017
 1647SOL    HW215871   5.922   0.151   0.782 -0.4837  2.1929 -0.2349
 1648SOL     OW15872   3.365   7.345   0.645  0.0609  0.0672  0.6897
 1648SOL    HW115873   3.332   7.415   0.708  0.2030  0.4492  0.3516
 1648SOL    HW215874   3.349   7.376   0.551 -1.4578 -1.1301  0.5507
 1649SOL     OW15875   8.233   2.963   3.174  0.5331  0.3875 -0.2065
 1649SOL    HW115876   8.197   2.989   3.263  2.2873  1.3724  0.2333
 1649SOL    HW215877   8.199   3.026   3.104 -1.8000 -1.0884 -0.4613
 1650SOL     OW15878   9.438   4.589   5.301  0.2392  0.1939  0.3939
 1650SOL    HW115879   9.344   4.558   5.288  0.2835  0.1147  0.2574
 1650SOL    HW215880   9.439   4.686   5.324  0.2557  0.8894 -2.2861
 1651SOL     OW15881   2.559   6.235   0.977  0.4331 -0.1732  0.0920
 1651SOL    HW115882   2.483   6.228   0.913  0.1057 -0.3251  0.4906
 1651SOL    HW215883   2.641   6.195   0.937  0.0722 -0.8380  0.0129
 1652SOL     OW15884   3.033   7.491   1.205  0.6649 -0.1928 -0.0005
 1652SOL    HW115885   3.060   7.571   1.258 -0.2980 -0.3282  0.7139
 1652SOL    HW215886   3.113   7.432   1.192  0.5540 -1.1466  3.0521
 1653SOL     OW15887   3.529   0.374   4.134 -0.2266  0.0750 -0.0899
 1653SOL    HW115888   3.615   0.322   4.134 -0.4394 -0.2776  0.0936
 1653SOL    HW215889   3.468   0.339   4.063 -1.1794 -1.2847  1.3688
 1654SOL     OW15890   0.368   5.755   3.675 -0.3645  0.0787  0.3156
 1654SOL    HW115891   0.333   5.665   3.648  1.1943 -0.7474  1.0060
 1654SOL    HW215892   0.429   5.790   3.604 -0.7607  0.4933  0.1713
 1655SOL     OW15893   3.274   9.867   2.633 -0.8452 -0.5925 -0.3460
 1655SOL    HW115894   3.187   9.889   2.677 -1.4866 -1.8595 -0.9375
 1655SOL    HW215895   3.293   9.934   2.561  0.3433  1.6499  1.9696
 1656SOL     OW15896   1.171   4.003   4.948 -0.7981  0.6023  0.1176
 1656SOL    HW115897   1.180   4.000   5.048  2.5926 -2.7115 -0.1839
 1656SOL    HW215898   1.211   4.087   4.913 -1.2360  1.3848  1.4526
 1657SOL     OW15899   9.591   6.837   5.299 -0.8190 -0.1805 -0.0736
 1657SOL    HW115900   9.611   6.770   5.228 -1.5834 -0.0089 -0.4493
 1657SOL    HW215901   9.493   6.851   5.306 -0.8956 -1.5252  2.2419
 1658SOL     OW15902   8.043   1.979   5.729  0.1671  0.4251 -0.3688
 1658SOL    HW115903   7.978   1.909   5.759  2.2327 -1.1195  0.6476
 1658SOL    HW215904   8.128   1.935   5.701  1.0074  2.4529 -1.0584
 1659SOL     OW15905   7.845   6.630   3.012 -0.0828  0.2112  0.0683
 1659SOL    HW115906   7.811   6.560   2.949  0.7275 -1.7433  1.7518
 1659SOL    HW215907   7.878   6.709   2.959 -0.7826 -0.7604 -1.8694
 1660SOL     OW15908   8.375   6.628   4.271 -0.0242 -0.4006 -0.7228
 1660SOL    HW115909   8.436   6.682   4.329 -0.7298 -1.4607  1.0838
 1660SOL    HW215910   8.395   6.531   4.285 -0.7362 -0.6928 -1.7051
 1661SOL     OW15911   8.285   6.256   4.201  0.0872 -0.0287  0.8460
 1661SOL    HW115912   8.368   6.284   4.250 -0.4488  2.1792  0.5434
 1661SOL    HW215913   8.293   6.160   4.175  1.6062 -0.4504  2.7450
 1662SOL     OW15914   9.395   5.498   1.795 -0.1062 -0.5726 -0.3368
 1662SOL    HW115915   9.464   5.427   1.810  1.5056  0.9851 -0.1917
 1662SOL    HW215916   9.397   5.563   1.870 -0.7461  0.2840 -1.0468
 1663SOL     OW15917   8.241   0.952   4.396 -0.0313 -0.7293 -0.2083
 1663SOL    HW115918   8.266   0.925   4.489  0.3517 -0.4917 -0.2431
 1663SOL    HW215919   8.270   1.046   4.380  0.0330 -0.8202 -0.6219
 1664SOL     OW15920   3.598   5.329   1.184  0.1114 -0.1837  0.1278
 1664SOL    HW115921   3.689   5.322   1.145  0.2140 -0.0542  0.3441
 1664SOL    HW215922   3.579   5.424   1.210 -0.1881 -0.1615 -0.1686
 1665SOL     OW15923   4.288   9.886   4.356 -0.0350 -0.3111 -0.2293
 1665SOL    HW115924   4.237   9.856   4.276  0.1981 -0.4647 -0.3212
 1665SOL    HW215925   4.295   9.986   4.355 -0.5513 -0.2747 -0.0828
 1666SOL     OW15926   0.349   5.078   1.890 -0.0934  0.0309 -0.0014
 1666SOL    HW115927   0.354   5.152   1.958 -2.0217 -0.3534  0.5947
 1666SOL    HW215928   0.388   5.110   1.804  0.0238  1.4094  0.5434
 1667SOL     OW15929   8.373   8.958   1.100  0.3685  0.2057 -0.2415
 1667SOL    HW115930   8.340   8.908   1.020  0.2356 -1.2228  0.6894
 1667SOL    HW215931   8.313   9.035   1.119  0.4044  0.5576 -1.5163
 1668SOL     OW15932   2.489   9.857   2.301 -0.1274  0.1639  0.2714
 1668SOL    HW115933   2.500   9.758   2.310 -1.0220  0.0847  0.5374
 1668SOL    HW215934   2.464   9.895   2.390  0.5692  0.6850  0.2510
 1669SOL     OW15935   3.332   8.329   2.089  0.1620  0.1186  0.9596
 1669SOL    HW115936   3.344   8.231   2.076  0.8291  0.2326  0.6805
 1669SOL    HW215937   3.362   8.355   2.181 -2.3715 -0.3283  1.9308
 1670SOL     OW15938   2.588   3.124   2.926 -0.2264 -0.3290  0.3735
 1670SOL    HW115939   2.635   3.194   2.873  0.7161 -0.4440  1.0510
 1670SOL    HW215940   2.603   3.140   3.023 -2.2957  0.1203  0.6419
 1671SOL     OW15941   9.590   0.249   3.383 -0.5502 -0.1821 -0.3057
 1671SOL    HW115942   9.642   0.211   3.459 -0.3064  0.5003 -0.1350
 1671SOL    HW215943   9.624   0.340   3.361 -0.3402 -0.5476 -1.5122
 1672SOL     OW15944   5.829   7.369   3.937 -0.9160  0.6118 -0.2005
 1672SOL    HW115945   5.909   7.316   3.964 -0.1926  1.5127 -0.5779
 1672SOL    HW215946   5.775   7.391   4.018  0.0063  1.2910  0.2291
 1673SOL     OW15947   2.621   8.908   3.784  0.1253  0.2400  0.3247
 1673SOL    HW115948   2.719   8.927   3.793  0.7382 -2.2945 -0.7437
 1673SOL    HW215949   2.591   8.929   3.692 -0.2529  0.6239  0.5343
 1674SOL     OW15950   7.690   1.256   0.593  0.4328  0.0166  0.5782
 1674SOL    HW115951   7.755   1.187   0.561 -0.1306 -0.6056  0.7658
 1674SOL    HW215952   7.597   1.221   0.583  0.2136  0.0774  2.2901
 1675SOL     OW15953   3.422   5.008   0.398 -0.0291 -0.5169  0.1419
 1675SOL    HW115954   3.347   5.065   0.366 -1.2583 -1.2482  1.6503
 1675SOL    HW215955   3.486   5.063   0.451  0.0549 -0.0617 -0.4307
 1676SOL     OW15956   8.096   5.499   2.171  0.4529 -0.4019 -0.2200
 1676SOL    HW115957   8.181   5.516   2.120  1.2336  1.3101  1.5509
 1676SOL    HW215958   8.018   5.506   2.109  1.3915  1.3626 -1.2547
 1677SOL     OW15959   3.411   1.126   2.953 -0.4038  0.0505 -0.2034
 1677SOL    HW115960   3.346   1.130   2.878 -0.7826 -0.4629  0.0951
 1677SOL    HW215961   3.390   1.047   3.012 -0.2094  0.5341  0.5280
 1678SOL     OW15962   5.337   1.311   4.774 -0.6076  0.5366 -0.6199
 1678SOL    HW115963   5.410   1.375   4.750  1.1995 -1.0681  0.4353
 1678SOL    HW215964   5.360   1.266   4.860 -2.9331  0.0991 -0.2122
 1679SOL     OW15965   3.318   6.362   2.435 -0.1123  0.3652 -0.6568
 1679SOL    HW115966   3.409   6.385   2.470  0.4012  0.0694 -1.7916
 1679SOL    HW215967   3.313   6.386   2.338 -0.3834 -1.9944 -1.2583
 1680SOL     OW15968   6.656   0.782   6.724  0.1191 -0.3765  0.0301
 1680SOL    HW115969   6.720   0.744   6.791  2.2543 -0.4110 -1.9363
 1680SOL    HW215970   6.634   0.712   6.656 -1.2228 -0.0594  0.1352
 1681SOL     OW15971   8.592   8.111   1.176 -0.2078 -0.3546 -0.0064
 1681SOL    HW115972   8.512   8.060   1.208 -0.7332 -0.9390 -2.1523
 1681SOL    HW215973   8.630   8.066   1.095  1.2781  0.8791 -0.0221
 1682SOL     OW15974   1.580   7.513   3.723 -0.0869 -0.0160 -0.0756
 1682SOL    HW115975   1.560   7.591   3.783 -2.6940 -0.6238 -0.1016
 1682SOL    HW215976   1.547   7.532   3.631  0.8151 -0.4797 -0.5010
 1683SOL     OW15977   7.653   9.870   6.320  0.3275  1.4649  0.6323
 1683SOL    HW115978   7.649   9.887   6.418 -0.0935  0.7882  0.7341
 1683SOL    HW215979   7.602   9.941   6.271  2.6691  3.2585  0.7248
 1684SOL     OW15980   4.957   2.800   2.978 -0.7213 -0.6396 -0.1980
 1684SOL    HW115981   4.991   2.713   2.942 -0.6139 -0.7214  0.1001
 1684SOL    HW215982   4.994   2.815   3.070 -1.2956 -0.6127  0.0299
 1685SOL     OW15983   5.574   4.992   0.154 -0.5075  0.1224  0.2970
 1685SOL    HW115984   5.498   4.938   0.117 -1.3988  1.6855 -0.2050
 1685SOL    HW215985   5.652   4.985   0.092 -1.0023  0.3110 -0.3658
 1686SOL     OW15986   4.876   8.531   4.122  0.1585 -0.1308 -0.3942
 1686SOL    HW115987   4.892   8.611   4.180  1.4699 -0.9940  0.4609
 1686SOL    HW215988   4.792   8.485   4.150 -0.6308  0.9590 -0.9268
 1687SOL     OW15989   5.538   0.032   0.544 -0.3830  0.1587 -0.0689
 1687SOL    HW115990   5.627   0.061   0.508 -0.2398  0.7885  0.7840
 1687SOL    HW215991   5.552  -0.043   0.610 -0.5867 -0.5231 -0.7882
 1688SOL     OW15992   3.181   7.163   3.620 -0.2065 -0.5060  0.3244
 1688SOL    HW115993   3.126   7.098   3.568 -0.4925 -1.6855  2.0441
 1688SOL    HW215994   3.262   7.116   3.656  0.7775  0.6705 -0.3452
 1689SOL     OW15995   9.660   5.769   4.227  0.2673 -0.2376 -0.1486
 1689SOL    HW115996   9.622   5.852   4.187  2.0409  1.2827  1.2454
 1689SOL    HW215997   9.617   5.751   4.316  0.3569 -0.4387 -0.1444
 1690SOL     OW15998   0.156   4.261   2.215 -0.0517 -0.3061 -0.5646
 1690SOL    HW115999   0.172   4.279   2.118 -0.8704 -1.1997 -0.8751
 1690SOL    HW216000   0.166   4.162   2.232  0.7107 -0.0761  0.3808
 1691SOL     OW16001   1.176   4.041   6.162 -0.3047 -0.4170 -0.4846
 1691SOL    HW116002   1.264   3.997   6.143  0.0990  0.2270 -0.1319
 1691SOL    HW216003   1.152   4.026   6.258 -1.5660 -2.3147 -1.0732
 1692SOL     OW16004   2.643   6.928   1.650  0.4895  0.0676 -0.1155
 1692SOL    HW116005   2.725   6.899   1.601  1.2574  0.6123  0.8223
 1692SOL    HW216006   2.664   7.008   1.706 -1.1000  1.1898 -1.1008
 1693SOL     OW16007   8.790   6.957   6.183  0.0818 -0.1155  0.2911
 1693SOL    HW116008   8.875   6.908   6.200  0.3257  0.2907  0.2598
 1693SOL    HW216009   8.738   6.911   6.112  0.5386 -0.0524 -0.0870
 1694SOL     OW16010   3.113   6.975   1.000 -0.4427  0.2662  0.7188
 1694SOL    HW116011   3.031   7.029   1.021 -1.3990 -0.8340 -0.0802
 1694SOL    HW216012   3.139   6.991   0.905 -1.4860 -1.6089  0.0892
 1695SOL     OW16013   4.916   2.645   2.210 -0.2878  0.0064 -0.4674
 1695SOL    HW116014   4.932   2.639   2.112 -1.3607 -0.9793 -0.5943
 1695SOL    HW216015   4.869   2.731   2.231  0.4370  0.4725 -0.7408
 1696SOL     OW16016   8.823   5.953   4.033  0.2712  0.2698  0.9283
 1696SOL    HW116017   8.784   5.908   4.113  0.5985  1.9855  2.0751
 1696SOL    HW216018   8.750   5.983   3.972 -0.0254 -0.0901  1.1064
 1697SOL     OW16019   2.051   2.815   4.976 -0.4574 -0.3909 -0.5293
 1697SOL    HW116020   2.044   2.728   4.928  1.8274 -0.7321 -0.3077
 1697SOL    HW216021   2.114   2.805   5.054 -1.3661  1.0640  0.4229
 1698SOL     OW16022   8.181   2.850   4.183 -0.2740 -0.7141 -0.3813
 1698SOL    HW116023   8.235   2.919   4.232 -1.3343 -0.4414  0.4285
 1698SOL    HW216024   8.137   2.789   4.249 -1.3341 -0.6461 -1.0174
 1699SOL     OW16025   4.384   7.404   3.639 -0.1391  0.2047  0.0859
 1699SOL    HW116026   4.463   7.441   3.687  1.2898 -1.2604 -1.0987
 1699SOL    HW216027   4.336   7.478   3.592  0.7663  1.0426  0.4632
 1700SOL     OW16028   1.924   3.135   3.157 -0.7065  0.0152 -0.0575
 1700SOL    HW116029   2.022   3.131   3.137 -1.0144  1.4628 -1.9029
 1700SOL    HW216030   1.910   3.175   3.248  0.3441  1.2181 -0.4253
 1701SOL     OW16031   1.501   1.861   4.382 -0.0924 -0.0267 -0.2366
 1701SOL    HW116032   1.511   1.958   4.362 -0.9825  0.1045 -0.0426
 1701SOL    HW216033   1.404   1.837   4.389  0.1338 -0.6628  0.9763
 1702SOL     OW16034   3.998   3.501   1.731 -0.3155  0.4778 -0.2150
 1702SOL    HW116035   3.906   3.527   1.762 -0.9132 -2.1714  0.4054
 1702SOL    HW216036   4.062   3.509   1.808 -0.2484  1.2284 -0.3450
 1703SOL     OW16037   2.133   5.488   5.419  0.0668 -0.2154  0.4614
 1703SOL    HW116038   2.146   5.470   5.516  0.2919  0.1470  0.5000
 1703SOL    HW216039   2.042   5.457   5.392 -1.1838  2.3966  1.4869
 1704SOL     OW16040   1.827   4.928   5.859 -0.2143  0.1550 -0.7057
 1704SOL    HW116041   1.772   4.872   5.921 -0.4503 -0.3216 -1.3378
 1704SOL    HW216042   1.774   5.006   5.827  0.1288  0.7583  0.2100
 1705SOL     OW16043   4.493   3.851   3.827  0.2493  0.3692  0.3280
 1705SOL    HW116044   4.459   3.765   3.864 -1.8084  0.8298 -0.4260
 1705SOL    HW216045   4.445   3.872   3.741  1.5158  1.7053 -0.0747
 1706SOL     OW16046   0.486   5.598   4.552  0.8366  0.1620  0.1565
 1706SOL    HW116047   0.391   5.628   4.544  0.9858  0.7365  0.5464
 1706SOL    HW216048   0.500   5.516   4.496  0.3435  0.6252 -0.6531
 1707SOL     OW16049   1.609   3.257   2.021  0.2120 -0.0084 -0.2278
 1707SOL    HW116050   1.524   3.257   2.075 -0.2936  0.0373 -1.0136
 1707SOL    HW216051   1.603   3.327   1.950  1.0656  0.2449 -0.0481
 1708SOL     OW16052   2.998   6.542   3.743  0.4924 -0.3959  0.1676
 1708SOL    HW116053   2.961   6.475   3.807  0.4469 -0.9951 -0.4751
 1708SOL    HW216054   3.050   6.494   3.671 -0.0465  0.2032 -0.6311
 1709SOL     OW16055   2.528   5.861   6.600 -0.0036 -0.0090  0.2398
 1709SOL    HW116056   2.541   5.819   6.690 -0.9960  0.0985  0.4363
 1709SOL    HW216057   2.450   5.924   6.603 -0.8450 -0.9513 -1.0162
 1710SOL     OW16058   3.887   7.515   1.613 -0.7739  0.5861 -0.4026
 1710SOL    HW116059   3.796   7.541   1.581  0.4139  1.1857 -3.4824
 1710SOL    HW216060   3.916   7.431   1.567 -0.1622 -0.1499  1.3018
 1711SOL     OW16061   9.943   8.864   2.599 -0.0278 -0.2325  0.3649
 1711SOL    HW116062   9.894   8.777   2.597 -0.4791  0.0447 -1.6509
 1711SOL    HW216063   9.917   8.915   2.681 -3.0411 -0.1041 -0.6267
 1712SOL     OW16064   9.693   7.746   4.515  0.4613 -0.0029  0.5915
 1712SOL    HW116065   9.772   7.686   4.500  0.0077 -0.5057  0.1721
 1712SOL    HW216066   9.638   7.710   4.590 -0.0640 -0.3747  0.0324
 1713SOL     OW16067   2.819   4.255   4.401 -0.1752 -0.4594  0.4531
 1713SOL    HW116068   2.903   4.211   4.434 -0.1827 -0.8505 -0.0509
 1713SOL    HW216069   2.747   4.186   4.390  0.5000 -0.7447 -2.6402
 1714SOL     OW16070   3.978   8.987   1.775 -0.3553  0.3407  0.2011
 1714SOL    HW116071   4.010   8.930   1.699 -1.0932  0.4288 -0.1762
 1714SOL    HW216072   3.919   9.060   1.740  0.1279  1.0025  0.7464
 1715SOL     OW16073   9.602   8.453   0.669 -0.5301 -0.2091  0.4370
 1715SOL    HW116074   9.676   8.427   0.732 -0.0122 -3.2525 -1.3274
 1715SOL    HW216075   9.636   8.522   0.605 -0.5324  1.5744  2.3113
 1716SOL     OW16076   3.983   4.810   2.455 -0.5680 -0.3642 -0.1737
 1716SOL    HW116077   3.956   4.768   2.369 -0.6765 -2.6452  0.9553
 1716SOL    HW216078   3.903   4.850   2.499 -1.2529 -2.7158  0.7640
 1717SOL     OW16079   8.398   2.228   1.067 -0.2093  0.0444  0.3931
 1717SOL    HW116080   8.492   2.226   1.031 -0.9494  0.7513 -1.6682
 1717SOL    HW216081   8.379   2.141   1.114  1.1914 -0.4530  0.0722
 1718SOL     OW16082   9.801   2.284   2.952 -0.6965 -0.2162  0.0258
 1718SOL    HW116083   9.858   2.342   3.010 -1.5596 -0.1075  0.7794
 1718SOL    HW216084   9.847   2.268   2.865 -0.1390  1.0215  0.0828
 1719SOL     OW16085   3.291   2.295   2.190  0.5198 -0.3151 -0.1006
 1719SOL    HW116086   3.299   2.357   2.267  1.6665  0.6743 -0.9901
 1719SOL    HW216087   3.377   2.293   2.140 -0.6055  0.1149 -2.1295
 1720SOL     OW16088   1.252   9.780   4.168  0.4602  0.0822 -0.1304
 1720SOL    HW116089   1.287   9.868   4.199 -1.9617  1.6755 -1.6912
 1720SOL    HW216090   1.205   9.734   4.243 -1.9077  2.0709 -0.3341
 1721SOL     OW16091   1.934   0.465   3.688  0.2283 -0.5489  0.6819
 1721SOL    HW116092   1.859   0.468   3.622 -1.3467 -1.4205  2.3813
 1721SOL    HW216093   1.981   0.376   3.681  2.6832  0.8757 -2.0168
 1722SOL     OW16094   4.699   7.964   1.916 -0.3085  0.5012  0.2125
 1722SOL    HW116095   4.787   7.924   1.941 -0.8694 -2.3031 -2.0851
 1722SOL    HW216096   4.699   7.987   1.819 -1.7225  1.5357  0.4454
 1723SOL     OW16097   9.003   9.839   4.812  0.6241 -0.2494  0.5045
 1723SOL    HW116098   9.018   9.922   4.759 -1.1777 -1.2925 -1.7338
 1723SOL    HW216099   9.029   9.759   4.757  1.7028 -1.2267  2.3728
 1724SOL     OW16100   8.145   2.741   2.097  0.0276 -0.0892 -0.5209
 1724SOL    HW116101   8.151   2.685   2.180  0.2232  0.4933 -0.1352
 1724SOL    HW216102   8.050   2.758   2.075 -0.0270 -0.2194 -0.3922
 1725SOL     OW16103   7.619   2.092   4.468 -0.1197  0.2504 -0.1512
 1725SOL    HW116104   7.541   2.064   4.524  0.2666 -1.5656 -0.4913
 1725SOL    HW216105   7.697   2.112   4.528 -1.0929  3.0714  0.2651
 1726SOL     OW16106   2.023   7.375   4.224  0.2126 -0.0820 -0.1424
 1726SOL    HW116107   2.080   7.359   4.144  0.0358  0.4815 -0.3809
 1726SOL    HW216108   1.969   7.292   4.243  0.3741 -0.2723 -0.5061
 1727SOL     OW16109   3.650   8.037   4.654  0.1537 -0.5413  0.3597
 1727SOL    HW116110   3.635   8.126   4.696  2.0316 -0.1831  0.3093
 1727SOL    HW216111   3.562   7.990   4.642 -0.9065  1.5496 -0.1940
 1728SOL     OW16112   4.090   1.351   4.222 -0.5452  0.1627  0.1502
 1728SOL    HW116113   4.132   1.440   4.238  0.2831 -0.0436 -0.8066
 1728SOL    HW216114   4.134   1.307   4.144 -1.4612 -0.7605  0.1375
 1729SOL     OW16115   8.296   0.248   1.200 -0.3735  0.1978  0.2301
 1729SOL    HW116116   8.229   0.211   1.264 -1.4717  1.2945 -0.2572
 1729SOL    HW216117   8.316   0.181   1.129 -1.6177  0.1709 -0.1021
 1730SOL     OW16118   2.169   1.900   4.600 -0.2721  0.2704 -0.0457
 1730SOL    HW116119   2.219   1.846   4.532 -0.8208  0.2130 -0.4040
 1730SOL    HW216120   2.190   1.997   4.587  1.1796  0.1239  0.9714
 1731SOL     OW16121   0.122   6.686   1.283  0.1216  0.3371 -0.3724
 1731SOL    HW116122   0.060   6.616   1.249  0.6519 -0.2790 -0.0870
 1731SOL    HW216123   0.147   6.666   1.378 -1.2873  1.9971  0.3822
 1732SOL     OW16124   8.278   2.340   2.826 -0.0639  0.2362 -0.2944
 1732SOL    HW116125   8.273   2.280   2.907 -1.4220  2.4215  1.2797
 1732SOL    HW216126   8.352   2.308   2.767 -0.2301 -2.5194  0.8822
 1733SOL     OW16127   7.593   0.878   3.173 -0.4684  0.4909 -0.3575
 1733SOL    HW116128   7.523   0.947   3.192 -1.3444  0.1030 -2.0250
 1733SOL    HW216129   7.582   0.801   3.235 -1.0929  0.7314 -0.1660
 1734SOL     OW16130   0.323   8.739   5.092  0.0642 -0.8465  0.6916
 1734SOL    HW116131   0.260   8.815   5.103 -1.8629 -2.1302 -1.0732
 1734SOL    HW216132   0.410   8.773   5.056 -0.1457  0.7285  1.6383
 1735SOL     OW16133   8.648   4.623   5.487 -0.3437  0.0085 -0.1292
 1735SOL    HW116134   8.591   4.695   5.526  1.1630  2.8291 -2.8231
 1735SOL    HW216135   8.713   4.590   5.556  0.9950  3.4865  0.3955
 1736SOL     OW16136   6.355   1.244   4.405 -0.8709  0.3565  0.3650
 1736SOL    HW116137   6.300   1.327   4.409 -0.4068  0.6639  0.4136
 1736SOL    HW216138   6.309   1.171   4.455 -1.4918  0.4599 -0.0568
 1737SOL     OW16139   3.938   8.866   0.878  0.3240 -0.3583 -0.3256
 1737SOL    HW116140   3.848   8.850   0.918  0.3194 -0.9512 -0.5772
 1737SOL    HW216141   3.932   8.939   0.810  0.2109  0.2279  0.3087
 1738SOL     OW16142   5.030   8.969   3.244 -0.2281  0.1768  1.2215
 1738SOL    HW116143   5.115   8.917   3.252 -1.9756 -3.0300 -0.0367
 1738SOL    HW216144   5.041   9.059   3.287  3.1411 -0.9324  2.8232
 1739SOL     OW16145   2.263   5.775   0.044  0.2691  0.0423 -0.1282
 1739SOL    HW116146   2.222   5.687   0.021  2.7752 -1.2440  0.2325
 1739SOL    HW216147   2.350   5.761   0.091  1.7374  2.7081 -1.8949
 1740SOL     OW16148   6.169   1.753   2.842 -0.7662  0.3346  0.0310
 1740SOL    HW116149   6.172   1.744   2.941 -0.5404 -0.2369 -0.0225
 1740SOL    HW216150   6.184   1.848   2.816  1.9137  0.0494  0.4330
 1741SOL     OW16151   6.445   2.365   3.077  0.0965  0.3807  0.1362
 1741SOL    HW116152   6.441   2.386   3.175 -1.5321 -0.8511  0.3456
 1741SOL    HW216153   6.488   2.276   3.064 -2.2569 -0.7527 -0.0645
 1742SOL     OW16154   4.310   7.969   1.772  0.1874  0.3004 -0.5814
 1742SOL    HW116155   4.236   7.924   1.822  0.4379  1.1147  0.5372
 1742SOL    HW216156   4.325   8.061   1.809  2.8861 -0.4632  0.3654
 1743SOL     OW16157   0.258   4.533   0.167 -0.0089 -0.2773  0.2148
 1743SOL    HW116158   0.218   4.610   0.118 -0.7720 -0.8617 -0.1059
 1743SOL    HW216159   0.243   4.544   0.265 -1.0060 -0.5132  0.0923
 1744SOL     OW16160   9.966   2.898   4.511  0.5092  0.7127 -0.3209
 1744SOL    HW116161   9.989   2.995   4.522  0.5641  0.6598  0.0264
 1744SOL    HW216162   9.938   2.881   4.416  1.0844  0.9483 -0.5365
 1745SOL     OW16163   9.048   3.373   0.931  0.2601  0.3265 -0.4992
 1745SOL    HW116164   9.048   3.314   0.850  2.0460  0.9605 -0.9896
 1745SOL    HW216165   9.056   3.317   1.013 -2.0053 -0.3525 -0.7029
 1746SOL     OW16166   8.197   6.695   3.828  0.1354 -0.1748 -0.5094
 1746SOL    HW116167   8.184   6.616   3.768 -1.0341 -0.0364 -0.4576
 1746SOL    HW216168   8.225   6.663   3.919  2.6222 -0.3394 -1.3144
 1747SOL     OW16169   0.730   9.147   3.954  0.0984  0.4077  0.2605
 1747SOL    HW116170   0.638   9.148   3.994 -0.7480 -2.6089 -1.4510
 1747SOL    HW216171   0.790   9.092   4.010  0.0047 -0.3184 -0.3436
 1748SOL     OW16172   4.601   4.407   3.266  0.1390 -0.9574 -0.1896
 1748SOL    HW116173   4.687   4.375   3.305 -0.5913 -0.4152  1.9811
 1748SOL    HW216174   4.528   4.343   3.288 -0.6904  0.4326  1.2391
 1749SOL     OW16175   1.903   6.050   4.588 -0.0278 -0.0397 -0.3596
 1749SOL    HW116176   1.913   6.004   4.676 -1.6437  0.5394  0.1440
 1749SOL    HW216177   1.849   6.133   4.600 -0.2531  0.0490 -1.8849
 1750SOL     OW16178   2.203   8.935   4.384 -0.1053  0.1770  0.2437
 1750SOL    HW116179   2.126   8.964   4.441  0.6021  1.5238  0.5228
 1750SOL    HW216180   2.177   8.942   4.288 -0.2027  0.9787  0.3263
 1751SOL     OW16181   7.722   8.978   1.948 -0.3143 -0.1422  0.2872
 1751SOL    HW116182   7.778   9.053   1.983  0.0472  1.1052 -2.8387
 1751SOL    HW216183   7.776   8.894   1.947  0.5155  0.3871  0.2090
 1752SOL     OW16184   4.981   9.211   3.398  0.1021 -0.4069 -0.0276
 1752SOL    HW116185   4.996   9.261   3.483 -0.4031  0.6732 -0.5594
 1752SOL    HW216186   4.954   9.275   3.326 -1.8226 -1.6070 -0.4104
 1753SOL     OW16187   3.916   6.335   0.837  0.7632  0.4156 -0.0903
 1753SOL    HW116188   4.006   6.377   0.851  1.3911 -0.1838 -2.1670
 1753SOL    HW216189   3.898   6.328   0.739 -0.8952 -0.8860  0.2989
 1754SOL     OW16190   9.013   7.209   1.905 -0.3895 -0.0408  0.2476
 1754SOL    HW116191   8.986   7.306   1.906 -0.8858 -0.1582 -0.7982
 1754SOL    HW216192   8.932   7.152   1.916  0.0287 -0.3320  1.9288
 1755SOL     OW16193   4.740   4.124   3.672 -0.5278  0.2234  0.1327
 1755SOL    HW116194   4.729   4.132   3.771 -0.0482 -2.5137  0.4448
 1755SOL    HW216195   4.837   4.119   3.649 -0.6924 -1.0585 -0.2994
 1756SOL     OW16196   0.114   3.586   4.243  0.2488 -0.2516 -0.0609
 1756SOL    HW116197   0.043   3.656   4.249  1.8481  1.4399 -0.4268
 1756SOL    HW216198   0.096   3.526   4.165  0.8321  1.9995 -1.9664
 1757SOL     OW16199   5.979   7.649   3.618 -0.2642  0.5839  0.0858
 1757SOL    HW116200   5.937   7.625   3.705 -2.5598  1.8846 -0.6286
 1757SOL    HW216201   5.919   7.622   3.543 -0.5914  3.9077 -0.8992
 1758SOL     OW16202   0.081   1.852   0.376 -0.6008 -0.0568 -0.1512
 1758SOL    HW116203   0.090   1.868   0.277 -0.7601 -1.7797 -0.4575
 1758SOL    HW216204   0.000   1.796   0.393 -1.3064  1.3152  1.0945
 1759SOL     OW16205   2.572   6.374   4.561 -0.1119  0.0874  0.0772
 1759SOL    HW116206   2.550   6.277   4.571 -1.6769  0.4551  0.2077
 1759SOL    HW216207   2.497   6.430   4.597  1.4191  1.3588  1.4038
 1760SOL     OW16208   4.681   0.875   4.115 -0.2641  0.3085 -0.3688
 1760SOL    HW116209   4.642   0.785   4.098 -0.1896  0.4572 -1.3161
 1760SOL    HW216210   4.658   0.904   4.209  0.8245 -1.2506  0.3976
 1761SOL     OW16211   1.598   0.867   4.533 -0.4836 -0.3197 -0.5222
 1761SOL    HW116212   1.641   0.944   4.579  0.3661 -0.5097 -0.9860
 1761SOL    HW216213   1.669   0.806   4.496 -1.1434 -1.1248 -0.4819
 1762SOL     OW16214   5.979   9.566   4.146 -1.0536 -0.1669 -0.6460
 1762SOL    HW116215   6.022   9.479   4.170 -2.3492 -1.0007 -1.3069
 1762SOL    HW216216   6.044   9.620   4.092  0.5893  0.2661  1.6816
 1763SOL     OW16217   7.523   0.420   3.597  0.3583 -0.7135 -0.6988
 1763SOL    HW116218   7.533   0.502   3.653  1.5753 -1.0769 -0.3736
 1763SOL    HW216219   7.611   0.374   3.588 -0.3057 -1.9929 -0.8713
 1764SOL     OW16220   0.573   5.236   0.885 -0.0554  0.0952  0.2077
 1764SOL    HW116221   0.538   5.216   0.976  0.8683  1.1844  0.8185
 1764SOL    HW216222   0.650   5.175   0.865  1.4830  1.6231  1.2705
 1765SOL     OW16223   5.839   9.429   1.415 -0.0960  0.3698  0.2239
 1765SOL    HW116224   5.901   9.506   1.399  0.1742  0.4564  1.5741
 1765SOL    HW216225   5.745   9.462   1.411 -0.0657  0.2338 -1.8429
 1766SOL     OW16226   3.307   4.724   5.118 -0.5300 -0.4561  0.0960
 1766SOL    HW116227   3.267   4.640   5.082 -1.0867 -0.5153  0.8507
 1766SOL    HW216228   3.265   4.747   5.206  0.7161 -0.2143  0.6373
 1767SOL     OW16229   0.260   8.182   4.933  0.3154 -0.0417 -0.1391
 1767SOL    HW116230   0.237   8.135   5.019  1.1041 -2.5210 -1.2398
 1767SOL    HW216231   0.219   8.133   4.856 -0.8108  2.4640 -1.1695
 1768SOL     OW16232   2.730   0.483   3.475  0.1555 -0.2561  0.1957
 1768SOL    HW116233   2.719   0.549   3.401 -1.8954 -1.1679 -0.3814
 1768SOL    HW216234   2.803   0.512   3.536  1.7692  0.6265 -2.0777
 1769SOL     OW16235   4.748   8.099   4.718  0.0036 -0.7352 -0.3960
 1769SOL    HW116236   4.826   8.130   4.665  0.5523 -1.5287 -0.0587
 1769SOL    HW216237   4.675   8.071   4.655 -0.4633  1.0837 -0.7060
 1770SOL     OW16238   6.248   0.938   2.404 -0.0744  0.4567 -0.2039
 1770SOL    HW116239   6.326   0.885   2.370 -0.1057 -0.6633  1.4263
 1770SOL    HW216240   6.165   0.910   2.355  0.1947  0.2060 -0.5215
 1771SOL     OW16241   6.257   9.823   3.449  0.0201  0.8085  0.2401
 1771SOL    HW116242   6.191   9.748   3.439  0.3840  0.3395  1.2157
 1771SOL    HW216243   6.334   9.808   3.387  0.2134  0.2292  0.6138
 1772SOL     OW16244   8.995   1.870   0.952  0.0060 -0.2864 -0.1514
 1772SOL    HW116245   9.028   1.952   0.999 -0.9119  0.0009 -0.0159
 1772SOL    HW216246   9.054   1.792   0.976 -0.6877 -0.2315  1.8067
 1773SOL     OW16247   3.805   0.624   3.796 -0.1834  0.5968 -0.0120
 1773SOL    HW116248   3.904   0.608   3.801  0.0490  1.2247 -1.9760
 1773SOL    HW216249   3.762   0.549   3.746 -0.5602  0.7872  0.0241
 1774SOL     OW16250   3.065   6.523   4.037 -0.3013  0.3722 -0.2974
 1774SOL    HW116251   3.005   6.448   4.009  1.6128 -0.8685 -1.1290
 1774SOL    HW216252   3.057   6.537   4.135  0.4195 -1.8830  0.0878
 1775SOL     OW16253   3.545   4.777   4.709 -0.2399  0.5190  0.4036
 1775SOL    HW116254   3.541   4.872   4.675  1.0340  0.3826 -0.1337
 1775SOL    HW216255   3.613   4.771   4.782  0.1306 -0.1104  0.0083
 1776SOL     OW16256   7.125   1.676   3.848  0.5895  0.1339 -0.2847
 1776SOL    HW116257   7.028   1.655   3.837  0.3018  1.1632  0.2548
 1776SOL    HW216258   7.136   1.761   3.899  1.8007 -1.1294  1.6571
 1777SOL     OW16259   5.226   9.823   0.999  0.0169  0.0615  0.9811
 1777SOL    HW116260   5.159   9.896   0.988  0.9057  0.6463 -0.5454
 1777SOL    HW216261   5.179   9.734   0.993 -0.6863  0.4676  0.3376
 1778SOL     OW16262   2.885   5.442   2.031 -0.2921  0.4030  0.2800
 1778SOL    HW116263   2.813   5.508   2.055 -0.2285  0.6231 -0.1378
 1778SOL    HW216264   2.878   5.419   1.934  0.7259  1.0590  0.0479
 1779SOL     OW16265   8.892   1.927   4.051  1.0443 -0.4186 -0.7963
 1779SOL    HW116266   8.844   1.876   3.980  0.1162  0.5643 -0.8787
 1779SOL    HW216267   8.913   2.019   4.018  1.6390 -0.3431 -0.2171
 1780SOL     OW16268   2.440   6.444   3.081  0.1377 -0.2244  0.5317
 1780SOL    HW116269   2.502   6.502   3.028 -0.8703 -0.0766 -0.4992
 1780SOL    HW216270   2.443   6.471   3.177 -1.3425  2.4632 -0.1447
 1781SOL     OW16271   3.639   0.425   2.966 -0.3605 -0.5433 -0.1269
 1781SOL    HW116272   3.588   0.347   3.002  3.2028 -0.7512  5.1055
 1781SOL    HW216273   3.595   0.510   2.994  0.0116 -0.7169  1.0040
 1782SOL     OW16274   0.980   6.063   5.879  0.3780 -0.2074  0.7175
 1782SOL    HW116275   0.895   6.099   5.840  1.1835  0.7568 -0.1557
 1782SOL    HW216276   0.978   5.963   5.875 -1.2845 -0.2566  1.9266
 1783SOL     OW16277   9.068   7.383   0.992 -0.5049 -0.4828  0.4197
 1783SOL    HW116278   9.026   7.473   0.977 -1.4681 -1.0917 -0.5365
 1783SOL    HW216279   9.058   7.327   0.910  0.0443 -1.4918  1.0364
 1784SOL     OW16280   1.071   3.055   3.469  0.1033  0.0485  0.4520
 1784SOL    HW116281   1.085   2.960   3.443  1.3652  0.3185  0.0916
 1784SOL    HW216282   1.006   3.098   3.407  0.7767 -0.1399 -0.3862
 1785SOL     OW16283   3.242   4.701   0.593  0.1433  0.0316  0.2767
 1785SOL    HW116284   3.300   4.727   0.516 -3.0937  3.0803 -1.3116
 1785SOL    HW216285   3.262   4.759   0.672 -0.0129  0.3858  0.0582
 1786SOL     OW16286   1.667   0.775   2.522  0.3669 -0.0480  0.5217
 1786SOL    HW116287   1.608   0.762   2.602  1.1611  0.6011  1.2145
 1786SOL    HW216288   1.686   0.686   2.480 -0.1173 -0.3841  1.0086
 1787SOL     OW16289   2.286   0.169   4.414  0.5972 -0.3952  0.0875
 1787SOL    HW116290   2.344   0.168   4.332  0.0687 -0.8226 -0.2821
 1787SOL    HW216291   2.336   0.126   4.490  2.0298  2.2009  0.6599
 1788SOL     OW16292   1.903   8.428   4.409 -0.3311  0.1777  0.2596
 1788SOL    HW116293   1.989   8.455   4.365 -0.5635  0.0868 -0.2529
 1788SOL    HW216294   1.922   8.365   4.484  0.2482  1.8956  1.6205
 1789SOL     OW16295   3.329   3.668   2.145  0.1845  0.3711  0.1706
 1789SOL    HW116296   3.415   3.719   2.139  0.7550 -0.6652 -0.7208
 1789SOL    HW216297   3.338   3.596   2.213 -0.2846  0.8097  0.7051
 1790SOL     OW16298   8.690   2.635   3.569 -0.1473  0.1775 -0.5183
 1790SOL    HW116299   8.614   2.654   3.506 -1.3555 -1.6361  0.3511
 1790SOL    HW216300   8.671   2.678   3.658  1.3951  2.4460 -1.2367
 1791SOL     OW16301   9.528   7.521   1.116  0.1762 -0.7228  0.1342
 1791SOL    HW116302   9.462   7.447   1.129 -0.1997 -0.6006 -1.0405
 1791SOL    HW216303   9.618   7.482   1.097 -0.6625 -0.9218 -3.7288
 1792SOL     OW16304   5.533   8.759   2.926 -0.2701 -0.3406 -0.1949
 1792SOL    HW116305   5.508   8.750   3.022 -2.7490  1.1712 -0.6324
 1792SOL    HW216306   5.528   8.670   2.881  2.0283 -1.2505  1.2991
 1793SOL     OW16307   3.263   6.682   2.582  0.6950  0.5566  0.0584
 1793SOL    HW116308   3.183   6.622   2.576  0.7324  0.5533 -0.4326
 1793SOL    HW216309   3.263   6.745   2.504  0.4483  1.4513  0.7750
 1794SOL     OW16310   8.813   7.609   2.079  0.0076  0.3566  0.4119
 1794SOL    HW116311   8.856   7.628   1.990 -1.4945  1.6621 -0.0564
 1794SOL    HW216312   8.735   7.671   2.092 -1.8198 -2.0198  1.1656
 1795SOL     OW16313   2.529   4.934   1.225 -0.0013 -0.8094  0.1475
 1795SOL    HW116314   2.463   4.905   1.156 -1.2464 -0.4486  1.1641
 1795SOL    HW216315   2.501   5.022   1.263  1.6047 -0.1714 -0.1016
 1796SOL     OW16316   7.771   4.628   0.989  0.3839  0.4425 -0.4950
 1796SOL    HW116317   7.713   4.606   1.067  2.1666 -0.9893  0.4644
 1796SOL    HW216318   7.746   4.569   0.912  0.6577 -0.3040 -0.0234
 1797SOL     OW16319   0.471   9.897   1.083 -0.4409  0.6420 -0.1864
 1797SOL    HW116320   0.525   9.979   1.101  0.0478  0.4200 -0.6359
 1797SOL    HW216321   0.481   9.871   0.988  0.1287 -0.4633  0.1671
 1798SOL     OW16322   9.468   8.597   2.026  0.1751 -0.5582  0.1359
 1798SOL    HW116323   9.482   8.695   2.014  0.1293 -0.7126 -1.3276
 1798SOL    HW216324   9.518   8.547   1.955  1.0842 -1.6619  1.5184
 1799SOL     OW16325   2.513   0.075   4.179  0.0419 -0.1291 -0.6517
 1799SOL    HW116326   2.558   0.037   4.260  1.4307 -0.2389 -1.4452
 1799SOL    HW216327   2.464   0.002   4.132  0.1493 -0.2996 -0.5045
 1800SOL     OW16328   8.891   9.264   3.623 -0.0682  0.0106  0.3516
 1800SOL    HW116329   8.848   9.175   3.613 -0.9940  0.4668  0.1781
 1800SOL    HW216330   8.895   9.310   3.535 -0.6571  0.6109  0.6274
 1801SOL     OW16331   1.220   3.217   4.890 -1.1562 -0.5021  0.2007
 1801SOL    HW116332   1.308   3.206   4.937 -1.9256 -2.6211  1.2062
 1801SOL    HW216333   1.229   3.288   4.820  0.3348  1.9691  2.7595
 1802SOL     OW16334   4.998   7.404   3.524  0.4914  0.2908 -0.4681
 1802SOL    HW116335   4.907   7.417   3.484  0.3803  0.0866 -0.2839
 1802SOL    HW216336   5.066   7.454   3.470  0.4176 -0.4255 -1.2307
 1803SOL     OW16337   6.098   7.211   4.422 -0.0977  0.0330 -0.3584
 1803SOL    HW116338   6.099   7.237   4.519 -1.5406 -0.5956 -0.1569
 1803SOL    HW216339   6.157   7.132   4.408  2.5211  1.9649 -0.5637
 1804SOL     OW16340   7.322   8.108   1.995  0.6504  0.3448 -0.1718
 1804SOL    HW116341   7.348   8.111   2.092 -0.4175 -1.2516  0.1869
 1804SOL    HW216342   7.382   8.168   1.942  0.5993  2.0173  1.6225
 1805SOL     OW16343   2.575   7.995   2.655 -0.4820  0.2395  0.3420
 1805SOL    HW116344   2.568   7.903   2.618 -3.7655 -0.4426  2.4358
 1805SOL    HW216345   2.654   8.001   2.716 -0.2555 -1.1932  0.1928
 1806SOL     OW16346   7.497   0.044   6.189  0.2836  0.3491 -0.0324
 1806SOL    HW116347   7.422   0.051   6.255 -0.5902 -0.0926 -0.9758
 1806SOL    HW216348   7.496   0.123   6.128  0.8523  0.5574  0.2206
 1807SOL     OW16349   8.422   2.463   3.637 -0.6173 -0.5285  0.3825
 1807SOL    HW116350   8.431   2.398   3.562 -0.2035 -0.0165 -0.0183
 1807SOL    HW216351   8.436   2.556   3.602  0.1898 -0.3347  1.2186
 1808SOL     OW16352   8.973   9.798   0.491  0.1391 -0.2551 -0.5560
 1808SOL    HW116353   8.876   9.795   0.466 -0.6030  1.3212  1.9357
 1808SOL    HW216354   9.011   9.705   0.488 -1.3944 -0.8696 -1.7166
 1809SOL     OW16355   3.865   3.336   1.558 -0.4419 -0.1187 -0.2204
 1809SOL    HW116356   3.841   3.252   1.607 -0.6718 -0.9706 -1.7567
 1809SOL    HW216357   3.901   3.403   1.623  0.1565 -1.5489  0.9721
 1810SOL     OW16358   1.346   7.533   0.940  0.2329  0.2056 -0.3953
 1810SOL    HW116359   1.411   7.600   0.904  0.0595  0.4894 -0.1846
 1810SOL    HW216360   1.388   7.484   1.017  0.1770  0.4238 -0.2272
 1811SOL     OW16361   0.121   3.943   2.568 -0.9378  0.0290  0.3199
 1811SOL    HW116362   0.220   3.948   2.551 -1.4876  0.3464 -3.1450
 1811SOL    HW216363   0.088   3.852   2.543 -1.1098 -1.1264  4.3504
 1812SOL     OW16364   4.594   2.726   3.343 -0.0860 -0.5903  0.0940
 1812SOL    HW116365   4.495   2.742   3.333  0.2132  1.7968  0.6917
 1812SOL    HW216366   4.609   2.653   3.409 -1.5170 -3.1032 -2.2751
 1813SOL     OW16367   1.081   0.882   3.001 -0.1914  0.0872  0.0962
 1813SOL    HW116368   1.120   0.791   2.993 -2.4260 -0.9479  0.5458
 1813SOL    HW216369   1.148   0.944   3.041  1.1326 -1.5007  0.3878
 1814SOL     OW16370   0.788   4.066   2.915  0.4987 -0.6073 -0.4701
 1814SOL    HW116371   0.829   4.122   2.843 -0.6418 -0.9304 -1.3756
 1814SOL    HW216372   0.734   4.125   2.976 -0.0998 -0.6176 -0.9917
 1815SOL     OW16373   0.160   0.841   2.281  0.3139  0.3466  0.2563
 1815SOL    HW116374   0.135   0.908   2.351  1.4006  0.7463  0.2708
 1815SOL    HW216375   0.103   0.855   2.200  0.2097  0.9842  0.4358
 1816SOL     OW16376   8.750   8.609   2.515  0.5138 -0.2057  0.5817
 1816SOL    HW116377   8.691   8.571   2.444  2.5350 -0.3726 -1.0347
 1816SOL    HW216378   8.843   8.576   2.503  1.6535  2.6336  1.0718
 1817SOL     OW16379   2.256   0.794   3.394 -0.3070 -0.1607  0.3011
 1817SOL    HW116380   2.333   0.816   3.455 -0.5880  2.3683 -0.2136
 1817SOL    HW216381   2.290   0.738   3.318  0.5777 -0.9658  1.2597
 1818SOL     OW16382   1.001   4.542   0.648 -0.7935 -0.3072 -0.1822
 1818SOL    HW116383   0.960   4.617   0.700 -0.6929 -0.7408  0.5272
 1818SOL    HW216384   1.042   4.578   0.564 -1.7115  0.2750 -0.3896
 1819SOL     OW16385   9.773   5.030   1.971  0.0616  0.0497  0.0691
 1819SOL    HW116386   9.756   4.934   1.948  2.3673 -0.1074 -1.0243
 1819SOL    HW216387   9.709   5.058   2.042 -1.6981 -1.8362 -0.7101
 1820SOL     OW16388   4.641   7.025   1.527  0.1042 -0.2985 -0.4335
 1820SOL    HW116389   4.577   7.082   1.579  0.3140  0.1505 -0.6599
 1820SOL    HW216390   4.725   7.013   1.579 -0.0481 -0.6304 -0.2674
 1821SOL     OW16391   8.786   7.221   5.535  1.0783 -0.0164 -0.3335
 1821SOL    HW116392   8.757   7.246   5.442  1.0077  0.2785 -0.2327
 1821SOL    HW216393   8.716   7.164   5.578  1.0524 -0.0467 -0.4144
 1822SOL     OW16394   4.980   1.231   2.714  0.4369  0.1073  0.0093
 1822SOL    HW116395   4.992   1.295   2.790  1.8981 -0.3680  0.1876
 1822SOL    HW216396   4.939   1.147   2.748 -2.3815  1.2657 -0.3859
 1823SOL     OW16397   5.839   1.469   3.404 -0.6405 -0.0954  0.4548
 1823SOL    HW116398   5.791   1.529   3.340 -1.0886 -2.3317 -1.3809
 1823SOL    HW216399   5.800   1.480   3.496 -1.2642  1.7838 -0.0218
 1824SOL     OW16400   2.873   1.065   4.404 -0.3735 -0.2263 -0.3091
 1824SOL    HW116401   2.827   1.039   4.489 -1.6196  1.8037 -0.3302
 1824SOL    HW216402   2.940   1.137   4.423  0.2255 -0.6327 -0.8524
 1825SOL     OW16403   4.496   5.493   2.651  0.6348  0.2852 -0.1849
 1825SOL    HW116404   4.567   5.423   2.642  0.2934 -0.2435  1.1073
 1825SOL    HW216405   4.411   5.460   2.609  1.7889  1.9030 -3.9341
 1826SOL     OW16406   3.215   9.133   4.711  0.6733 -0.2982  0.3746
 1826SOL    HW116407   3.123   9.147   4.747  0.0816  0.4540 -1.3970
 1826SOL    HW216408   3.234   9.034   4.705 -0.1398 -0.4603  0.4271
 1827SOL     OW16409   4.206   5.782   1.994 -0.2589  0.6867  0.0218
 1827SOL    HW116410   4.204   5.881   2.002  1.9708  0.7691 -0.0635
 1827SOL    HW216411   4.125   5.743   2.038 -1.1633  2.5343  0.0331
 1828SOL     OW16412   1.568   6.671   1.425  0.4343  0.2938 -0.1131
 1828SOL    HW116413   1.599   6.709   1.338  1.3618 -0.7457 -0.2451
 1828SOL    HW216414   1.581   6.572   1.425  1.0212  0.3555  1.4483
 1829SOL     OW16415   2.677   4.379   5.951 -0.0576 -0.4602  0.3811
 1829SOL    HW116416   2.622   4.457   5.979 -1.1195 -1.0202 -0.1281
 1829SOL    HW216417   2.774   4.399   5.968 -0.2557  1.2090 -0.3314
 1830SOL     OW16418   0.619   5.118   5.035 -0.6775  0.0916 -0.1756
 1830SOL    HW116419   0.705   5.169   5.037 -1.1114  0.8172  0.6335
 1830SOL    HW216420   0.638   5.021   5.044 -0.0729  0.4539  3.7526
 1831SOL     OW16421   0.684   4.444   5.069 -0.0763 -0.0986  0.1797
 1831SOL    HW116422   0.733   4.362   5.037  1.3102  0.2715  1.2824
 1831SOL    HW216423   0.711   4.463   5.163 -1.8282  0.5548  0.5586
 1832SOL     OW16424   6.842   0.476   0.672 -0.0489 -0.6017  0.0293
 1832SOL    HW116425   6.813   0.570   0.688  1.9117  0.3211 -1.6077
 1832SOL    HW216426   6.770   0.414   0.702 -2.6004  1.5026 -1.4806
 1833SOL     OW16427   2.346   6.064   3.525  0.0255 -0.0221  0.5249
 1833SOL    HW116428   2.424   6.081   3.584  0.8096 -0.4327 -0.3770
 1833SOL    HW216429   2.378   6.030   3.437 -1.2853 -2.2271  0.8694
 1834SOL     OW16430   2.604   6.347   0.168 -0.3067 -0.0661  0.1533
 1834SOL    HW116431   2.686   6.390   0.206 -0.0166  0.8746 -1.4901
 1834SOL    HW216432   2.624   6.251   0.146  0.2441  0.0639  0.0747
 1835SOL     OW16433   8.425   3.627   1.415 -0.2583  0.0293 -0.3548
 1835SOL    HW116434   8.466   3.545   1.456 -0.9996 -0.7459 -1.1456
 1835SOL    HW216435   8.369   3.674   1.483  1.2483  0.6292  0.4906
 1836SOL     OW16436   2.826   8.202   3.124  0.2938  0.2656 -0.2363
 1836SOL    HW116437   2.746   8.255   3.097  0.9449  1.3197 -0.1711
 1836SOL    HW216438   2.909   8.248   3.090  0.8348 -1.1999 -0.9616
 1837SOL     OW16439   0.742   4.350   3.941 -0.1116 -0.0676 -0.2616
 1837SOL    HW116440   0.699   4.262   3.922 -0.0291  0.0125 -0.8232
 1837SOL    HW216441   0.828   4.357   3.891  0.3814 -0.0793  0.5723
 1838SOL     OW16442   0.553   7.121   0.117 -0.4437  0.7689 -0.2369
 1838SOL    HW116443   0.518   7.212   0.096 -3.0418  0.3095  1.9702
 1838SOL    HW216444   0.597   7.122   0.207 -0.1140 -0.0645 -0.3854
 1839SOL     OW16445   3.650   2.684   2.065 -0.4065  0.3043 -0.2359
 1839SOL    HW116446   3.575   2.650   2.121 -1.1340 -2.4328 -2.7295
 1839SOL    HW216447   3.716   2.610   2.051  0.4684  1.3636 -1.8114
 1840SOL     OW16448   8.491   7.592   0.336  0.3104 -0.5634 -0.6752
 1840SOL    HW116449   8.392   7.590   0.324  0.1083  1.7809  0.2300
 1840SOL    HW216450   8.536   7.571   0.249 -0.9574 -2.7653 -0.8146
 1841SOL     OW16451   8.719   3.952   1.972  0.2524 -0.1865  0.4447
 1841SOL    HW116452   8.720   4.042   1.928  0.4718 -0.3771  0.0613
 1841SOL    HW216453   8.646   3.897   1.932  1.8204 -1.1246 -1.2211
 1842SOL     OW16454   1.026   7.654   4.230 -0.0924 -0.3627 -0.3328
 1842SOL    HW116455   0.929   7.633   4.237  0.1339 -1.8506 -1.5093
 1842SOL    HW216456   1.069   7.638   4.319 -1.1156  1.4606  0.5220
 1843SOL     OW16457   7.613   9.355   1.898  0.1293 -0.8060  0.4547
 1843SOL    HW116458   7.566   9.438   1.930 -0.4164 -0.5416 -1.0004
 1843SOL    HW216459   7.709   9.358   1.927  0.4308  0.9569 -0.6333
 1844SOL     OW16460   6.756   9.377   5.522  0.3850 -0.0617 -0.1662
 1844SOL    HW116461   6.818   9.375   5.600  0.2441 -1.2815 -0.0709
 1844SOL    HW216462   6.698   9.296   5.524 -0.7714  0.7503 -0.6117
 1845SOL     OW16463   1.731   3.188   0.310  0.4905 -0.3682  0.4099
 1845SOL    HW116464   1.655   3.203   0.374 -0.6791  1.4204 -1.3142
 1845SOL    HW216465   1.794   3.121   0.348 -0.9664 -0.4836  2.7418
 1846SOL     OW16466   7.854   1.253   5.143 -0.4427 -0.1609 -0.1100
 1846SOL    HW116467   7.888   1.249   5.049 -1.2732 -0.0487 -0.4282
 1846SOL    HW216468   7.830   1.348   5.165 -1.5067 -0.3799 -0.2607
 1847SOL     OW16469   9.542   2.671   0.894  0.0955 -0.4772  0.3594
 1847SOL    HW116470   9.626   2.676   0.948  0.1168  1.3785  0.2021
 1847SOL    HW216471   9.555   2.718   0.807 -0.3507 -2.3269 -0.7342
 1848SOL     OW16472   8.505   1.833   2.097 -0.0815  0.2132 -0.2428
 1848SOL    HW116473   8.433   1.899   2.079  0.2614  0.7788  0.4047
 1848SOL    HW216474   8.515   1.821   2.196  0.9267  0.3840 -0.3208
 1849SOL     OW16475   1.006   4.996   5.876  0.1377  0.2612 -0.2336
 1849SOL    HW116476   0.919   4.990   5.828 -0.1498 -0.8489  0.4077
 1849SOL    HW216477   1.060   4.914   5.858  0.5045  0.3582  0.4102
 1850SOL     OW16478   8.673   4.012   4.628  0.0122  0.5617  0.0281
 1850SOL    HW116479   8.592   4.055   4.588  0.5004  0.4463 -1.1285
 1850SOL    HW216480   8.713   4.073   4.697 -0.4484  1.0800 -0.1578
 1851SOL     OW16481   1.263   6.262   6.299 -0.1285 -0.2234 -0.3102
 1851SOL    HW116482   1.317   6.345   6.288  0.6553 -0.5800  0.7171
 1851SOL    HW216483   1.238   6.225   6.210 -0.7925  1.3077 -0.7774
 1852SOL     OW16484   0.774   8.185   0.622 -0.0261  0.0766 -0.2590
 1852SOL    HW116485   0.803   8.277   0.598  0.8987  0.3079  1.6828
 1852SOL    HW216486   0.853   8.131   0.650 -0.6130 -1.1970 -0.9875
 1853SOL     OW16487   0.435   6.746   4.580 -0.4129  0.8158 -0.2264
 1853SOL    HW116488   0.493   6.823   4.555  0.8731 -0.1419 -0.2307
 1853SOL    HW216489   0.477   6.696   4.656 -1.9119  0.9171  0.6849
 1854SOL     OW16490   9.605   8.393   2.535  0.6586 -0.3821 -0.2603
 1854SOL    HW116491   9.673   8.355   2.598  1.0346  0.4358 -0.1652
 1854SOL    HW216492   9.513   8.377   2.572  0.8751  0.0975  0.5046
 1855SOL     OW16493   5.235   9.043   3.530  0.1422 -0.3352  0.1546
 1855SOL    HW116494   5.155   9.015   3.583  0.4479 -0.3752  0.5951
 1855SOL    HW216495   5.279   8.963   3.490 -0.0933 -0.3044 -0.1626
 1856SOL     OW16496   0.690   7.162   0.354 -0.1637 -0.5282 -0.5042
 1856SOL    HW116497   0.688   7.242   0.415 -4.0982 -1.8149  1.2112
 1856SOL    HW216498   0.777   7.115   0.365  0.5589  1.1919  1.5885
 1857SOL     OW16499   8.890   2.995   2.407 -0.9379 -0.2941  0.2181
 1857SOL    HW116500   8.839   2.927   2.353 -1.6581 -0.4577  1.0869
 1857SOL    HW216501   8.852   2.998   2.499  0.8334 -0.6282  0.9616
 1858SOL     OW16502   8.805   3.597   2.929 -0.2153  0.3725  0.1989
 1858SOL    HW116503   8.899   3.578   2.902 -0.3934  1.6312 -1.3391
 1858SOL    HW216504   8.790   3.563   3.022  1.3905 -0.9346  0.0058
 1859SOL     OW16505   3.084   1.438   1.694  0.5126  0.3247  0.1065
 1859SOL    HW116506   3.172   1.471   1.660  0.7942  0.8956  1.3937
 1859SOL    HW216507   3.051   1.498   1.767 -0.6495 -0.2364  0.0520
 1860SOL     OW16508   1.753   0.487   3.125  0.2081 -0.0732 -0.1603
 1860SOL    HW116509   1.795   0.533   3.046 -1.3245  1.2206 -0.2516
 1860SOL    HW216510   1.807   0.406   3.149  1.7418  0.5591 -1.3648
 1861SOL     OW16511   9.744   6.969   3.251  0.0504  0.0168 -0.1473
 1861SOL    HW116512   9.647   6.981   3.227  0.1920  1.3322 -0.0968
 1861SOL    HW216513   9.801   6.982   3.170  0.1105 -2.3615 -0.5316
 1862SOL     OW16514   8.236   3.013   1.799  0.0521 -0.5490 -0.5529
 1862SOL    HW116515   8.324   2.972   1.777  1.3171 -0.3266  3.6030
 1862SOL    HW216516   8.165   2.943   1.801  0.8165 -1.3144 -0.4131
 1863SOL     OW16517   4.993   4.269   4.240  0.6850 -0.1434 -0.4958
 1863SOL    HW116518   5.026   4.270   4.145  0.1978 -1.1244 -0.6845
 1863SOL    HW216519   4.959   4.360   4.264 -1.1294 -0.4025 -1.9653
 1864SOL     OW16520   9.161   8.462   3.748  0.2777 -0.1722 -0.3057
 1864SOL    HW116521   9.061   8.465   3.747  0.2059 -1.3055  1.2167
 1864SOL    HW216522   9.196   8.536   3.805  0.2776 -0.2585 -0.1943
 1865SOL     OW16523   9.013   6.916   2.074  0.3641  0.0737  0.1182
 1865SOL    HW116524   9.045   6.851   2.006  0.1663  0.2135 -0.1114
 1865SOL    HW216525   9.004   6.871   2.163 -0.7606 -0.4722 -0.2663
 1866SOL     OW16526   7.769   9.560   1.123 -0.3550  0.2766  0.4307
 1866SOL    HW116527   7.841   9.629   1.111 -0.8913  0.6404 -0.7743
 1866SOL    HW216528   7.762   9.504   1.041  0.0226 -1.1840  1.3798
 1867SOL     OW16529   8.471   3.792   1.876 -0.2829  1.0348 -0.1776
 1867SOL    HW116530   8.419   3.857   1.820 -0.0119  1.1096 -0.3473
 1867SOL    HW216531   8.435   3.791   1.969  0.6706  2.5550  0.2310
 1868SOL     OW16532   4.060   9.002   3.755 -0.3046 -0.1880 -0.2031
 1868SOL    HW116533   4.016   9.049   3.678 -1.0726 -1.0654 -0.3197
 1868SOL    HW216534   4.153   9.035   3.766 -0.4330  0.4755 -1.0503
 1869SOL     OW16535   2.130   9.306   4.827 -0.3978 -0.2549  0.3564
 1869SOL    HW116536   2.215   9.263   4.856 -0.3358  0.3703  1.1435
 1869SOL    HW216537   2.150   9.395   4.786 -0.7086  0.1361  1.0413
 1870SOL     OW16538   1.393   6.446   5.025  0.7070  0.1456  0.1355
 1870SOL    HW116539   1.315   6.492   4.982  0.3870  0.4664  1.0287
 1870SOL    HW216540   1.416   6.363   4.975 -0.1452  0.1093 -0.1948
 1871SOL     OW16541   5.619   8.911   2.180 -0.4628 -0.2272  0.2586
 1871SOL    HW116542   5.622   9.004   2.145  1.0237 -0.6263 -0.7487
 1871SOL    HW216543   5.596   8.848   2.105 -0.5943 -0.7482  0.7331
 1872SOL     OW16544   2.381   8.584   3.589  0.4154 -0.0758 -0.1245
 1872SOL    HW116545   2.293   8.559   3.548  0.8702  0.4331 -1.4650
 1872SOL    HW216546   2.367   8.653   3.660 -0.5065 -1.7816  1.3544
 1873SOL     OW16547   6.770   8.620   5.448  0.1781  0.2076  0.1822
 1873SOL    HW116548   6.760   8.718   5.437 -0.8930 -0.0094 -0.9277
 1873SOL    HW216549   6.711   8.573   5.382  0.2338 -1.1705  1.0929
 1874SOL     OW16550   6.267   8.345   4.598 -0.2493  0.2345 -0.0663
 1874SOL    HW116551   6.327   8.387   4.530  1.4058  0.7854  1.7032
 1874SOL    HW216552   6.269   8.246   4.586  1.1284  0.2330  0.0582
 1875SOL     OW16553   8.005   3.134   2.411 -0.4100  0.1760  0.0414
 1875SOL    HW116554   7.912   3.158   2.438 -0.5670  1.4890 -1.5853
 1875SOL    HW216555   8.070   3.194   2.458 -0.6202  1.6855 -1.5211
 1876SOL     OW16556   5.676   8.626   5.174  0.1778  0.0200  0.4726
 1876SOL    HW116557   5.774   8.607   5.165  0.4765  1.6339  0.0243
 1876SOL    HW216558   5.623   8.560   5.121  1.0133 -0.9676  0.8647
 1877SOL     OW16559   5.522   1.917   3.514 -0.0051 -0.1790 -0.4986
 1877SOL    HW116560   5.555   1.905   3.420 -0.5139 -0.0425 -0.6974
 1877SOL    HW216561   5.478   1.833   3.545 -1.3085  0.3076 -0.9810
 1878SOL     OW16562   6.131   7.418   4.676  0.0340  0.6266 -0.6212
 1878SOL    HW116563   6.213   7.467   4.707  0.6985  0.4505 -2.0721
 1878SOL    HW216564   6.130   7.414   4.576 -0.0370 -2.2304 -0.5598
 1879SOL     OW16565   8.745   0.624   3.215  0.1391  0.1775 -0.3928
 1879SOL    HW116566   8.721   0.659   3.306 -0.2523  1.1290 -0.8627
 1879SOL    HW216567   8.834   0.660   3.187  1.0222 -1.4194  0.3043
 1880SOL     OW16568   7.296   9.248   2.063  0.1015 -0.2499 -0.3136
 1880SOL    HW116569   7.329   9.340   2.045  1.6050 -0.5571  0.7361
 1880SOL    HW216570   7.287   9.235   2.162  0.7713 -1.5126 -0.4055
 1881SOL     OW16571   3.355   6.319   3.395  0.1265 -0.5491 -0.4531
 1881SOL    HW116572   3.453   6.309   3.409  0.0538  0.3307  0.7999
 1881SOL    HW216573   3.336   6.405   3.348 -0.1690  0.2856  1.1611
 1882SOL     OW16574   2.870   5.869   1.840 -0.5400  0.0514 -0.3005
 1882SOL    HW116575   2.904   5.863   1.934  0.9768 -0.0773 -0.8333
 1882SOL    HW216576   2.902   5.790   1.787 -0.7936  0.4732 -1.1014
 1883SOL     OW16577   5.896   1.976   3.102  0.4423 -0.4714 -0.2709
 1883SOL    HW116578   5.957   2.020   3.035  0.6551 -0.8596 -0.3374
 1883SOL    HW216579   5.946   1.902   3.148 -0.1215 -1.0936 -0.6545
 1884SOL     OW16580   5.525   1.140   2.026  0.5567 -0.0685 -0.2453
 1884SOL    HW116581   5.558   1.114   2.116  1.2984  0.1194 -0.4579
 1884SOL    HW216582   5.514   1.057   1.970 -2.3790 -0.4375  0.8225
 1885SOL     OW16583   8.197   1.175   0.545  0.2758  0.3658  0.2109
 1885SOL    HW116584   8.162   1.212   0.459  0.7725  0.1668 -0.0766
 1885SOL    HW216585   8.203   1.076   0.538  0.2461  0.3440  0.5027
 1886SOL     OW16586   3.843   2.278   2.952  0.1652 -0.6425 -0.4773
 1886SOL    HW116587   3.795   2.257   3.038 -0.0667 -0.6790 -0.6138
 1886SOL    HW216588   3.922   2.336   2.971  0.5685 -1.2987 -0.1432
 1887SOL     OW16589   9.345   6.839   1.801 -0.3805  0.0211 -0.6167
 1887SOL    HW116590   9.342   6.857   1.703  1.6241  0.6379 -0.5826
 1887SOL    HW216591   9.434   6.801   1.825 -0.1520  1.7393  1.2821
 1888SOL     OW16592   8.424   1.910   5.403 -0.2940 -0.2017  0.4477
 1888SOL    HW116593   8.398   2.004   5.427  0.4438  0.4771 -1.3501
 1888SOL    HW216594   8.515   1.891   5.439  0.0598  0.1965 -0.2296
 1889SOL     OW16595   0.325   2.340   2.642  0.6152  0.4119  0.0734
 1889SOL    HW116596   0.298   2.433   2.665  0.1313  0.1939  0.3926
 1889SOL    HW216597   0.411   2.342   2.590 -0.0077  1.0999 -0.9530
 1890SOL     OW16598   7.120   2.144   3.950 -0.4885  0.3512 -0.3421
 1890SOL    HW116599   7.073   2.150   4.038  0.2894 -1.3071  0.2149
 1890SOL    HW216600   7.185   2.220   3.941 -0.4879  0.4616  0.5707
 1891SOL     OW16601   3.526   3.287   4.548  0.4048 -0.1835  0.5126
 1891SOL    HW116602   3.621   3.313   4.530  0.2273  0.8613  1.0111
 1891SOL    HW216603   3.465   3.358   4.514 -0.1894 -0.7177  0.4487
 1892SOL     OW16604   1.710   7.988   2.037 -0.0368 -0.0718 -0.0019
 1892SOL    HW116605   1.759   7.987   2.124  0.4192  2.4247 -0.2026
 1892SOL    HW216606   1.626   7.935   2.046  1.0389 -1.6325  1.3043
 1893SOL     OW16607   1.430   9.089   3.034  0.9415 -0.1213 -0.2388
 1893SOL    HW116608   1.481   9.110   3.118 -0.5612 -2.0222  1.1849
 1893SOL    HW216609   1.442   9.164   2.969  2.7032  1.0733  1.3843
 1894SOL     OW16610   0.977   5.042   1.155  0.3386  0.1026 -0.2233
 1894SOL    HW116611   0.972   5.066   1.252 -0.3492 -0.1050 -0.1992
 1894SOL    HW216612   0.924   5.108   1.102  1.9964  1.1224 -0.6394
 1895SOL     OW16613   0.077   0.705   3.171 -0.0538  0.7033 -0.6063
 1895SOL    HW116614   0.165   0.670   3.139  0.5482  1.4052  0.2231
 1895SOL    HW216615   0.027   0.632   3.218  0.9145  0.7764  0.5644
 1896SOL     OW16616   0.107   4.844   0.648  0.0547 -0.4308  0.3293
 1896SOL    HW116617   0.176   4.916   0.639  0.1826 -0.4458  1.1314
 1896SOL    HW216618   0.149   4.763   0.690 -1.0552  0.5051  3.4275
 1897SOL     OW16619   7.959   5.917   2.270 -0.6211 -0.4806 -0.8076
 1897SOL    HW116620   7.959   5.851   2.195  0.2795  0.2210 -1.4395
 1897SOL    HW216621   8.046   5.911   2.320 -0.5090  0.2581 -0.9059
 1898SOL     OW16622   0.427   6.843   0.503 -0.3376 -0.3168 -0.3575
 1898SOL    HW116623   0.384   6.933   0.494 -1.4346 -0.9695 -1.8141
 1898SOL    HW216624   0.435   6.819   0.599  1.3332  1.9920  0.1121
 1899SOL     OW16625   0.811   4.199   5.048  0.1544  0.5233 -0.4024
 1899SOL    HW116626   0.906   4.196   5.076  0.4110  1.7334 -1.1456
 1899SOL    HW216627   0.752   4.207   5.128  0.5932 -1.4290  0.1515
 1900SOL     OW16628   2.332   3.861   0.799  0.1400  0.0481  0.1522
 1900SOL    HW116629   2.394   3.783   0.809 -2.2984 -1.9113  0.4429
 1900SOL    HW216630   2.281   3.874   0.884 -2.4807 -0.7406 -1.2517
 1901SOL     OW16631   1.418   1.037   3.974  0.5677  0.4841  0.2068
 1901SOL    HW116632   1.386   1.049   3.879 -0.2880 -1.2739  0.2672
 1901SOL    HW216633   1.407   1.124   4.023  0.1133  1.1455 -1.0260
 1902SOL     OW16634   4.152   7.919   2.293  0.2377  0.0752 -0.1903
 1902SOL    HW116635   4.187   8.001   2.338 -0.3533  0.0049  0.3961
 1902SOL    HW216636   4.093   7.869   2.355  0.0321 -0.4321 -0.7864
 1903SOL     OW16637   3.109   6.970   0.167 -0.0060  0.1144  0.0304
 1903SOL    HW116638   3.126   7.016   0.254  0.1624  1.3980 -0.6655
 1903SOL    HW216639   3.197   6.951   0.122 -0.0539 -1.2776  0.5021
 1904SOL     OW16640   4.069   1.220   4.498  0.0010 -0.5771  0.5663
 1904SOL    HW116641   4.072   1.247   4.402 -0.6669 -2.3940  0.0214
 1904SOL    HW216642   3.985   1.256   4.540  0.8908  1.2587  0.8062
 1905SOL     OW16643   3.220   6.752   0.553 -0.3556  0.4542  0.2451
 1905SOL    HW116644   3.128   6.718   0.573 -1.0077  1.4346 -1.0034
 1905SOL    HW216645   3.214   6.843   0.511  1.0104 -0.6450 -2.5192
 1906SOL     OW16646   7.656   2.562   3.787 -0.0952 -0.1192  0.7325
 1906SOL    HW116647   7.736   2.558   3.846 -0.1212  2.2527  0.9412
 1906SOL    HW216648   7.597   2.639   3.813 -0.9368 -0.0173 -1.3145
 1907SOL     OW16649   9.802   2.173   0.501 -0.4308  0.1438  0.1320
 1907SOL    HW116650   9.878   2.220   0.457  0.2632 -0.3572  0.7829
 1907SOL    HW216651   9.810   2.182   0.600 -1.0439 -0.1712  0.2116
 1908SOL     OW16652   1.241   1.723   4.428 -0.0053  0.0717 -0.5724
 1908SOL    HW116653   1.238   1.821   4.444 -1.0701 -0.1960  0.8986
 1908SOL    HW216654   1.220   1.674   4.512  1.4660 -1.4418 -1.0389
 1909SOL     OW16655   2.191   8.929   3.848  0.6662 -0.4169  0.1387
 1909SOL    HW116656   2.236   8.998   3.790 -2.5008  1.4135 -0.2532
 1909SOL    HW216657   2.172   8.970   3.937 -0.5598 -1.0197  0.1572
 1910SOL     OW16658   3.896   8.556   3.453  0.4743 -0.1881 -0.5434
 1910SOL    HW116659   3.872   8.470   3.407  1.9072 -2.0033  2.0182
 1910SOL    HW216660   3.959   8.607   3.395  0.6929 -1.5158 -1.5152
 1911SOL     OW16661   8.213   4.442   1.609 -0.3284  0.4032 -0.3589
 1911SOL    HW116662   8.192   4.523   1.554 -3.0499  0.0092  0.0088
 1911SOL    HW216663   8.199   4.360   1.554  0.4991  0.1126 -0.1458
 1912SOL     OW16664   1.195   6.242   4.846  0.1708  0.1439  0.3627
 1912SOL    HW116665   1.118   6.185   4.875 -0.3356  0.0619 -1.0639
 1912SOL    HW216666   1.189   6.331   4.892 -0.5489 -0.0121  0.5859
 1913SOL     OW16667   4.135   8.456   0.919  0.4456  0.0955 -0.1418
 1913SOL    HW116668   4.161   8.423   1.010  0.2416  0.9336  0.2208
 1913SOL    HW216669   4.037   8.470   0.915  0.7443  2.6992  0.4054
 1914SOL     OW16670   5.577   1.046   4.312  0.3070 -0.4198  0.1825
 1914SOL    HW116671   5.488   1.001   4.306  0.0980 -0.0571  0.4975
 1914SOL    HW216672   5.566   1.135   4.358  0.6301  0.1607 -0.8518
 1915SOL     OW16673   4.242   2.558   4.583 -0.6082  0.0895 -0.1223
 1915SOL    HW116674   4.161   2.570   4.527 -0.2854 -0.8921 -0.7994
 1915SOL    HW216675   4.321   2.601   4.538 -0.1450 -1.5622 -0.9172
 1916SOL     OW16676   8.416   9.197   2.356 -0.0393 -0.2077  0.0756
 1916SOL    HW116677   8.398   9.295   2.367 -0.7552 -0.4015  0.7029
 1916SOL    HW216678   8.333   9.145   2.376  0.1892 -0.9223 -0.7593
 1917SOL     OW16679   4.298   6.850   2.623  0.1008  0.2596  0.4107
 1917SOL    HW116680   4.265   6.759   2.598  0.6170 -0.1598  1.2319
 1917SOL    HW216681   4.367   6.842   2.695  1.3313  1.1683 -0.6205
 1918SOL     OW16682   8.303   6.899   2.586 -0.2412 -0.5487 -0.1930
 1918SOL    HW116683   8.228   6.935   2.641  0.4378 -0.1876  0.4984
 1918SOL    HW216684   8.287   6.921   2.490 -0.9544 -0.3628 -0.0375
 1919SOL     OW16685   8.832   0.756   0.257 -0.2538  0.6758  0.4324
 1919SOL    HW116686   8.741   0.794   0.271 -0.3558  0.3339  0.7356
 1919SOL    HW216687   8.826   0.678   0.194 -0.1651  0.6776  0.4220
 1920SOL     OW16688   0.953   7.631   3.073 -0.2469 -0.3394  0.3724
 1920SOL    HW116689   0.989   7.704   3.131 -1.0355 -1.2673  2.0493
 1920SOL    HW216690   0.858   7.650   3.050  0.0542  0.0142 -0.6299
 1921SOL     OW16691   5.123   8.352   3.742 -0.2908 -0.0893  0.3381
 1921SOL    HW116692   5.118   8.449   3.715 -0.7043  0.0497  0.9000
 1921SOL    HW216693   5.063   8.298   3.684 -2.0075  0.3657  1.6388
 1922SOL     OW16694   5.034   3.218   2.305 -0.7816  0.3554 -0.1920
 1922SOL    HW116695   4.980   3.135   2.289  0.9302 -1.0387  1.0525
 1922SOL    HW216696   4.974   3.291   2.337 -2.0172 -1.0198  0.7193
 1923SOL     OW16697   6.959   8.118   3.256  0.2220  0.2966  0.0644
 1923SOL    HW116698   6.861   8.104   3.239  0.0886  1.4877 -0.1502
 1923SOL    HW216699   6.971   8.182   3.332  0.8421 -0.1597  0.3606
 1924SOL     OW16700   9.575   1.814   2.101 -0.0929 -0.1433 -0.0132
 1924SOL    HW116701   9.660   1.783   2.143 -0.1303 -1.4846 -0.8900
 1924SOL    HW216702   9.588   1.906   2.064  1.4073 -0.8796 -1.3622
 1925SOL     OW16703   8.837   6.366   6.029  1.1227 -0.2090  0.1527
 1925SOL    HW116704   8.865   6.384   5.935 -0.4782  1.8855  0.0414
 1925SOL    HW216705   8.836   6.452   6.081 -0.3545 -0.9540  1.4129
 1926SOL     OW16706   2.609   6.552   1.591  0.3459 -0.6548  0.0825
 1926SOL    HW116707   2.607   6.631   1.529  1.0551  0.1228  1.0413
 1926SOL    HW216708   2.520   6.543   1.636  0.3648 -0.2136  0.2086
 1927SOL     OW16709   7.425   1.378   3.396  0.1916  0.2720 -0.1094
 1927SOL    HW116710   7.400   1.410   3.305  0.1552 -0.9512 -0.5252
 1927SOL    HW216711   7.436   1.457   3.457 -1.0821  1.0174 -0.8318
 1928SOL     OW16712   4.225   6.650   2.236 -0.2019 -0.2736  0.1996
 1928SOL    HW116713   4.281   6.719   2.191 -1.2523  1.0475  0.8791
 1928SOL    HW216714   4.237   6.562   2.190  0.1664  0.6400 -1.4742
 1929SOL     OW16715   7.674   1.934   2.051 -0.4788  0.6403  0.2254
 1929SOL    HW116716   7.767   1.902   2.066 -1.7417 -2.1593  2.3442
 1929SOL    HW216717   7.663   2.026   2.091  1.3792  1.0632 -0.2080
 1930SOL     OW16718   7.420   9.661   5.269 -0.1016 -0.3121 -0.0713
 1930SOL    HW116719   7.375   9.692   5.185 -2.3695  0.5662  1.4092
 1930SOL    HW216720   7.379   9.575   5.299  1.5387 -1.2533 -0.5080
 1931SOL     OW16721   9.787   4.333   3.480  0.2313  0.2075  0.2203
 1931SOL    HW116722   9.748   4.419   3.447 -1.9257 -0.3526  1.1986
 1931SOL    HW216723   9.882   4.326   3.450  1.3803  4.2151  2.5389
 1932SOL     OW16724   5.115   4.603   0.688 -0.1930 -0.3283 -0.0233
 1932SOL    HW116725   5.023   4.627   0.716 -0.5245  0.2325 -1.5406
 1932SOL    HW216726   5.139   4.651   0.603  1.4679 -0.5015  0.3134
 1933SOL     OW16727   3.023   6.538   2.125 -0.4557  0.2858 -0.9675
 1933SOL    HW116728   2.997   6.444   2.103  0.2414  0.2488 -1.6527
 1933SOL    HW216729   3.032   6.590   2.040  0.4392  0.6324 -0.6639
 1934SOL     OW16730   1.564   7.136   0.350 -0.1398  0.3884 -0.1568
 1934SOL    HW116731   1.597   7.221   0.309  0.3768  0.5234  0.5419
 1934SOL    HW216732   1.624   7.061   0.323 -0.1284  0.3789 -0.1031
 1935SOL     OW16733   2.499   0.371   4.258 -0.0547  0.7160 -0.4926
 1935SOL    HW116734   2.485   0.335   4.166  1.0335  0.7819 -0.6968
 1935SOL    HW216735   2.583   0.332   4.296  0.1086  1.5538  0.0253
 1936SOL     OW16736   0.539   5.782   3.455  0.5247  0.1613 -0.2987
 1936SOL    HW116737   0.525   5.827   3.367  1.6301 -0.9794 -1.0641
 1936SOL    HW216738   0.629   5.739   3.458  0.3780 -0.0955  1.2750
 1937SOL     OW16739   2.540   3.970   2.263 -0.6922  0.3817  0.4348
 1937SOL    HW116740   2.529   3.906   2.187  1.4894 -0.3935  0.7254
 1937SOL    HW216741   2.575   4.058   2.228  0.3200  0.0221  0.5254
 1938SOL     OW16742   0.387   2.027   1.913 -0.8386  0.4167  0.2186
 1938SOL    HW116743   0.438   2.049   1.829 -1.0450  1.2065  0.2936
 1938SOL    HW216744   0.451   2.020   1.990 -0.6490 -0.3047  0.0024
 1939SOL     OW16745   5.103   8.908   3.738  0.4106 -0.5060 -0.1418
 1939SOL    HW116746   5.184   8.850   3.735  0.0304 -0.9351 -2.9352
 1939SOL    HW216747   5.021   8.852   3.729 -0.0340  0.2787 -1.0573
 1940SOL     OW16748   3.999   4.765   1.466  0.7434  0.1699 -0.1861
 1940SOL    HW116749   4.007   4.864   1.479  0.5101  0.4429 -1.9280
 1940SOL    HW216750   4.088   4.729   1.437  0.4741  0.1017 -0.9307
 1941SOL     OW16751   2.671   6.911   1.121  0.0325  0.4203 -0.4094
 1941SOL    HW116752   2.593   6.879   1.067 -1.9684  1.9753  1.4477
 1941SOL    HW216753   2.644   6.918   1.217  2.1667  1.9433  0.1134
 1942SOL     OW16754   0.966   7.663   4.986  0.0106  0.2005 -0.3374
 1942SOL    HW116755   1.058   7.699   5.001 -0.1864  0.6908 -0.2977
 1942SOL    HW216756   0.957   7.574   5.031  0.8427 -0.4009 -1.3505
 1943SOL     OW16757   5.304   7.531   3.011  0.8061  0.1594 -0.4532
 1943SOL    HW116758   5.374   7.504   3.078 -0.4565  0.1593  0.8964
 1943SOL    HW216759   5.291   7.630   3.014  2.1803  0.4074 -2.1516
 1944SOL     OW16760   5.126   2.907   3.905 -0.3928 -0.0804  0.0907
 1944SOL    HW116761   5.119   2.861   3.817  0.8528  0.9606 -0.5615
 1944SOL    HW216762   5.040   2.956   3.924 -0.4646  0.1471 -0.8028
 1945SOL     OW16763   6.565   0.711   2.616 -0.2632  0.6770 -0.0656
 1945SOL    HW116764   6.657   0.677   2.598 -0.3998  0.7419 -0.9046
 1945SOL    HW216765   6.565   0.765   2.700 -0.2842 -2.3870  1.9582
 1946SOL     OW16766   4.701   2.957   2.441 -0.0883  0.2208  0.5847
 1946SOL    HW116767   4.720   2.872   2.490  0.6699 -0.2269 -0.4510
 1946SOL    HW216768   4.781   2.981   2.385 -0.6128  1.1771  0.2372
 1947SOL     OW16769   3.254   8.639   1.197 -0.6738 -0.5924  0.6178
 1947SOL    HW116770   3.233   8.728   1.238  0.0072 -0.6368  1.0667
 1947SOL    HW216771   3.169   8.594   1.171 -0.9993  0.5979 -0.4850
 1948SOL     OW16772   5.165   8.997   2.762  0.0865  0.0492 -0.3320
 1948SOL    HW116773   5.214   9.076   2.726 -2.2151  1.1344 -1.2031
 1948SOL    HW216774   5.102   8.963   2.692 -1.2677 -0.5525  1.1428
 1949SOL     OW16775   2.179   5.255   2.203  0.0323  0.2781  0.1591
 1949SOL    HW116776   2.168   5.351   2.175  0.7419  0.5517  0.8186
 1949SOL    HW216777   2.263   5.245   2.255  0.3163 -0.8499 -0.5150
 1950SOL     OW16778   0.920   7.814   0.769 -0.5324  0.2576  0.5614
 1950SOL    HW116779   0.985   7.795   0.843 -0.2977  0.6285  0.4517
 1950SOL    HW216780   0.947   7.898   0.722 -0.2897 -0.3403 -0.3838
 1951SOL     OW16781   3.053   4.166   4.487  0.6910 -0.0753  0.2425
 1951SOL    HW116782   3.147   4.193   4.509  0.9119 -0.7845  0.1842
 1951SOL    HW216783   3.027   4.088   4.544  0.4107 -0.3692 -0.2840
 1952SOL     OW16784   3.055   1.595   1.934 -0.1407  0.1492 -0.3826
 1952SOL    HW116785   3.007   1.580   2.020 -0.0405 -0.0040 -0.3538
 1952SOL    HW216786   3.027   1.684   1.895 -0.5654 -0.0068 -0.4433
 1953SOL     OW16787   1.898   5.168   4.625  0.4542  0.3483  0.0106
 1953SOL    HW116788   1.805   5.133   4.631  0.8923 -0.8935 -0.2481
 1953SOL    HW216789   1.905   5.254   4.676 -0.7076  0.2017  0.4309
 1954SOL     OW16790   7.690   3.097   3.238 -0.0859 -0.3530  0.0843
 1954SOL    HW116791   7.705   3.000   3.255  0.3442 -0.5545 -1.3676
 1954SOL    HW216792   7.719   3.150   3.317  1.2989 -1.2805  0.2166
 1955SOL     OW16793   9.486   6.470   4.335 -0.1735 -0.0976 -0.1662
 1955SOL    HW116794   9.433   6.496   4.254  0.4465  0.6792 -0.3268
 1955SOL    HW216795   9.542   6.390   4.314 -0.5683 -0.3485 -0.2758
 1956SOL     OW16796   8.059   4.953   0.749 -0.1765  0.4875 -0.0710
 1956SOL    HW116797   8.051   4.853   0.745  3.1817  0.1321  0.2311
 1956SOL    HW216798   7.990   4.989   0.812 -0.3226 -1.8131  1.1722
 1957SOL     OW16799   0.464   6.967   4.220 -0.0588 -0.3928 -0.2750
 1957SOL    HW116800   0.401   6.895   4.192 -0.4274 -0.1777 -0.0059
 1957SOL    HW216801   0.436   7.004   4.308 -1.0311  1.4063 -1.2948
 1958SOL     OW16802   0.130   6.382   1.863 -0.2300  0.1254  0.4001
 1958SOL    HW116803   0.140   6.396   1.961  2.2880 -0.1473  0.2193
 1958SOL    HW216804   0.218   6.399   1.818 -1.1997 -0.3481 -1.7318
 1959SOL     OW16805   6.920   1.469   2.013 -0.1829  0.5213  0.1738
 1959SOL    HW116806   6.931   1.568   2.020 -0.3847  0.4525  1.6397
 1959SOL    HW216807   6.824   1.448   1.995 -0.4507  0.5353  1.5257
 1960SOL     OW16808   8.038   8.428   4.679  0.1308 -0.4082 -0.0532
 1960SOL    HW116809   8.033   8.527   4.694  0.8131 -0.6104  1.7034
 1960SOL    HW216810   8.095   8.409   4.599 -0.3416  0.6223 -0.6484
 1961SOL     OW16811   3.410   8.153   3.448 -0.0017  0.3574  0.3780
 1961SOL    HW116812   3.494   8.165   3.394 -0.2534 -0.1432 -0.1328
 1961SOL    HW216813   3.375   8.243   3.474 -1.1262  0.7481 -2.2484
 1962SOL     OW16814   6.794   4.452   0.502  0.1574 -0.3402 -0.4657
 1962SOL    HW116815   6.776   4.418   0.594 -2.5897  0.3924 -0.6937
 1962SOL    HW216816   6.867   4.521   0.505  1.4409 -1.7325  0.8489
 1963SOL     OW16817   2.494   0.946   1.958 -0.3017  0.3325 -0.0804
 1963SOL    HW116818   2.586   0.932   1.994  0.1032  0.7468 -0.9479
 1963SOL    HW216819   2.494   0.934   1.859 -1.5561 -1.4943  0.1135
 1964SOL     OW16820   2.516   4.511   2.623 -0.4825  0.1562  0.3279
 1964SOL    HW116821   2.448   4.544   2.557 -0.0959  1.3968  0.5488
 1964SOL    HW216822   2.520   4.573   2.701  0.2015 -0.4530  0.7847
 1965SOL     OW16823   2.904   1.338   4.065 -0.2303  0.2149  0.1013
 1965SOL    HW116824   2.822   1.355   4.010 -0.5628  0.4929  0.6670
 1965SOL    HW216825   2.983   1.378   4.020 -0.1593 -1.3342 -1.1763
 1966SOL     OW16826   1.715   9.272   3.996  0.5424 -0.1798  0.3579
 1966SOL    HW116827   1.702   9.191   3.940  1.2090  0.1558 -0.2783
 1966SOL    HW216828   1.806   9.271   4.037  0.1002 -0.3733  1.3586
 1967SOL     OW16829   2.373   4.458   6.011  0.0714 -0.2337  0.0328
 1967SOL    HW116830   2.452   4.507   6.049  0.7532 -0.4199 -1.1129
 1967SOL    HW216831   2.379   4.361   6.036  1.3351 -0.6535 -1.7807
 1968SOL     OW16832   2.050   1.030   1.703 -0.0315  0.0792  0.4203
 1968SOL    HW116833   2.075   1.106   1.764 -1.5623  1.4142 -0.5836
 1968SOL    HW216834   2.002   0.960   1.755 -2.7954  1.9530  0.4957
 1969SOL     OW16835   1.277   7.412   4.030 -0.4587 -0.2075 -0.2748
 1969SOL    HW116836   1.280   7.405   4.130 -2.3765 -2.1793 -0.3377
 1969SOL    HW216837   1.249   7.505   4.004  0.3793  0.4134  0.9978
 1970SOL     OW16838   8.227   7.455   5.145  0.1234 -0.2541 -0.1328
 1970SOL    HW116839   8.192   7.536   5.098 -1.1748  1.3286  3.4154
 1970SOL    HW216840   8.303   7.482   5.205 -1.0790 -1.4089  1.9703
 1971SOL     OW16841   7.036   0.255   3.479  0.0666  0.0761  0.0230
 1971SOL    HW116842   7.038   0.355   3.478  1.9435  0.0552 -0.7191
 1971SOL    HW216843   6.950   0.223   3.441 -1.0799  1.4231  1.4474
 1972SOL     OW16844   2.308   0.813   4.143  0.2107  0.4390  0.5930
 1972SOL    HW116845   2.339   0.730   4.189  1.7683  0.6827  0.0125
 1972SOL    HW216846   2.213   0.802   4.115 -0.1748 -0.4200  2.2022
 1973SOL     OW16847   1.732   6.259   4.672  0.0948 -0.3379  0.1712
 1973SOL    HW116848   1.725   6.292   4.766  1.4055  0.1382  0.1103
 1973SOL    HW216849   1.641   6.257   4.631 -0.6207 -1.5010  1.7519
 1974SOL     OW16850   9.268   8.507   2.386 -0.0415  0.4918 -0.2576
 1974SOL    HW116851   9.309   8.570   2.453  0.4385  0.6246 -0.6710
 1974SOL    HW216852   9.305   8.415   2.400 -0.0659  0.4853 -0.2406
 1975SOL     OW16853   8.356   2.558   4.538  0.0620  0.5427  0.2871
 1975SOL    HW116854   8.423   2.522   4.602 -0.8685 -0.2020  0.8448
 1975SOL    HW216855   8.315   2.483   4.486 -0.2980  0.9990 -0.0971
 1976SOL     OW16856   0.313   0.442   1.442 -0.0005  0.1626  0.1347
 1976SOL    HW116857   0.299   0.419   1.538 -0.1843  1.0462  0.3250
 1976SOL    HW216858   0.233   0.493   1.408 -0.7817 -1.7894 -1.0169
 1977SOL     OW16859   4.276   1.533   4.299 -0.3514 -0.2089 -1.2132
 1977SOL    HW116860   4.247   1.625   4.326  1.7434  0.4900 -1.1964
 1977SOL    HW216861   4.314   1.485   4.379  2.4684  0.5058 -2.0680
 1978SOL     OW16862   2.496   8.429   1.012  0.2942  0.1936 -0.6849
 1978SOL    HW116863   2.530   8.339   0.984 -0.8708 -0.3675 -0.3140
 1978SOL    HW216864   2.396   8.428   1.014  0.2951  1.2428  0.1544
 1979SOL     OW16865   9.289   7.979   6.682  0.4150 -0.0361  0.9781
 1979SOL    HW116866   9.272   7.927   6.766  0.2860 -0.7184  0.5358
 1979SOL    HW216867   9.252   7.928   6.604 -0.0592  0.9145  0.5841
 1980SOL     OW16868   3.760   3.946   0.436  0.0554 -0.2401 -0.0638
 1980SOL    HW116869   3.668   3.916   0.464 -0.5495  0.3638 -1.3662
 1980SOL    HW216870   3.776   4.039   0.469 -0.9136  0.7234 -2.1977
 1981SOL     OW16871   5.894   8.385   3.895  0.2564 -0.2423 -0.2837
 1981SOL    HW116872   5.862   8.301   3.939  0.8645 -1.3796 -1.9500
 1981SOL    HW216873   5.974   8.420   3.945  0.7883 -1.3737 -0.3195
 1982SOL     OW16874   1.512   7.498   5.213  0.1118 -0.6212 -0.1118
 1982SOL    HW116875   1.582   7.429   5.234 -0.3796 -1.1685 -0.2428
 1982SOL    HW216876   1.554   7.588   5.210  0.8008 -0.9368 -0.1085
 1983SOL     OW16877   2.946   3.484   4.514  0.0212  0.3886 -0.3180
 1983SOL    HW116878   3.033   3.462   4.557  0.0200  0.2296 -0.3972
 1983SOL    HW216879   2.947   3.579   4.482  0.6946 -0.0445 -1.6182
 1984SOL     OW16880   4.143   2.627   3.462  0.3694 -0.2572  1.0535
 1984SOL    HW116881   4.136   2.528   3.451 -0.9938 -0.0747  0.2597
 1984SOL    HW216882   4.229   2.659   3.424  0.5974 -1.0713  0.8792
 1985SOL     OW16883   8.488   9.556   1.426  1.1526  0.1013 -0.0880
 1985SOL    HW116884   8.465   9.576   1.331  0.2703  1.1810  0.3516
 1985SOL    HW216885   8.585   9.576   1.442  1.0096  1.1101 -0.4438
 1986SOL     OW16886   3.644   7.597   1.466 -0.4775 -0.0238 -0.0302
 1986SOL    HW116887   3.550   7.573   1.445 -0.5367  0.1394  0.0505
 1986SOL    HW216888   3.647   7.687   1.510 -0.4438 -0.7735  1.5287
 1987SOL     OW16889   9.990   6.008   6.119 -0.0527 -0.0330  0.0267
 1987SOL    HW116890   9.997   6.046   6.027 -0.7353 -0.8630 -0.3801
 1987SOL    HW216891  10.014   6.078   6.186 -0.0272  0.7195 -0.7543
 1988SOL     OW16892   7.861   7.030   3.816  0.4639  0.3686 -0.1567
 1988SOL    HW116893   7.915   7.106   3.780  0.4696  0.2977 -0.2971
 1988SOL    HW216894   7.767   7.062   3.832  0.6190  0.5686  0.3625
 1989SOL     OW16895   2.220   7.990   2.143 -0.6983 -0.2486 -0.4542
 1989SOL    HW116896   2.191   7.895   2.153 -0.0399 -0.7896 -3.2969
 1989SOL    HW216897   2.306   7.994   2.092 -0.0398  1.8083  0.7749
 1990SOL     OW16898   0.819   8.608   2.464 -0.0359 -0.9937  0.1426
 1990SOL    HW116899   0.781   8.700   2.464  1.3259 -0.3372 -3.8380
 1990SOL    HW216900   0.877   8.595   2.545 -0.5031  1.4858  0.9136
 1991SOL     OW16901   2.665   0.644   3.231 -0.4504  0.6225 -0.1915
 1991SOL    HW116902   2.740   0.630   3.166 -1.4348  0.7703 -1.3830
 1991SOL    HW216903   2.651   0.742   3.245 -0.1444  0.5877  0.3594
 1992SOL     OW16904   2.279   0.783   2.985  0.2671 -0.5205 -0.4964
 1992SOL    HW116905   2.185   0.818   2.989  0.0250 -1.2207  0.0108
 1992SOL    HW216906   2.343   0.859   2.974 -0.0821  0.3456  2.7742
 1993SOL     OW16907   9.951   6.623   3.855 -0.5392 -0.6154  0.1268
 1993SOL    HW116908   9.955   6.721   3.836 -1.0281 -0.2863  1.6362
 1993SOL    HW216909   9.915   6.575   3.775  0.1092  0.3813 -0.7741
 1994SOL     OW16910   8.053   0.840   4.067 -0.6152 -0.0932 -0.2674
 1994SOL    HW116911   8.128   0.792   4.112 -1.2611 -0.5012  0.3701
 1994SOL    HW216912   8.089   0.923   4.024  0.3047 -0.5743 -0.4522
 1995SOL     OW16913   3.477   8.615   1.029 -0.2761 -0.4004 -0.2349
 1995SOL    HW116914   3.547   8.656   1.089 -1.3829  0.8596  0.2231
 1995SOL    HW216915   3.389   8.617   1.075 -0.8818 -0.7282 -1.3663
 1996SOL     OW16916   8.491   9.886   5.058  0.5105 -0.3019 -0.3669
 1996SOL    HW116917   8.486   9.926   4.967 -2.0639 -0.5178 -0.3528
 1996SOL    HW216918   8.584   9.897   5.094  1.5598 -0.2341 -2.9925
 1997SOL     OW16919   2.977   4.316   0.776 -0.1423  0.4411 -0.2524
 1997SOL    HW116920   2.935   4.245   0.720 -0.1915  0.2776 -0.0067
 1997SOL    HW216921   3.056   4.279   0.825 -0.0144  0.6188 -0.3194
 1998SOL     OW16922   2.479   3.598   4.166  0.5875 -0.1296 -0.3121
 1998SOL    HW116923   2.566   3.644   4.186  0.2421  0.0107  0.9207
 1998SOL    HW216924   2.452   3.617   4.072  2.1165 -0.5298 -0.8564
 1999SOL     OW16925   2.738   2.615   3.249 -0.1334  0.2924  0.4700
 1999SOL    HW116926   2.692   2.561   3.178  1.4331 -0.5254  0.0603
 1999SOL    HW216927   2.732   2.712   3.225 -0.7967  0.1297 -0.0620
 2000SOL     OW16928   4.197   6.945   4.562 -0.4496  0.1363 -0.3765
 2000SOL    HW116929   4.201   6.909   4.468 -2.1145  0.7739 -0.7053
 2000SOL    HW216930   4.289   6.946   4.601  0.0298 -1.7695 -1.3861
 2001SOL     OW16931   0.205   6.846   5.004 -0.3986 -0.4386 -0.3163
 2001SOL    HW116932   0.168   6.908   4.936 -0.0030 -1.2640 -1.3036
 2001SOL    HW216933   0.162   6.756   4.995 -0.7143 -0.4211  0.8660
 2002SOL     OW16934   2.454   3.833   6.228  0.4419  0.2003  0.2769
 2002SOL    HW116935   2.516   3.759   6.253 -0.6697 -1.0450 -0.5552
 2002SOL    HW216936   2.363   3.795   6.208  0.2158  1.6153 -1.5252
 2003SOL     OW16937   0.716   8.168   2.701  0.0493 -0.3693 -0.3444
 2003SOL    HW116938   0.653   8.133   2.770  0.3787 -0.3530 -0.0325
 2003SOL    HW216939   0.786   8.099   2.682  2.6175  1.2598  2.6422
 2004SOL     OW16940   1.087   9.438   1.020 -0.0925  0.5095  0.0297
 2004SOL    HW116941   1.138   9.523   1.006 -1.2481  1.5379  1.8172
 2004SOL    HW216942   0.996   9.446   0.978 -0.3095  0.2850  0.4464
 2005SOL     OW16943   0.216   6.271   6.291 -0.3492 -1.1805  0.2944
 2005SOL    HW116944   0.252   6.257   6.384 -0.6932 -0.5512  0.5290
 2005SOL    HW216945   0.118   6.257   6.291 -0.6046  0.4597  0.3917
 2006SOL     OW16946   9.782   8.046   5.249  0.2774 -0.2355  0.1327
 2006SOL    HW116947   9.752   7.952   5.237 -0.5959  0.0897 -0.2233
 2006SOL    HW216948   9.840   8.073   5.172  1.4803 -0.8450  0.8026
 2007SOL     OW16949   3.757   3.801   4.149  0.3950 -0.0192  0.8615
 2007SOL    HW116950   3.664   3.765   4.150  0.0622  0.8718  2.9738
 2007SOL    HW216951   3.822   3.726   4.164 -0.0800 -0.3479  1.2847
 2008SOL     OW16952   0.192   9.491   1.902 -0.2431  0.2174 -0.3461
 2008SOL    HW116953   0.255   9.468   1.976 -0.7851 -0.2517 -0.0237
 2008SOL    HW216954   0.211   9.584   1.870  1.3109 -0.3284 -1.0004
 2009SOL     OW16955   8.491   3.693   2.642 -0.4279 -0.1728 -0.6760
 2009SOL    HW116956   8.556   3.644   2.701 -2.1852 -1.4463  0.2491
 2009SOL    HW216957   8.532   3.779   2.612  1.5497 -0.7776  0.1738
 2010SOL     OW16958   3.667   7.997   0.957  0.3240 -0.6233  0.4980
 2010SOL    HW116959   3.700   8.018   1.049  2.1096 -1.7756  0.1614
 2010SOL    HW216960   3.736   8.027   0.890 -0.3567 -1.0026 -0.3741
 2011SOL     OW16961   2.389   2.851   4.327 -0.4520 -0.6216 -0.2135
 2011SOL    HW116962   2.461   2.795   4.287  0.4303  1.2113 -1.2593
 2011SOL    HW216963   2.429   2.914   4.394 -1.5039 -1.5930  1.3641
 2012SOL     OW16964   3.769   7.117   4.129 -0.0110  0.3879 -0.2343
 2012SOL    HW116965   3.807   7.195   4.081  0.1621  0.2534 -0.3164
 2012SOL    HW216966   3.764   7.136   4.227 -1.2366  1.0214 -0.4144
 2013SOL     OW16967   7.839   9.412   0.502  0.1975 -0.3108 -0.5631
 2013SOL    HW116968   7.853   9.313   0.511 -1.0372 -0.6552 -2.1461
 2013SOL    HW216969   7.741   9.430   0.491  0.4856  1.0418 -0.8923
 2014SOL     OW16970   5.173   7.081   1.594  0.7927 -0.3490 -0.5563
 2014SOL    HW116971   5.132   7.003   1.546 -0.4777  0.4085 -0.7199
 2014SOL    HW216972   5.210   7.050   1.682 -0.1159 -1.0566 -0.4183
 2015SOL     OW16973   5.841   7.650   3.855 -0.0063 -0.7503 -0.2916
 2015SOL    HW116974   5.848   7.562   3.902 -0.4051 -0.2047  0.7815
 2015SOL    HW216975   5.924   7.703   3.871  0.8935 -1.5261 -2.1820
 2016SOL     OW16976   7.715   9.892   5.830  0.1284  0.1830 -0.9990
 2016SOL    HW116977   7.700   9.982   5.789 -1.8110  0.5012  0.3314
 2016SOL    HW216978   7.654   9.826   5.788  0.4854 -0.1863 -0.9356
 2017SOL     OW16979   2.308   2.796   3.183  0.1617  0.7095 -0.6087
 2017SOL    HW116980   2.354   2.851   3.113 -0.6993  0.4757 -1.3722
 2017SOL    HW216981   2.373   2.728   3.219  0.6527  0.9158 -1.0908
 2018SOL     OW16982   3.060   1.857   1.710  0.5430  0.0670  0.6278
 2018SOL    HW116983   2.996   1.830   1.639  0.2311 -0.3761  1.0713
 2018SOL    HW216984   3.151   1.821   1.689  0.1286 -1.3962  1.2265
 2019SOL     OW16985   0.781   9.937   3.639  0.0523  0.8352 -0.1276
 2019SOL    HW116986   0.808   9.901   3.550  1.1357 -0.4631  0.7071
 2019SOL    HW216987   0.691   9.980   3.632 -0.6534 -0.8165 -1.4520
 2020SOL     OW16988   6.250   8.403   3.432  0.6997  0.0728 -0.3897
 2020SOL    HW116989   6.174   8.443   3.483  0.5309 -0.5557 -0.1513
 2020SOL    HW216990   6.335   8.417   3.483  0.4300 -1.2178  0.4385
 2021SOL     OW16991   5.334   9.228   2.411 -0.2483  0.2577 -0.3955
 2021SOL    HW116992   5.354   9.157   2.343 -0.4522 -0.0182 -0.1677
 2021SOL    HW216993   5.345   9.318   2.370  1.7381  0.1166 -0.2145
 2022SOL     OW16994   3.104   6.818   2.005 -0.2915  0.1162  0.3552
 2022SOL    HW116995   3.102   6.906   1.958 -1.3642  1.3919  2.6815
 2022SOL    HW216996   3.191   6.807   2.052 -0.4011  0.2229  0.5840
 2023SOL     OW16997   4.553   4.400   0.809  0.6595  0.1104 -0.1038
 2023SOL    HW116998   4.454   4.409   0.807  0.7268  0.6281 -1.3778
 2023SOL    HW216999   4.588   4.440   0.894 -0.0928  1.1571 -0.2822
 2024SOL     OW17000   5.432   1.314   3.344 -0.2280  0.7160  0.0560
 2024SOL    HW117001   5.410   1.217   3.335 -0.1465  0.5895  1.1268
 2024SOL    HW217002   5.394   1.364   3.266  1.0123 -0.3758 -1.2679
 2025SOL     OW17003   1.280   2.368   4.816 -0.3064  0.6649 -0.1333
 2025SOL    HW117004   1.342   2.323   4.880  0.5143  0.9226 -0.7407
 2025SOL    HW217005   1.319   2.365   4.724 -0.2478  2.5924 -0.1934
 2026SOL     OW17006   5.272   9.975   3.335  0.0119  0.4292 -0.2178
 2026SOL    HW117007   5.204   9.969   3.263 -1.0882 -1.4598  0.9529
 2026SOL    HW217008   5.299   9.883   3.365  0.0807  1.1629  2.1072
 2027SOL     OW17009   3.521   5.924   3.425  0.6487  0.1129 -0.6527
 2027SOL    HW117010   3.605   5.951   3.376  1.3615  2.1330  1.5803
 2027SOL    HW217011   3.544   5.899   3.519 -0.7846 -3.1098 -1.1082
 2028SOL     OW17012   0.251   7.438   1.195  0.0926  0.4995  0.0447
 2028SOL    HW117013   0.230   7.532   1.224  1.5783  0.9308 -0.2281
 2028SOL    HW217014   0.206   7.419   1.108 -0.8378  0.6977  0.4804
 2029SOL     OW17015   7.648   1.592   6.536  0.1675 -0.1123 -0.2956
 2029SOL    HW117016   7.654   1.665   6.604  0.3088  1.1362 -1.6240
 2029SOL    HW217017   7.553   1.574   6.513  0.0656 -1.1567  0.8603
 2030SOL     OW17018   1.172   1.964   3.770  0.6201  0.3504  0.7711
 2030SOL    HW117019   1.259   1.950   3.722  0.3002  1.4473 -0.1268
 2030SOL    HW217020   1.124   2.042   3.731 -1.9038 -1.7070 -0.3245
 2031SOL     OW17021   3.393   5.982   3.080  0.0925 -0.2532 -0.5754
 2031SOL    HW117022   3.350   6.003   2.991 -2.1585  1.9587  0.9617
 2031SOL    HW217023   3.464   6.049   3.099 -2.6245  2.2248  1.3440
 2032SOL     OW17024   3.046   3.303   0.241  0.4471 -0.3470  0.0130
 2032SOL    HW117025   3.036   3.245   0.160  0.9212  0.3650 -0.5636
 2032SOL    HW217026   3.142   3.306   0.268  0.2962 -0.5367  0.5698
 2033SOL     OW17027   5.080   8.459   2.274 -0.2412  0.4485  0.3154
 2033SOL    HW117028   5.163   8.507   2.246 -0.6092  0.2765 -1.0732
 2033SOL    HW217029   5.033   8.512   2.345  1.0698  0.5238  1.1287
 2034SOL     OW17030   0.480   6.337   1.479 -0.1981  0.3606 -0.1620
 2034SOL    HW117031   0.434   6.295   1.401 -0.2693  0.2318 -0.0527
 2034SOL    HW217032   0.572   6.299   1.488 -0.0417  0.6820 -0.4321
 2035SOL     OW17033   4.132   0.222   2.065  0.3008 -0.2986 -0.2519
 2035SOL    HW117034   4.088   0.272   1.990  0.1095 -2.8826 -1.9440
 2035SOL    HW217035   4.068   0.154   2.101  1.3833 -1.0261  0.3126
 2036SOL     OW17036   0.094   0.860   1.313  0.3582  0.5246  0.3427
 2036SOL    HW117037   0.161   0.839   1.384  1.8473 -0.1585 -1.2128
 2036SOL    HW217038   0.062   0.955   1.324 -0.3850  0.0342  2.6359
 2037SOL     OW17039   7.125   9.507   2.173 -0.5232  0.3851  0.0015
 2037SOL    HW117040   7.111   9.602   2.145  1.5174  0.8358  0.4373
 2037SOL    HW217041   7.037   9.463   2.188 -1.5018  2.0107 -0.8609
 2038SOL     OW17042   8.639   3.439   2.728  0.2870  0.2042 -0.2322
 2038SOL    HW117043   8.586   3.368   2.776  0.2636  0.0217 -0.5251
 2038SOL    HW217044   8.707   3.477   2.789 -0.4274  0.6986  0.2687
 2039SOL     OW17045   1.105   8.022   6.560  0.1587 -0.5943  0.3032
 2039SOL    HW117046   1.014   8.024   6.518 -0.0798 -0.9925  0.8015
 2039SOL    HW217047   1.108   7.950   6.629  1.0757 -1.0753 -0.2260
 2040SOL     OW17048   8.909   5.295   2.564  0.0453  0.2381 -0.2689
 2040SOL    HW117049   8.821   5.301   2.612 -0.2304 -1.8677 -0.4496
 2040SOL    HW217050   8.955   5.383   2.568 -1.2121  0.8505  1.4766
 2041SOL     OW17051   9.741   5.166   3.582 -0.2077  0.7190  0.2810
 2041SOL    HW117052   9.710   5.129   3.670  2.0226  1.3413  1.3583
 2041SOL    HW217053   9.745   5.093   3.514 -3.6613  0.5455  0.1693
 2042SOL     OW17054   5.047   1.439   2.047 -0.0279 -0.1720 -0.2506
 2042SOL    HW117055   4.980   1.485   2.105 -2.7087 -2.9677 -0.9287
 2042SOL    HW217056   5.038   1.473   1.953  1.5068  1.4745  0.1843
 2043SOL     OW17057   0.434   7.713   6.091 -0.4230  0.8252  0.1827
 2043SOL    HW117058   0.521   7.664   6.080  1.1290  2.7256  3.3326
 2043SOL    HW217059   0.363   7.650   6.122  0.9317  0.0600  1.7912
 2044SOL     OW17060   3.615   8.383   2.824 -0.0635  0.2458 -0.4083
 2044SOL    HW117061   3.533   8.365   2.770  0.3086 -0.7980 -0.6327
 2044SOL    HW217062   3.589   8.407   2.917 -0.7038  1.9915 -1.0215
 2045SOL     OW17063   4.074   5.559   2.381 -0.3356  0.0609  0.0898
 2045SOL    HW117064   4.041   5.584   2.290 -0.1540 -0.2527 -0.0650
 2045SOL    HW217065   4.063   5.461   2.394 -2.2880  0.4156  1.2046
 2046SOL     OW17066   1.499   0.729   3.486 -0.0345  0.2110  0.0228
 2046SOL    HW117067   1.506   0.824   3.455 -0.7819  0.6146  1.0508
 2046SOL    HW217068   1.533   0.722   3.580  2.3579 -1.0269 -0.9082
 2047SOL     OW17069   1.970   2.596   4.827  0.2583  0.3532 -0.4012
 2047SOL    HW117070   1.956   2.646   4.741 -1.3227  2.6768  1.1534
 2047SOL    HW217071   1.903   2.523   4.834  1.0005 -0.4619 -1.5556
 2048SOL     OW17072   8.891   5.115   5.242 -0.4430  0.1069  0.7839
 2048SOL    HW117073   8.918   5.202   5.201  1.7700 -1.0758 -0.3534
 2048SOL    HW217074   8.868   5.049   5.170  0.6340 -1.1143  1.5327
 2049SOL     OW17075   3.156   4.770   5.976  0.1023 -0.3884  0.2620
 2049SOL    HW117076   3.141   4.673   5.953 -0.0637  0.1929 -2.1788
 2049SOL    HW217077   3.107   4.827   5.911  2.4500  1.3875  0.0036
 2050SOL     OW17078   9.851   7.214   0.948 -0.0108 -0.2587 -0.3719
 2050SOL    HW117079   9.757   7.234   0.918  0.7642  0.8621 -2.1602
 2050SOL    HW217080   9.871   7.117   0.933 -1.6014 -1.0112  2.1249
 2051SOL     OW17081   9.475   0.884   3.320  0.0967  0.1481 -1.0377
 2051SOL    HW117082   9.425   0.820   3.262  1.4844 -0.3110 -1.7588
 2051SOL    HW217083   9.572   0.880   3.297  0.5314  0.6865  0.6563
 2052SOL     OW17084   9.603   4.485   2.276  0.4493 -0.2596  0.1949
 2052SOL    HW117085   9.584   4.396   2.318  1.1041 -1.0252 -1.0801
 2052SOL    HW217086   9.672   4.473   2.204  0.3639  1.2454 -0.1408
 2053SOL     OW17087   9.777   4.099   6.016 -0.5238  0.5062  1.0405
 2053SOL    HW117088   9.772   4.192   5.979  0.0964  1.8424  4.1179
 2053SOL    HW217089   9.864   4.087   6.064  0.0632 -2.2007 -0.6035
 2054SOL     OW17090   1.395   6.132   1.355 -0.2324 -0.2198 -0.0464
 2054SOL    HW117091   1.377   6.217   1.305  0.8729  0.8371  1.3129
 2054SOL    HW217092   1.310   6.081   1.364 -0.5732 -0.1924 -2.5138
 2055SOL     OW17093   9.003   6.973   2.399  0.2605  0.7377 -0.3106
 2055SOL    HW117094   9.054   7.034   2.338 -0.1463  1.8710  0.4638
 2055SOL    HW217095   8.922   7.021   2.433 -1.9087 -1.3671 -2.3335
 2056SOL     OW17096   2.591   5.949   5.141  0.4458  0.3806 -0.3676
 2056SOL    HW117097   2.643   5.888   5.201  1.1897  1.2993 -0.0557
 2056SOL    HW217098   2.493   5.939   5.160  0.4577 -1.7016 -1.2828
 2057SOL     OW17099   0.262   4.352   2.460 -0.0536  0.2249 -0.0232
 2057SOL    HW117100   0.353   4.313   2.469 -0.1817 -0.0180  0.2269
 2057SOL    HW217101   0.211   4.301   2.389  0.0706  0.4834 -0.2990
 2058SOL     OW17102   9.988   6.503   2.504 -0.0310  0.2012  0.1966
 2058SOL    HW117103   9.957   6.448   2.581 -1.1299  2.0092  1.0882
 2058SOL    HW217104   9.983   6.600   2.529  2.8955  0.7098 -0.9185
 2059SOL     OW17105   6.405   9.092   2.653 -0.1209 -0.2848  0.4800
 2059SOL    HW117106   6.316   9.135   2.667 -1.0673 -2.2933  0.7844
 2059SOL    HW217107   6.394   8.992   2.651  2.2698 -0.6018  1.5956
 2060SOL     OW17108   0.630   6.549   1.298 -0.2076  0.4660 -0.3414
 2060SOL    HW117109   0.645   6.644   1.327  0.3623  0.2134  0.1927
 2060SOL    HW217110   0.560   6.507   1.356  1.2023 -0.1564  0.9580
 2061SOL     OW17111   7.974   1.222   2.441 -0.2008  0.6167 -0.2340
 2061SOL    HW117112   8.067   1.242   2.412  0.3638 -3.3517 -1.5654
 2061SOL    HW217113   7.975   1.145   2.505 -2.6455 -0.5169 -1.4738
 2062SOL     OW17114   9.367   1.999   2.638 -0.0253  0.5767 -0.3666
 2062SOL    HW117115   9.344   2.009   2.735 -1.2686 -0.0253 -0.5810
 2062SOL    HW217116   9.363   1.902   2.613  0.4317  0.7147 -0.9867
 2063SOL     OW17117   8.323   3.066   4.914 -0.3131  0.4933 -0.3977
 2063SOL    HW117118   8.341   3.013   4.996  0.3609  1.6083  0.1896
 2063SOL    HW217119   8.365   3.021   4.835  0.1849  0.1063  0.0823
 2064SOL     OW17120   0.846   6.931   3.331  0.0768 -0.0401 -0.2072
 2064SOL    HW117121   0.945   6.913   3.334  0.0790 -0.2044 -1.0631
 2064SOL    HW217122   0.814   6.954   3.422  1.0375  0.6879 -0.0429
 2065SOL     OW17123   2.072   5.614   4.121 -0.0842 -0.0756 -0.3702
 2065SOL    HW117124   1.996   5.678   4.108 -0.8269 -0.8858 -0.1184
 2065SOL    HW217125   2.100   5.614   4.217  0.0643  0.0420 -0.4141
 2066SOL     OW17126   1.485   5.497   4.946 -0.3545  0.4978  0.3384
 2066SOL    HW117127   1.508   5.403   4.918  0.3066  0.1947  1.8709
 2066SOL    HW217128   1.490   5.557   4.866 -0.6643 -0.7472 -0.6351
 2067SOL     OW17129   7.768   5.733   3.640  0.1243 -0.0080 -0.7258
 2067SOL    HW117130   7.797   5.638   3.652 -0.4428 -0.2372 -1.1739
 2067SOL    HW217131   7.704   5.739   3.564  0.9725  0.8913 -1.3786
 2068SOL     OW17132   6.816   7.666   5.092 -0.2506 -1.0044  0.3331
 2068SOL    HW117133   6.829   7.567   5.086 -0.2395 -1.1974  2.9597
 2068SOL    HW217134   6.803   7.692   5.187  0.4355  1.6230 -0.2514
 2069SOL     OW17135   4.527   9.787   3.160  0.1503  0.3724  0.0862
 2069SOL    HW117136   4.563   9.732   3.235  0.7857  1.0114  0.2549
 2069SOL    HW217137   4.574   9.876   3.158 -1.3689  1.1961  0.2731
 2070SOL     OW17138   5.040   1.516   4.735  0.5228  0.4066  0.3077
 2070SOL    HW117139   5.085   1.432   4.705 -0.0901 -0.4097  1.6509
 2070SOL    HW217140   4.967   1.539   4.671  1.1779  0.3330 -0.4714
 2071SOL     OW17141   2.701   7.745   1.579  0.1668  0.2854 -0.1371
 2071SOL    HW117142   2.650   7.709   1.657 -0.1200  2.1740  0.5616
 2071SOL    HW217143   2.641   7.804   1.524  0.9579  0.6678 -0.6016
 2072SOL     OW17144   5.380   5.342   2.514  0.1302  0.5160 -0.2200
 2072SOL    HW117145   5.386   5.243   2.524  0.7419  0.3049 -2.2975
 2072SOL    HW217146   5.296   5.376   2.557 -0.5685 -1.0230 -0.3482
 2073SOL     OW17147   3.676   0.950   1.133  0.2558  0.4327  0.4800
 2073SOL    HW117148   3.648   1.046   1.128 -2.5141 -0.2102  2.2605
 2073SOL    HW217149   3.712   0.921   1.045 -1.0051  2.4783 -0.7519
 2074SOL     OW17150   6.670   9.429   2.397 -0.5692  0.0681 -0.0045
 2074SOL    HW117151   6.684   9.520   2.359 -1.1641  0.1989  0.0903
 2074SOL    HW217152   6.574   9.417   2.423  0.0805  0.4389  2.7070
 2075SOL     OW17153   3.823   6.368   4.386  0.1612  0.1393 -0.0646
 2075SOL    HW117154   3.906   6.391   4.335 -0.1461  0.5020 -0.4083
 2075SOL    HW217155   3.747   6.425   4.353 -0.2730 -0.3478  0.0910
 2076SOL     OW17156   1.635   7.290   0.857 -0.4930  0.3616  0.1206
 2076SOL    HW117157   1.592   7.380   0.864 -0.2208  0.4342  0.9909
 2076SOL    HW217158   1.631   7.258   0.763 -0.7583  1.2039 -0.1597
 2077SOL     OW17159   7.751   9.555   5.580 -0.2777 -0.4754  0.4043
 2077SOL    HW117160   7.740   9.459   5.605 -0.0580 -0.9788 -1.4301
 2077SOL    HW217161   7.677   9.608   5.621 -0.2623 -1.3722  1.6315
 2078SOL     OW17162   4.109   7.011   3.573  0.3170 -0.4443 -0.1568
 2078SOL    HW117163   4.091   7.106   3.548  0.1311 -0.1186  1.1817
 2078SOL    HW217164   4.032   6.954   3.545  0.2903 -0.1505 -0.6819
 2079SOL     OW17165   9.773   6.764   1.522 -0.0852 -0.0342 -0.0744
 2079SOL    HW117166   9.724   6.679   1.507  0.3734 -0.3095 -0.0075
 2079SOL    HW217167   9.785   6.812   1.435 -1.4005  0.5485  0.0493
 2080SOL     OW17168   8.779   6.906   0.595 -0.3418  0.2466 -0.6539
 2080SOL    HW117169   8.783   6.979   0.526  1.4085 -0.0068 -0.8270
 2080SOL    HW217170   8.869   6.891   0.634 -1.1710 -0.1428  1.1755
 2081SOL     OW17171   3.046   0.904   2.007  0.0608  0.2967  0.1917
 2081SOL    HW117172   3.020   0.924   1.912 -0.6619  0.6452  0.4634
 2081SOL    HW217173   3.032   0.985   2.063  0.1015 -0.0381  0.6857
 2082SOL     OW17174   9.768   0.646   2.387  0.1504  0.3394 -0.1977
 2082SOL    HW117175   9.755   0.547   2.381  1.3669  0.2664 -1.7527
 2082SOL    HW217176   9.807   0.680   2.302  0.0988  2.1141  0.4691
 2083SOL     OW17177   2.525   5.963   3.911  0.2978 -0.1213  0.0515
 2083SOL    HW117178   2.556   5.996   3.821  2.1595 -2.7878 -0.3371
 2083SOL    HW217179   2.591   5.990   3.981 -0.8108  1.3678  0.5542
 2084SOL     OW17180   8.979   0.800   3.029 -0.1506  0.3285 -0.6136
 2084SOL    HW117181   9.013   0.736   3.098 -2.4140 -1.3208 -0.9744
 2084SOL    HW217182   9.001   0.766   2.938  0.2252  0.9871 -0.7691
 2085SOL     OW17183   3.569   0.280   3.836 -0.0881  0.4920  0.2684
 2085SOL    HW117184   3.529   0.204   3.786 -1.9219  0.6548  1.4333
 2085SOL    HW217185   3.637   0.326   3.778  0.3912 -1.4472 -0.7581
 2086SOL     OW17186   5.009   7.176   2.846  0.6373 -0.0788  0.7438
 2086SOL    HW117187   5.024   7.200   2.942  2.2152  0.3120  0.4244
 2086SOL    HW217188   5.089   7.127   2.811  0.3200  0.2887 -0.5232
 2087SOL     OW17189   8.718   4.198   1.875  0.5605 -0.4157 -1.2528
 2087SOL    HW117190   8.690   4.190   1.780  0.5780 -1.3589 -1.1876
 2087SOL    HW217191   8.713   4.293   1.904  0.4579 -0.1414 -2.1658
 2088SOL     OW17192   2.927   6.565   1.250  0.7922 -0.7326  0.6445
 2088SOL    HW117193   3.004   6.618   1.214  1.2191 -1.4805  0.4524
 2088SOL    HW217194   2.961   6.486   1.300  0.1497 -0.9249  0.7815
 2089SOL     OW17195   7.792   1.826   1.558 -0.1222  0.0763  0.3980
 2089SOL    HW117196   7.694   1.836   1.573 -0.1243  1.2780 -0.2999
 2089SOL    HW217197   7.841   1.882   1.625  0.0441  0.4090  0.0018
 2090SOL     OW17198   9.706   7.596   1.410 -0.1908 -0.2121  0.3506
 2090SOL    HW117199   9.694   7.519   1.473 -1.4946 -0.7131 -0.4720
 2090SOL    HW217200   9.778   7.574   1.344  0.6602  0.0051  1.2093
 2091SOL     OW17201   8.246   2.453   2.140  0.4609 -0.2156  0.2881
 2091SOL    HW117202   8.305   2.374   2.123  0.5787 -0.2559  0.8740
 2091SOL    HW217203   8.240   2.470   2.239  0.3359  0.4292  0.1741
 2092SOL     OW17204   1.600   6.471   4.203 -0.1134  0.3793 -0.2028
 2092SOL    HW117205   1.695   6.490   4.177 -0.3560  2.2035  0.2084
 2092SOL    HW217206   1.538   6.520   4.142 -0.8253 -1.7436 -1.2087
 2093SOL     OW17207   1.216   8.473   6.712 -0.0797 -0.2386 -0.0286
 2093SOL    HW117208   1.195   8.379   6.739 -0.6775 -0.6585 -1.8472
 2093SOL    HW217209   1.268   8.472   6.627 -2.0273  1.1085 -1.2879
 2094SOL     OW17210   2.290   9.998   1.927 -0.2397 -0.5999 -0.1325
 2094SOL    HW117211   2.292  10.042   2.016  0.5616 -0.3025 -0.2965
 2094SOL    HW217212   2.219  10.041   1.870 -1.5068 -1.5232  0.7256
 2095SOL     OW17213   5.542   1.761   4.274 -0.3122  0.3232  0.5006
 2095SOL    HW117214   5.628   1.745   4.226  0.0245  2.5961  0.2700
 2095SOL    HW217215   5.537   1.702   4.354 -0.1387 -2.3222 -1.3882
 2096SOL     OW17216   8.983   6.384   5.248  0.0743  0.6081  0.3629
 2096SOL    HW117217   8.968   6.478   5.279 -1.7726  0.0874  1.1117
 2096SOL    HW217218   9.010   6.327   5.326 -1.1682  0.0255  0.3805
 2097SOL     OW17219   8.768   7.022   2.582  0.2537  0.0313 -0.4583
 2097SOL    HW117220   8.816   6.951   2.634 -0.0985 -0.0483 -0.2387
 2097SOL    HW217221   8.739   7.094   2.645  1.9371  1.1216 -0.8899
 2098SOL     OW17222   9.007   9.691   4.123 -0.3075  0.2164  0.0811
 2098SOL    HW117223   8.968   9.710   4.213  0.2242 -1.2337  0.6367
 2098SOL    HW217224   9.014   9.592   4.110 -0.1822  0.4180 -1.4763
 2099SOL     OW17225   8.967   9.449   0.441  0.2587  0.2894 -0.4472
 2099SOL    HW117226   8.965   9.478   0.537  0.2687  0.5353 -0.5209
 2099SOL    HW217227   8.874   9.437   0.407  0.2691 -2.4884  0.3992
 2100SOL     OW17228   8.568   1.486   2.650  0.4995  0.2608 -0.6838
 2100SOL    HW117229   8.601   1.532   2.733 -0.3717 -0.6578  0.1848
 2100SOL    HW217230   8.470   1.471   2.657  0.3501  0.5636 -2.0854
 2101SOL     OW17231   4.296   8.201   4.591  0.8941 -0.2413 -0.0319
 2101SOL    HW117232   4.259   8.213   4.683  0.8427 -0.3587 -0.0378
 2101SOL    HW217233   4.388   8.163   4.597  0.6438 -0.8555 -0.0513
 2102SOL     OW17234   2.358   6.283   2.860 -0.1668 -0.3507 -0.0629
 2102SOL    HW117235   2.405   6.336   2.931 -1.1674  0.0825  0.2806
 2102SOL    HW217236   2.419   6.210   2.828  0.9621  0.5551 -0.0425
 2103SOL     OW17237   4.146   3.567   0.207 -0.1483 -0.0678  0.3275
 2103SOL    HW117238   4.110   3.482   0.247 -0.6165 -0.0130  0.0335
 2103SOL    HW217239   4.239   3.583   0.239 -0.5617  0.0361  1.4785
 2104SOL     OW17240   3.320   0.052   2.435  0.2219  0.0487  0.1084
 2104SOL    HW117241   3.223   0.067   2.417 -0.5133 -1.9311  2.1542
 2104SOL    HW217242   3.367   0.140   2.439 -2.3596  1.4305  3.6871
 2105SOL     OW17243   1.205   9.091   0.635 -0.0019  0.0703  0.0915
 2105SOL    HW117244   1.269   9.032   0.684 -0.9777 -0.6563  0.5231
 2105SOL    HW217245   1.173   9.164   0.696  0.3484  0.3852 -0.0980
 2106SOL     OW17246   9.637   8.843   4.588 -0.2536 -0.1060  0.5827
 2106SOL    HW117247   9.714   8.904   4.567 -1.6765  1.6132  0.2155
 2106SOL    HW217248   9.653   8.754   4.547  1.0043  0.5972 -0.4896
 2107SOL     OW17249   0.253   1.578   0.730 -0.2988 -0.2135  0.0086
 2107SOL    HW117250   0.324   1.520   0.691  0.1113  0.1028  0.2858
 2107SOL    HW217251   0.164   1.532   0.721 -0.1760 -0.2629 -1.0504
 2108SOL     OW17252   8.329   3.643   4.300  0.0738 -0.3048 -0.7167
 2108SOL    HW117253   8.235   3.610   4.303 -0.4516  1.2288  1.9521
 2108SOL    HW217254   8.379   3.597   4.228 -2.2359 -2.4766 -0.9809
 2109SOL     OW17255   8.078   7.695   5.066  0.5183  0.0961  0.0027
 2109SOL    HW117256   8.110   7.781   5.105 -1.0559  0.2262  1.0526
 2109SOL    HW217257   8.035   7.713   4.977 -1.5147  0.6780  1.0801
 2110SOL     OW17258   7.875   3.787   1.581 -0.3529 -0.0104 -0.0725
 2110SOL    HW117259   7.913   3.695   1.590 -0.9290 -0.5966 -3.1882
 2110SOL    HW217260   7.924   3.836   1.508 -1.4721  1.3929  0.0976
 2111SOL     OW17261   1.550   4.611   4.319  0.1971  0.5773 -0.5504
 2111SOL    HW117262   1.460   4.584   4.284 -0.0476  0.2227  0.3296
 2111SOL    HW217263   1.557   4.711   4.320  0.4264  0.5930 -2.1256
 2112SOL     OW17264   9.620   4.081   2.136 -0.0122 -0.1622 -0.2424
 2112SOL    HW117265   9.609   4.054   2.041 -0.2956 -2.3860  0.3853
 2112SOL    HW217266   9.714   4.113   2.151 -0.0883  0.5710 -1.3554
 2113SOL     OW17267   8.032   2.714   4.383 -0.3729 -0.2454 -0.2432
 2113SOL    HW117268   7.961   2.728   4.314 -0.0747 -0.6308 -0.6315
 2113SOL    HW217269   7.990   2.700   4.472 -0.8358 -1.9156 -0.7194
 2114SOL     OW17270   2.738   1.414   3.167 -0.0031  0.1720  0.2110
 2114SOL    HW117271   2.722   1.335   3.108 -0.0981  2.2373 -2.6068
 2114SOL    HW217272   2.655   1.435   3.219 -0.6395 -0.2894 -0.6161
 2115SOL     OW17273   3.553   7.767   0.899  0.1207 -0.8755  0.3133
 2115SOL    HW117274   3.597   7.855   0.918 -0.0260 -0.7971  0.2921
 2115SOL    HW217275   3.455   7.781   0.886  0.2993 -0.8601 -0.9983
 2116SOL     OW17276   1.940   5.856   3.393 -0.0540  0.3475 -0.5256
 2116SOL    HW117277   1.964   5.905   3.309  0.1502 -0.3694 -0.8868
 2116SOL    HW217278   1.889   5.917   3.454 -1.5656  0.4338 -1.8288
 2117SOL     OW17279   3.208   9.997   3.592 -0.3200 -0.0316  0.2138
 2117SOL    HW117280   3.210  10.088   3.633 -0.3957  0.8317 -1.6475
 2117SOL    HW217281   3.302   9.966   3.576 -0.2918  0.5292 -0.8232
 2118SOL     OW17282   7.040   9.028   4.301  0.1024  0.0746 -0.7262
 2118SOL    HW117283   7.041   9.029   4.401 -1.1968  1.7754 -0.6970
 2118SOL    HW217284   7.094   8.951   4.268  1.5205  0.1648  1.2648
 2119SOL     OW17285   3.660   8.241   1.686 -0.0921 -0.3311  0.4142
 2119SOL    HW117286   3.714   8.280   1.760 -1.8037  1.3397  0.8151
 2119SOL    HW217287   3.583   8.302   1.665 -0.9013 -1.8775 -1.2187
 2120SOL     OW17288   1.110   5.636   5.047  0.1620  0.8243  0.1276
 2120SOL    HW117289   1.012   5.648   5.032 -0.3427 -0.3881  2.2449
 2120SOL    HW217290   1.154   5.726   5.051 -0.9772  1.4011 -0.0620
 2121SOL     OW17291   2.335   4.887   5.839  0.2189 -0.6105 -0.0549
 2121SOL    HW117292   2.264   4.934   5.788 -0.9809 -0.7761  1.4260
 2121SOL    HW217293   2.325   4.789   5.828 -0.3382 -0.6611  0.8786
 2122SOL     OW17294   8.694   1.071   0.164  0.4066  0.2002  0.5256
 2122SOL    HW117295   8.692   1.112   0.073 -0.6269  0.1048  0.5018
 2122SOL    HW217296   8.744   1.131   0.227 -1.8851  1.9705  0.7144
 2123SOL     OW17297   9.989   8.433   1.974  0.1634  0.2397 -0.2525
 2123SOL    HW117298   9.920   8.365   1.998 -0.3551  0.7715 -0.2326
 2123SOL    HW217299  10.055   8.442   2.049  0.5271 -0.6070 -0.4643
 2124SOL     OW17300   2.266   1.973   4.019  0.1260 -0.0448 -0.2190
 2124SOL    HW117301   2.307   2.003   4.105  3.3983 -0.1828 -1.6810
 2124SOL    HW217302   2.235   1.878   4.028  0.2174  0.0235  0.8610
 2125SOL     OW17303   8.155   9.030   4.112  0.1297  0.2000 -0.1426
 2125SOL    HW117304   8.200   8.974   4.044 -0.0408 -0.7319  0.5033
 2125SOL    HW217305   8.200   9.018   4.201 -0.3081  0.5828  0.1354
 2126SOL     OW17306   1.748   7.112   1.989 -0.0541  0.4288 -0.7182
 2126SOL    HW117307   1.737   7.202   1.947  3.9647  0.5673 -1.7231
 2126SOL    HW217308   1.775   7.046   1.919  0.0511 -0.8685  0.5158
 2127SOL     OW17309   7.661   2.250   1.848  0.2227 -0.8046  0.2714
 2127SOL    HW117310   7.731   2.230   1.916  0.6695  0.8872  0.3204
 2127SOL    HW217311   7.613   2.165   1.824  1.4803 -1.7725  1.1048
 2128SOL     OW17312   1.635   9.151   4.506  0.5126 -0.2458  0.1021
 2128SOL    HW117313   1.536   9.163   4.499  0.3332 -1.2572  0.7695
 2128SOL    HW217314   1.658   9.121   4.598  1.4890  0.3943  0.0704
 2129SOL     OW17315   7.706   8.633   3.750 -0.2363 -0.0914  0.0558
 2129SOL    HW117316   7.611   8.646   3.781 -0.8200 -0.1742 -1.6361
 2129SOL    HW217317   7.706   8.608   3.653  1.5164 -0.3530  0.1096
 2130SOL     OW17318   4.848   0.334   3.746 -0.1603 -0.3064 -0.1040
 2130SOL    HW117319   4.781   0.366   3.679 -0.3175  2.5476  1.3081
 2130SOL    HW217320   4.940   0.346   3.709 -0.2401  1.4018  0.1879
 2131SOL     OW17321   1.227   3.456   6.748  0.0360 -0.5462 -0.8122
 2131SOL    HW117322   1.204   3.364   6.718 -0.1060 -0.8427  0.1882
 2131SOL    HW217323   1.311   3.454   6.802  0.6719  0.0807 -1.7617
 2132SOL     OW17324   3.233   6.728   3.634 -0.0790  0.0676 -0.0098
 2132SOL    HW117325   3.230   6.694   3.728 -1.4581  0.1796  0.0061
 2132SOL    HW217326   3.297   6.673   3.580 -0.1223 -0.7184  0.7252
 2133SOL     OW17327   2.482   1.677   2.100 -0.9626 -0.2673 -0.0006
 2133SOL    HW117328   2.502   1.685   2.002 -0.4403 -2.6891 -0.1201
 2133SOL    HW217329   2.506   1.585   2.132 -0.6137  0.6620  2.5319
 2134SOL     OW17330   0.410   2.767   2.882  0.2827  0.1803 -0.1571
 2134SOL    HW117331   0.311   2.759   2.895  0.3114  1.1124  0.7736
 2134SOL    HW217332   0.456   2.700   2.940  0.1896 -0.4855 -0.8486
 2135SOL     OW17333   4.305   8.433   4.439  0.2487 -0.2055  0.4811
 2135SOL    HW117334   4.396   8.467   4.414  0.1821 -0.1871  0.2696
 2135SOL    HW217335   4.307   8.333   4.444 -0.0264 -0.2899 -0.7579
 2136SOL     OW17336   0.549   0.148   3.914 -0.1326 -0.2609  0.3391
 2136SOL    HW117337   0.492   0.143   3.996 -2.0117 -2.4772 -1.0492
 2136SOL    HW217338   0.644   0.126   3.938 -0.6033 -0.6275  1.9447
 2137SOL     OW17339   4.162   2.826   2.236 -0.2089  0.1894  0.7010
 2137SOL    HW117340   4.162   2.736   2.280  0.0312 -0.4676 -0.6387
 2137SOL    HW217341   4.228   2.886   2.282  0.4508 -0.6664  0.8774
 2138SOL     OW17342   9.803   6.894   5.104 -0.4412  0.3700 -0.0638
 2138SOL    HW117343   9.846   6.870   5.191  1.0546 -0.4482 -0.9987
 2138SOL    HW217344   9.752   6.979   5.114 -0.2978  0.2739  1.6089
 2139SOL     OW17345   2.680   2.366   2.012  0.0676 -0.1838  0.2643
 2139SOL    HW117346   2.750   2.320   1.958  0.5756  0.2646  0.5337
 2139SOL    HW217347   2.724   2.426   2.079 -0.6028  1.1598 -0.4890
 2140SOL     OW17348   0.413   4.051   1.727 -0.0966  0.0795  0.4411
 2140SOL    HW117349   0.409   3.987   1.650  2.2989  0.9155 -0.4521
 2140SOL    HW217350   0.334   4.112   1.725  0.2589  0.5287 -1.8039
 2141SOL     OW17351   7.568   6.829   2.725  0.1593 -0.4493  0.3851
 2141SOL    HW117352   7.607   6.824   2.633 -0.8587  0.2048 -0.0795
 2141SOL    HW217353   7.532   6.920   2.742 -2.0632 -1.3155  0.4583
 2142SOL     OW17354   2.715   3.727   5.138 -0.4684  0.1382  0.0326
 2142SOL    HW117355   2.739   3.656   5.072  0.2175  0.5486 -0.1570
 2142SOL    HW217356   2.618   3.719   5.160 -0.1191 -1.7310  1.0473
 2143SOL     OW17357   0.234   9.386   2.946  0.3272 -0.3262 -0.4861
 2143SOL    HW117358   0.329   9.414   2.963  0.9215 -1.7837 -1.3116
 2143SOL    HW217359   0.180   9.467   2.925  1.5145  0.4702 -0.5749
 2144SOL     OW17360   0.686   4.554   3.647 -0.3082 -0.2140  0.3058
 2144SOL    HW117361   0.638   4.468   3.629  0.4281 -0.4105 -0.8074
 2144SOL    HW217362   0.782   4.535   3.667 -0.2532  0.3123  0.5412
 2145SOL     OW17363   4.254   3.237   4.445 -0.5065  0.4481  0.2334
 2145SOL    HW117364   4.161   3.219   4.479 -0.2655  0.4935  0.9165
 2145SOL    HW217365   4.275   3.334   4.456 -0.0170  0.2591  0.9651
 2146SOL     OW17366   7.927   1.779   1.297 -0.4033  0.2226  0.8789
 2146SOL    HW117367   7.989   1.857   1.303 -1.3308  1.0061  0.4115
 2146SOL    HW217368   7.865   1.779   1.376 -1.7205  1.1188 -0.1290
 2147SOL     OW17369   0.806   6.219   4.563 -0.4265  0.1795 -0.2595
 2147SOL    HW117370   0.804   6.129   4.519 -0.7771 -0.6223  1.3515
 2147SOL    HW217371   0.897   6.258   4.553  0.2857 -1.1966  0.6588
 2148SOL     OW17372   1.091   2.758   3.456 -0.2729  0.1396  0.6420
 2148SOL    HW117373   1.056   2.746   3.362  1.9837  2.2391 -0.5289
 2148SOL    HW217374   1.130   2.672   3.488 -2.8204 -1.1391  0.4422
 2149SOL     OW17375   2.305   1.683   2.476 -0.1014 -0.3872 -0.8167
 2149SOL    HW117376   2.281   1.741   2.554 -1.7669 -0.5201 -1.2126
 2149SOL    HW217377   2.301   1.738   2.392  1.7883 -0.2151 -0.8232
 2150SOL     OW17378   0.031   2.805   5.313  0.1800  0.5742  0.6263
 2150SOL    HW117379   0.067   2.865   5.384  0.2371  1.8459 -0.4660
 2150SOL    HW217380   0.078   2.717   5.317  1.8719  1.4637  0.6204
 2151SOL     OW17381   7.671   9.975   1.775  0.0594 -0.3215 -0.0842
 2151SOL    HW117382   7.633   9.883   1.783  1.3072 -0.7872  0.6462
 2151SOL    HW217383   7.771   9.970   1.776  0.1395  1.0424 -0.0240
 2152SOL     OW17384   3.022   9.720   3.166 -0.1085 -0.2004 -0.4086
 2152SOL    HW117385   3.114   9.708   3.129 -0.5255 -1.6137 -1.0373
 2152SOL    HW217386   3.027   9.732   3.265  0.8069  0.6237 -0.5459
 2153SOL     OW17387   4.644   9.619   3.367  0.1659  0.0953 -0.0755
 2153SOL    HW117388   4.628   9.661   3.456 -1.5220 -0.0560 -0.2798
 2153SOL    HW217389   4.656   9.520   3.379  2.3200  0.3755  0.2151
 2154SOL     OW17390   0.877   9.156   4.709  0.2200  0.6959  0.2297
 2154SOL    HW117391   0.932   9.238   4.691  2.4282 -0.7840  0.1869
 2154SOL    HW217392   0.883   9.093   4.632 -1.2481  0.3452  0.3848
 2155SOL     OW17393   0.487   4.417   0.066 -0.2326  0.3430  0.6976
 2155SOL    HW117394   0.560   4.485   0.066 -0.1867  0.4195 -3.6866
 2155SOL    HW217395   0.399   4.463   0.081  0.0495  1.0292  0.2584
 2156SOL     OW17396   4.563   8.920   1.234 -0.0125 -0.1061  0.1680
 2156SOL    HW117397   4.499   8.996   1.222 -0.1880 -0.2733  0.0407
 2156SOL    HW217398   4.514   8.834   1.229  0.2865 -0.2463 -0.3345
 2157SOL     OW17399   0.209   1.586   3.277 -0.1150  0.6285  0.9049
 2157SOL    HW117400   0.216   1.488   3.293  0.2271  1.0111  3.3802
 2157SOL    HW217401   0.113   1.613   3.282 -0.2513  0.3649 -0.2021
 2158SOL     OW17402   8.290   1.370   4.912  0.2721  0.4638 -0.4153
 2158SOL    HW117403   8.366   1.307   4.897  0.6416  0.6604  0.5563
 2158SOL    HW217404   8.326   1.456   4.950 -0.1859  1.3672 -1.9947
 2159SOL     OW17405   7.714   6.811   2.483 -0.3645  0.2691  0.6303
 2159SOL    HW117406   7.788   6.746   2.498  1.2935  2.8626  4.2772
 2159SOL    HW217407   7.698   6.821   2.384  3.1628 -1.3820 -0.1890
 2160SOL     OW17408   7.297   2.185   1.983  0.5025  0.0083 -0.1472
 2160SOL    HW117409   7.236   2.257   1.951 -0.1421  0.0195  1.0680
 2160SOL    HW217410   7.273   2.098   1.940  0.5179  0.2886 -0.7181
 2161SOL     OW17411   4.167   0.785   1.600 -0.2408 -0.1107  0.1289
 2161SOL    HW117412   4.209   0.781   1.509  0.6076 -1.7678  0.5635
 2161SOL    HW217413   4.237   0.770   1.670 -1.0169  0.3852  1.0274
 2162SOL     OW17414   8.506   4.823   5.595  0.2112  1.1131 -0.7261
 2162SOL    HW117415   8.414   4.805   5.629  0.6762 -0.9104 -0.5144
 2162SOL    HW217416   8.552   4.889   5.656 -0.2114  0.2189  0.5656
 2163SOL     OW17417   8.052   9.369   4.815 -0.8721  0.2059 -0.0738
 2163SOL    HW117418   8.000   9.419   4.883  1.5289  2.1416  0.4506
 2163SOL    HW217419   7.995   9.299   4.773 -3.3500  1.1779  1.5719
 2164SOL     OW17420   2.259   6.026   6.291 -0.0372  0.9559 -0.0894
 2164SOL    HW117421   2.296   6.061   6.377 -0.3487  0.7540  0.1276
 2164SOL    HW217422   2.197   6.094   6.251 -1.1084  0.4227  0.6320
 2165SOL     OW17423   0.120   6.506   4.321 -0.2880  0.2785 -0.0123
 2165SOL    HW117424   0.162   6.415   4.330  0.7366  0.8146  0.6324
 2165SOL    HW217425   0.054   6.504   4.246  0.5187 -0.7038 -0.7060
 2166SOL     OW17426   9.094   4.429   4.308 -0.0688 -0.3015 -0.5627
 2166SOL    HW117427   9.146   4.435   4.223  1.4474  0.5565  0.3980
 2166SOL    HW217428   9.136   4.361   4.368 -1.9103 -1.8533 -1.0170
 2167SOL     OW17429   0.537   4.085   2.231 -0.1591 -0.2806  0.3072
 2167SOL    HW117430   0.459   4.046   2.182  0.1315  0.1323 -0.5037
 2167SOL    HW217431   0.583   4.152   2.172 -0.9639  1.6863  1.8430
 2168SOL     OW17432   3.825   7.794   2.686 -0.0943 -0.7230  0.1406
 2168SOL    HW117433   3.727   7.772   2.694 -0.8282  2.7337  1.2095
 2168SOL    HW217434   3.867   7.791   2.776  0.7084 -1.6463 -0.2503
 2169SOL     OW17435   0.142   4.234   4.169  0.1270 -0.4587  0.1638
 2169SOL    HW117436   0.134   4.226   4.269  0.2478 -1.0394  0.1294
 2169SOL    HW217437   0.226   4.284   4.146  0.0675 -0.2712  0.3562
 2170SOL     OW17438   3.684   3.400   0.713  0.0120  0.2723 -0.7551
 2170SOL    HW117439   3.740   3.317   0.700  0.3403  0.2511  0.6460
 2170SOL    HW217440   3.737   3.480   0.686  0.3576  0.1719 -0.3813
 2171SOL     OW17441   9.533   5.191   3.000 -0.5225  0.6191  0.0475
 2171SOL    HW117442   9.617   5.182   3.053 -0.2655 -0.5052 -0.5332
 2171SOL    HW217443   9.548   5.160   2.907 -1.5008  0.6765 -0.1401
 2172SOL     OW17444   7.072   8.736   3.369 -0.3113 -0.3573  0.3078
 2172SOL    HW117445   7.123   8.792   3.435  2.5374 -0.9145 -1.3187
 2172SOL    HW217446   7.072   8.641   3.400 -0.3153 -0.3649  0.2842
 2173SOL     OW17447   6.275   9.212   2.398  0.0805 -0.3486  0.4640
 2173SOL    HW117448   6.294   9.129   2.345 -2.0561 -1.1362  0.8634
 2173SOL    HW217449   6.265   9.290   2.336  0.1517 -0.7746 -0.0869
 2174SOL     OW17450   7.333   0.162   2.402 -0.0570 -0.6482 -0.0483
 2174SOL    HW117451   7.426   0.191   2.427 -0.0378 -1.1769  0.5271
 2174SOL    HW217452   7.273   0.171   2.482 -0.5870  0.0366 -0.5196
 2175SOL     OW17453   1.530   3.185   0.118 -0.2956  0.1188 -0.6017
 2175SOL    HW117454   1.620   3.191   0.160  0.2421  0.9612 -1.8233
 2175SOL    HW217455   1.461   3.225   0.179  0.4939  1.5115 -0.6039
 2176SOL     OW17456   9.636   7.721   2.824 -1.0454 -0.2067 -0.1221
 2176SOL    HW117457   9.659   7.693   2.917 -0.8484  0.2999 -0.0193
 2176SOL    HW217458   9.685   7.662   2.759 -2.5480 -1.7115  0.0748
 2177SOL     OW17459   2.820   6.695   3.594 -0.2223 -0.5768 -0.1701
 2177SOL    HW117460   2.878   6.640   3.654  1.0265 -0.7847 -1.5328
 2177SOL    HW217461   2.839   6.792   3.609 -1.1601 -0.5713  0.9910
 2178SOL     OW17462   4.071   7.237   3.841 -0.0854  0.1965 -0.5389
 2178SOL    HW117463   4.091   7.251   3.744 -2.6623 -0.5633 -1.2235
 2178SOL    HW217464   3.996   7.296   3.869 -0.5809 -0.9006  0.5117
 2179SOL     OW17465   4.394   5.198   2.242 -0.1882 -0.3036 -0.3203
 2179SOL    HW117466   4.341   5.123   2.202  0.2758 -1.2472  0.7786
 2179SOL    HW217467   4.483   5.204   2.197 -0.3177 -0.2564 -0.5716
 2180SOL     OW17468   8.344   1.307   0.251  0.1392  0.0319  0.5602
 2180SOL    HW117469   8.254   1.286   0.289  0.3990 -1.2677  0.4862
 2180SOL    HW217470   8.334   1.373   0.176 -0.8519 -0.8593 -0.1010
 2181SOL     OW17471   5.159   1.419   1.028  0.6268  0.1125  0.3777
 2181SOL    HW117472   5.149   1.326   0.993 -0.7882 -0.1869  1.5487
 2181SOL    HW217473   5.121   1.484   0.962 -0.3099 -0.2999  0.5067
 2182SOL     OW17474   2.905   6.550   0.031 -0.4858 -0.2970  0.1036
 2182SOL    HW117475   2.823   6.607   0.025  0.8042  1.4463 -1.8836
 2182SOL    HW217476   2.978   6.602   0.077 -0.2234 -1.5375  1.1356
 2183SOL     OW17477   8.489   0.623   1.813 -0.4798 -1.2566 -0.3205
 2183SOL    HW117478   8.482   0.704   1.754  0.4283  0.3457  1.7444
 2183SOL    HW217479   8.401   0.607   1.857 -0.8888 -1.8876 -1.3512
 2184SOL     OW17480   2.411   7.266   5.968 -0.3942 -0.7929  0.1095
 2184SOL    HW117481   2.465   7.187   5.997  0.0607 -0.2806  0.6655
 2184SOL    HW217482   2.314   7.242   5.968 -0.3656 -0.9159  1.6453
 2185SOL     OW17483   2.983   8.398   3.380 -0.0025 -0.4202 -0.3592
 2185SOL    HW117484   2.936   8.327   3.432  0.2000 -1.0511 -1.0304
 2185SOL    HW217485   2.972   8.381   3.283 -0.1587  0.6158 -0.5221
 2186SOL     OW17486   8.456   2.717   3.473 -0.2376  0.1792  0.2138
 2186SOL    HW117487   8.412   2.663   3.402  1.5229  0.4050 -1.0773
 2186SOL    HW217488   8.410   2.806   3.481 -2.2330 -0.9157  1.3669
 2187SOL     OW17489   7.071   1.530   4.103  0.7595 -0.2762 -0.0032
 2187SOL    HW117490   7.044   1.600   4.037  0.0346  0.4181  1.0136
 2187SOL    HW217491   7.030   1.442   4.078  1.0946 -0.1782 -0.8864
 2188SOL     OW17492   3.252   2.957   3.512  0.0160 -0.0036 -0.0841
 2188SOL    HW117493   3.331   2.978   3.454 -0.6242 -0.0788 -0.9991
 2188SOL    HW217494   3.168   2.979   3.462 -0.5635 -0.9306  0.4783
 2189SOL     OW17495   8.587   9.741   4.660  0.1312  0.4714  0.3832
 2189SOL    HW117496   8.570   9.644   4.649 -0.4099  0.6271 -0.1564
 2189SOL    HW217497   8.504   9.785   4.696  0.6058  0.6134  1.3283
 2190SOL     OW17498   3.401   0.043   1.948  0.5929  0.3658 -0.2467
 2190SOL    HW117499   3.424   0.059   2.044 -1.4215  1.6602  0.0491
 2190SOL    HW217500   3.467  -0.021   1.908  1.8395  0.3280  1.8071
 2191SOL     OW17501   8.652   1.076   5.889 -0.8504  0.2135  0.0408
 2191SOL    HW117502   8.745   1.069   5.853 -0.5706  0.8078  0.6337
 2191SOL    HW217503   8.649   1.041   5.982 -1.3835 -0.4983 -0.2427
 2192SOL     OW17504   9.643   3.336   4.654 -0.0059 -0.2520 -0.1991
 2192SOL    HW117505   9.696   3.336   4.569 -0.0005  1.0618 -0.2003
 2192SOL    HW217506   9.671   3.259   4.711 -0.8996 -1.9209 -1.9310
 2193SOL     OW17507   4.275   0.017   3.437 -0.0764  0.1513  0.0376
 2193SOL    HW117508   4.281   0.074   3.354 -2.0536  0.4214  0.0470
 2193SOL    HW217509   4.199   0.049   3.493  1.2508 -0.0360  1.9833
 2194SOL     OW17510   3.560   2.115   4.607  0.0535 -0.6796 -0.2441
 2194SOL    HW117511   3.590   2.028   4.645 -0.1741 -0.8552 -0.4594
 2194SOL    HW217512   3.578   2.116   4.509  1.9019  0.3230  0.1041
 2195SOL     OW17513   1.393   8.400   3.790  0.1207  0.7364  0.3681
 2195SOL    HW117514   1.441   8.481   3.753 -1.7209  1.5893 -0.1893
 2195SOL    HW217515   1.295   8.412   3.780 -0.1981 -1.3932  0.7344
 2196SOL     OW17516   8.221   7.066   4.275 -0.2611  0.2041 -0.1781
 2196SOL    HW117517   8.177   7.156   4.280 -0.8446  0.1109 -3.1240
 2196SOL    HW217518   8.274   7.060   4.191 -0.9531 -2.5258 -0.4392
 2197SOL     OW17519   2.622   3.550   1.954  0.5350 -0.0595 -0.1389
 2197SOL    HW117520   2.562   3.470   1.955 -1.0973  1.1277 -0.0280
 2197SOL    HW217521   2.680   3.550   2.036 -0.8719 -0.0915  0.8764
 2198SOL     OW17522   4.578   4.224   2.548  0.6359  0.8407 -0.5324
 2198SOL    HW117523   4.567   4.259   2.641  4.1357  1.2096 -0.2157
 2198SOL    HW217524   4.573   4.300   2.483 -0.4456  0.7537 -0.5647
 2199SOL     OW17525   7.186   7.521   3.551 -0.4355  0.1963 -0.2523
 2199SOL    HW117526   7.179   7.514   3.451  1.5767  3.2677 -0.6872
 2199SOL    HW217527   7.095   7.520   3.591 -1.3190 -0.1232 -2.2116
 2200SOL     OW17528   1.131   8.650   3.338 -0.0963 -0.1177  0.3249
 2200SOL    HW117529   1.195   8.581   3.303  0.7276  0.1480  1.2812
 2200SOL    HW217530   1.073   8.608   3.409 -1.1095 -0.4000 -0.6454
 2201SOL     OW17531   0.473   4.593   0.775  0.3607  0.3485 -0.7506
 2201SOL    HW117532   0.543   4.644   0.726 -0.7895 -0.4715 -3.3493
 2201SOL    HW217533   0.491   4.495   0.765 -0.0062  0.1610  0.3407
 2202SOL     OW17534   1.386   8.145   0.012 -0.3174  0.1367  0.1498
 2202SOL    HW117535   1.420   8.172  -0.078 -0.3155 -0.5652 -0.0591
 2202SOL    HW217536   1.290   8.175   0.020 -0.5507 -0.4505 -0.3709
 2203SOL     OW17537   2.932   7.567   1.641 -0.3726  0.3090  0.0552
 2203SOL    HW117538   2.862   7.634   1.613 -0.0863 -0.0806 -1.6712
 2203SOL    HW217539   2.922   7.484   1.587 -0.3030 -0.8143  1.7425
 2204SOL     OW17540   9.644   4.702   4.700 -0.1555  0.5083  0.1410
 2204SOL    HW117541   9.573   4.764   4.733 -0.2175  1.2601 -1.3676
 2204SOL    HW217542   9.726   4.754   4.678 -0.2524  0.0647 -1.2646
 2205SOL     OW17543   1.232   0.733   1.745  0.2892  0.3121  0.3336
 2205SOL    HW117544   1.316   0.712   1.694  0.6662  1.1823  0.5933
 2205SOL    HW217545   1.173   0.790   1.688  2.1935  4.1804  2.0779
 2206SOL     OW17546   5.664   0.651   1.919 -0.0060  0.2894  0.3631
 2206SOL    HW117547   5.669   0.666   1.820 -0.2645 -1.1532  0.1229
 2206SOL    HW217548   5.599   0.577   1.939  1.9317 -1.1559  1.4326
 2207SOL     OW17549   2.993   7.965   3.160  0.1674 -0.4269  0.5952
 2207SOL    HW117550   2.999   8.019   3.243  0.9783 -0.3326  0.4800
 2207SOL    HW217551   2.916   7.998   3.105  0.6418  0.6115  0.5310
 2208SOL     OW17552   6.673   7.551   3.677 -0.2526  0.3077 -0.2128
 2208SOL    HW117553   6.654   7.527   3.772 -0.4612  1.6237  0.0933
 2208SOL    HW217554   6.758   7.604   3.672 -0.2726  0.2927 -0.7535
 2209SOL     OW17555   5.828   7.851   4.991  0.5788  0.7810  0.4224
 2209SOL    HW117556   5.890   7.782   5.031  0.9876 -0.3382 -2.0259
 2209SOL    HW217557   5.751   7.804   4.947  0.6633  1.9041 -0.9393
 2210SOL     OW17558   9.606   4.714   0.998  0.3244  0.4110 -0.0004
 2210SOL    HW117559   9.567   4.801   0.969  1.1847  0.6966 -0.3192
 2210SOL    HW217560   9.679   4.688   0.935  0.7431 -0.0421  0.6663
 2211SOL     OW17561   2.854   3.494   6.643  0.0240  0.4245  1.0314
 2211SOL    HW117562   2.897   3.575   6.685  0.9904  0.9688 -0.9237
 2211SOL    HW217563   2.799   3.523   6.565 -0.0076 -0.7713  0.6103
 2212SOL     OW17564   6.048   9.051   2.669 -0.1419 -0.2508  0.1917
 2212SOL    HW117565   6.082   9.048   2.575  0.4010  0.8977  0.3442
 2212SOL    HW217566   5.971   9.114   2.675  0.5437  0.5503  0.7346
 2213SOL     OW17567   7.745   9.562   4.731  0.1925  0.0752 -0.4389
 2213SOL    HW117568   7.792   9.648   4.750  1.4275 -0.2559 -1.9469
 2213SOL    HW217569   7.691   9.535   4.811  1.8370  0.9199  0.9872
 2214SOL     OW17570   0.861   3.056   1.194 -0.1384  1.1852  0.0355
 2214SOL    HW117571   0.937   3.003   1.157 -0.7907  1.5288 -1.8321
 2214SOL    HW217572   0.817   3.004   1.268  1.1701  0.4902  0.3401
 2215SOL     OW17573   5.821   9.114   2.428 -0.3049  0.0094  0.3780
 2215SOL    HW117574   5.866   9.026   2.412 -0.4427 -0.1056  0.6254
 2215SOL    HW217575   5.731   9.098   2.468  1.4680  0.3780  4.7478
 2216SOL     OW17576   0.219   5.215   2.268  0.3089  0.4026  0.7254
 2216SOL    HW117577   0.215   5.181   2.362 -0.2097  0.3084  0.6665
 2216SOL    HW217578   0.167   5.155   2.208 -1.3279  1.7612  0.7674
 2217SOL     OW17579   5.577   8.909   4.102  0.5383 -0.2032  0.2759
 2217SOL    HW117580   5.569   8.820   4.056 -0.5202 -0.2324  0.4864
 2217SOL    HW217581   5.486   8.950   4.110  1.1653  1.4868 -0.9495
 2218SOL     OW17582   8.481   9.019   2.617 -0.0196  0.3955  0.5040
 2218SOL    HW117583   8.446   9.053   2.529  0.6074 -1.3188 -0.4434
 2218SOL    HW217584   8.409   8.967   2.663  0.1392 -0.0625  0.2425
 2219SOL     OW17585   8.532   4.387   0.366  0.4302 -0.1560 -0.0524
 2219SOL    HW117586   8.477   4.470   0.359 -1.2171 -1.4045 -2.4544
 2219SOL    HW217587   8.627   4.409   0.343 -0.4527  0.6444 -3.2830
 2220SOL     OW17588   8.486   6.711   5.824 -0.7622 -0.0572  0.3093
 2220SOL    HW117589   8.402   6.731   5.774 -0.8513 -1.1408  0.0260
 2220SOL    HW217590   8.535   6.636   5.780 -0.2696 -0.2634  1.1909
 2221SOL     OW17591   6.058   7.073   1.935  0.1573 -0.6889 -0.5297
 2221SOL    HW117592   5.994   7.067   1.858 -1.9399  1.6712  0.9153
 2221SOL    HW217593   6.024   7.018   2.011  0.1332  0.0898  0.0339
 2222SOL     OW17594   0.892   6.981   5.932 -0.0970  0.4482 -0.3550
 2222SOL    HW117595   0.937   6.898   5.898 -0.1529 -0.0112  0.6852
 2222SOL    HW217596   0.960   7.043   5.970 -0.1312  0.6059 -0.5465
 2223SOL     OW17597   3.431   4.781   2.623 -0.1396  0.3165  0.0273
 2223SOL    HW117598   3.338   4.818   2.616 -0.3272 -0.0573  0.4989
 2223SOL    HW217599   3.473   4.813   2.708 -0.3070 -0.5522  0.4444
 2224SOL     OW17600   8.520   9.486   4.626 -0.5003  0.1907  0.6060
 2224SOL    HW117601   8.503   9.501   4.529 -0.9009 -3.2029  0.0715
 2224SOL    HW217602   8.436   9.455   4.671  0.0554  0.1973  1.6761
 2225SOL     OW17603   4.422   1.269   2.271  0.0502  0.2554  0.7352
 2225SOL    HW117604   4.355   1.316   2.214 -0.0715  0.2291  0.8586
 2225SOL    HW217605   4.513   1.282   2.232 -0.2491 -1.3698 -0.5356
 2226SOL     OW17606   5.559   1.015   3.888 -0.5460  0.6267  0.3000
 2226SOL    HW117607   5.502   1.007   3.806  1.1328 -0.0240 -0.8182
 2226SOL    HW217608   5.506   1.060   3.961 -2.6781 -0.4530 -0.5216
 2227SOL     OW17609   1.446   0.708   3.113  0.4307 -0.1706 -0.1049
 2227SOL    HW117610   1.453   0.615   3.148  0.6031  0.1977  0.8661
 2227SOL    HW217611   1.538   0.748   3.106  0.5553 -0.7911 -2.5525
 2228SOL     OW17612   8.948   1.153   2.639  0.2613 -0.3055 -0.7346
 2228SOL    HW117613   8.865   1.121   2.684 -0.3820  1.3618 -0.6887
 2228SOL    HW217614   8.939   1.143   2.540 -0.1961  0.3236 -0.7579
 2229SOL     OW17615   9.849   3.934   0.393 -0.1586 -0.3234 -0.0735
 2229SOL    HW117616   9.912   3.978   0.457 -2.4972  1.8784  0.7927
 2229SOL    HW217617   9.824   3.999   0.321 -1.0665 -1.3186 -0.6732
 2230SOL     OW17618   4.062   3.215   1.433  0.1646 -0.5736 -0.1912
 2230SOL    HW117619   4.132   3.240   1.500 -1.2089  0.3020  0.9676
 2230SOL    HW217620   3.974   3.253   1.462 -0.4893 -0.2973 -2.4355
 2231SOL     OW17621   6.802   1.667   3.468 -0.1158 -0.1731 -0.0060
 2231SOL    HW117622   6.803   1.569   3.446  0.4458 -0.3984  0.9960
 2231SOL    HW217623   6.886   1.709   3.433  0.3954 -0.3733  0.9453
 2232SOL     OW17624   9.086   4.068   4.046 -0.2970 -0.0942 -0.0252
 2232SOL    HW117625   9.010   4.106   4.099  1.8266 -0.8225  3.7130
 2232SOL    HW217626   9.070   3.971   4.030  0.2618 -0.4592  1.5776
 2233SOL     OW17627   5.092   3.242   2.592 -0.4115 -0.2154  0.5005
 2233SOL    HW117628   5.134   3.331   2.610  0.2754 -0.4377  0.0121
 2233SOL    HW217629   5.078   3.230   2.494 -0.7356 -0.5464  0.5829
 2234SOL     OW17630   1.898   7.605   2.012 -0.0938 -0.0482  0.3049
 2234SOL    HW117631   1.943   7.516   2.018 -1.7087 -0.8079  1.3906
 2234SOL    HW217632   1.816   7.598   1.955  0.6262  1.1192 -0.9115
 2235SOL     OW17633   2.724   1.853   4.555  0.1667  0.4592 -0.1297
 2235SOL    HW117634   2.671   1.846   4.640  0.5256  1.6719  0.2076
 2235SOL    HW217635   2.744   1.949   4.537 -0.6611  0.2755 -2.0618
 2236SOL     OW17636   8.502   4.110   4.982  0.5151  0.2500  0.2026
 2236SOL    HW117637   8.493   4.013   5.005  0.1144  0.1021 -0.5481
 2236SOL    HW217638   8.543   4.159   5.059  2.6497 -0.8656 -0.1830
 2237SOL     OW17639   1.451   1.801   2.526  0.5517 -0.1388 -0.4979
 2237SOL    HW117640   1.485   1.732   2.590 -0.1708 -0.2556 -0.2254
 2237SOL    HW217641   1.441   1.760   2.435 -1.2658 -0.8211 -0.0180
 2238SOL     OW17642   8.016   6.366   3.108 -0.0032 -0.4083 -0.4242
 2238SOL    HW117643   7.930   6.332   3.070 -0.3148 -0.0121 -0.0755
 2238SOL    HW217644   8.005   6.462   3.134  0.1898 -0.7057  0.7538
 2239SOL     OW17645   0.648   4.197   0.141  0.3440 -0.8200 -0.5522
 2239SOL    HW117646   0.732   4.213   0.089  0.1722 -1.8619 -1.1596
 2239SOL    HW217647   0.578   4.261   0.111  0.5616 -0.7282 -0.8654
 2240SOL     OW17648   4.222   4.851   6.505  0.0181 -0.2079  0.1779
 2240SOL    HW117649   4.294   4.915   6.478 -0.8392  0.5313 -0.3675
 2240SOL    HW217650   4.264   4.763   6.531  1.2237  0.6884  1.3273
 2241SOL     OW17651   7.350   1.107   3.119  0.3082  0.4561 -0.1920
 2241SOL    HW117652   7.416   1.142   3.053 -0.1139  1.0621 -0.3011
 2241SOL    HW217653   7.299   1.183   3.159  0.4209  0.0727  0.6905
 2242SOL     OW17654   0.865   6.012   3.188 -0.1979  0.2496 -0.1076
 2242SOL    HW117655   0.816   5.959   3.119  0.6404 -0.8162  0.0985
 2242SOL    HW217656   0.938   6.064   3.145  0.1948 -0.2583 -0.0705
 2243SOL     OW17657   2.916   2.564   2.909  0.9425  0.1827  0.0152
 2243SOL    HW117658   2.962   2.650   2.886  1.1142 -0.2340 -1.2214
 2243SOL    HW217659   2.914   2.553   3.009 -0.0117  2.1315  0.2394
 2244SOL     OW17660   3.411   6.909   5.648 -0.0349  0.0886  0.3461
 2244SOL    HW117661   3.434   6.997   5.688  0.8641  0.4123 -0.8449
 2244SOL    HW217662   3.378   6.922   5.554  0.1726 -0.8464  0.1343
 2245SOL     OW17663   8.131   8.074   2.634 -0.4430  0.3627 -0.5214
 2245SOL    HW117664   8.129   7.994   2.695 -0.7634  0.5447 -0.2967
 2245SOL    HW217665   8.106   8.156   2.686 -1.3087  0.4276 -1.0338
 2246SOL     OW17666   1.644   6.788   3.938 -0.5328  0.4605 -0.2701
 2246SOL    HW117667   1.718   6.844   3.977  0.8120 -1.1364 -0.4790
 2246SOL    HW217668   1.598   6.738   4.011 -1.4973  1.5325 -0.1276
 2247SOL     OW17669   0.267   9.964   4.188 -0.6743 -0.0670  0.0166
 2247SOL    HW117670   0.190   9.975   4.251  0.3138  1.1551  1.0325
 2247SOL    HW217671   0.290  10.053   4.148  0.1729 -0.4364 -0.3281
 2248SOL     OW17672   5.253   9.911   1.866 -0.5978  0.3306  0.1817
 2248SOL    HW117673   5.327   9.976   1.883 -1.4855  0.7808  2.4528
 2248SOL    HW217674   5.279   9.821   1.900 -0.1557 -0.0646 -1.1827
 2249SOL     OW17675   6.596   0.511   2.182 -0.3870 -0.4830  0.4786
 2249SOL    HW117676   6.553   0.463   2.105  0.4982 -1.2845  0.4762
 2249SOL    HW217677   6.695   0.512   2.169 -0.4449  2.3259 -0.0988
 2250SOL     OW17678   4.628   7.309   3.121  0.0083  0.3759 -0.0946
 2250SOL    HW117679   4.535   7.339   3.104 -0.2238  1.0963  2.2013
 2250SOL    HW217680   4.635   7.210   3.109 -0.5046  0.6234 -2.4678
 2251SOL     OW17681   7.760   7.208   2.654 -0.2689  0.0549  0.3002
 2251SOL    HW117682   7.775   7.286   2.714  2.6388  0.7020 -1.1537
 2251SOL    HW217683   7.745   7.126   2.709  0.6777  0.9238  1.8845
 2252SOL     OW17684   2.482   6.015   0.720 -0.5965  0.1435 -0.4471
 2252SOL    HW117685   2.513   6.050   0.632 -1.9814 -0.9226 -1.3713
 2252SOL    HW217686   2.417   5.941   0.706 -0.4602 -0.3790  1.4786
 2253SOL     OW17687   0.961   7.347   3.061  0.5265 -0.2887 -0.6466
 2253SOL    HW117688   0.920   7.299   3.139  0.5234 -1.9818 -1.6510
 2253SOL    HW217689   0.959   7.445   3.077 -0.9014 -0.5311  0.7997
 2254SOL     OW17690   0.686   0.192   3.202 -0.5502  0.4453 -0.1216
 2254SOL    HW117691   0.642   0.265   3.151 -0.7564  0.3944 -0.0204
 2254SOL    HW217692   0.683   0.213   3.300 -0.1535  0.5455 -0.1306
 2255SOL     OW17693   3.493   8.700   3.562 -0.1626  0.2803 -0.3686
 2255SOL    HW117694   3.443   8.700   3.476 -0.9669 -2.1678  0.0437
 2255SOL    HW217695   3.466   8.619   3.616  2.7097  0.0256  0.7628
 2256SOL     OW17696   6.252   0.508   1.201  0.5160  0.0482 -0.3547
 2256SOL    HW117697   6.322   0.516   1.130  1.5649 -1.1160  0.5553
 2256SOL    HW217698   6.294   0.517   1.291 -0.4347 -1.0844  0.2089
 2257SOL     OW17699   9.792   5.024   4.192 -0.1290 -0.0386 -0.1872
 2257SOL    HW117700   9.868   5.002   4.254 -1.1051  2.1111  1.8592
 2257SOL    HW217701   9.822   5.091   4.125  0.4964 -1.2102 -1.1089
 2258SOL     OW17702   2.718   4.861   1.533  0.2378  0.0912  0.1139
 2258SOL    HW117703   2.666   4.776   1.543 -1.3604  1.1021  0.6039
 2258SOL    HW217704   2.739   4.876   1.437  1.7409 -1.5440  0.1553
 2259SOL     OW17705   8.241   3.994   1.499  0.0127 -0.2249  0.3972
 2259SOL    HW117706   8.236   3.929   1.424  1.4584 -0.0107  0.0914
 2259SOL    HW217707   8.211   4.084   1.468 -1.7860 -0.6793  0.7637
 2260SOL     OW17708   6.736   8.824   3.750 -0.3042 -0.0550  0.2205
 2260SOL    HW117709   6.722   8.741   3.695 -0.4085  0.2841 -0.2633
 2260SOL    HW217710   6.833   8.841   3.760 -0.2655 -0.7785  1.1343
 2261SOL     OW17711   8.492   2.906   1.687 -0.4750  0.0093  0.1744
 2261SOL    HW117712   8.462   2.970   1.616 -1.6426 -0.1171  0.5460
 2261SOL    HW217713   8.516   2.818   1.645  0.1587  0.3597 -0.2143
 2262SOL     OW17714   2.697   6.857   2.294  0.0975  0.3319 -0.0646
 2262SOL    HW117715   2.619   6.826   2.348  0.4497  1.2106  0.9647
 2262SOL    HW217716   2.701   6.805   2.208 -1.1291 -0.2830  0.2399
 2263SOL     OW17717   8.734   3.727   1.151  0.2346  0.1889  0.5512
 2263SOL    HW117718   8.787   3.809   1.128  0.2868  0.1115  0.3906
 2263SOL    HW217719   8.734   3.714   1.250  1.1210 -0.2128  0.4975
 2264SOL     OW17720   9.449   8.157   0.055 -0.1089  0.0393  0.5366
 2264SOL    HW117721   9.438   8.252   0.028 -0.7107  0.2816  1.5760
 2264SOL    HW217722   9.390   8.099  -0.001  2.3725 -0.0833 -2.0321
 2265SOL     OW17723   4.853   4.102   6.368  0.0263  0.2469  0.1957
 2265SOL    HW117724   4.874   4.199   6.353  2.3333 -0.4490 -1.4271
 2265SOL    HW217725   4.932   4.058   6.411  0.1785 -1.5082 -1.7952
 2266SOL     OW17726   3.791   5.416   3.819 -0.5767  0.0152 -0.7648
 2266SOL    HW117727   3.876   5.432   3.869 -0.9670 -3.8646  1.2564
 2266SOL    HW217728   3.713   5.437   3.878 -1.0427 -0.7504 -1.1083
 2267SOL     OW17729   4.749   8.815   2.401  0.7323  0.4455 -0.0452
 2267SOL    HW117730   4.822   8.868   2.357  1.6471 -0.8006 -0.0791
 2267SOL    HW217731   4.706   8.755   2.333  1.0521 -0.2958  0.3963
 2268SOL     OW17732   7.360   1.396   2.542 -0.1637  0.2656  0.0541
 2268SOL    HW117733   7.369   1.414   2.444  3.6997  1.1961  0.5107
 2268SOL    HW217734   7.367   1.298   2.559  1.2447  0.2896 -0.4016
 2269SOL     OW17735   0.843   3.239   0.931 -0.7901  0.0830 -0.0435
 2269SOL    HW117736   0.797   3.150   0.928  0.0868 -0.3805  0.2335
 2269SOL    HW217737   0.795   3.303   0.871 -0.6717 -0.9306 -1.2423
 2270SOL     OW17738   1.642   6.190   2.023  0.4517  0.5869 -0.4059
 2270SOL    HW117739   1.631   6.231   1.932  1.8589  0.9069 -0.4505
 2270SOL    HW217740   1.723   6.229   2.067  0.6924 -0.7399  0.3433
 2271SOL     OW17741   8.563   5.785   5.971  0.4499  0.2904 -0.0015
 2271SOL    HW117742   8.475   5.831   5.958  0.7755  0.6850 -0.8472
 2271SOL    HW217743   8.558   5.692   5.935  0.3851  0.3226 -0.0779
 2272SOL     OW17744   7.910   1.353   2.893 -0.2307 -0.3811 -0.0550
 2272SOL    HW117745   7.831   1.415   2.894 -0.5013 -0.7452  1.8664
 2272SOL    HW217746   7.994   1.407   2.889 -0.4804  0.1111  1.1247
 2273SOL     OW17747   5.241   8.692   3.480 -0.1209 -0.0641 -0.8101
 2273SOL    HW117748   5.227   8.626   3.406  0.4497 -0.5663 -0.4664
 2273SOL    HW217749   5.300   8.766   3.448 -0.3482  0.0242 -1.0336
 2274SOL     OW17750   6.885   9.307   2.535 -0.0497 -0.1172 -0.2693
 2274SOL    HW117751   6.807   9.334   2.479 -0.6961 -0.3550  0.4965
 2274SOL    HW217752   6.852   9.252   2.612  1.0085 -1.3164 -0.6491
 2275SOL     OW17753   1.111   7.324   3.402 -0.9488  0.0381  0.1442
 2275SOL    HW117754   1.135   7.421   3.392 -0.4950  0.0599  1.2790
 2275SOL    HW217755   1.125   7.297   3.498 -3.4059 -0.5271  0.3565
 2276SOL     OW17756   0.350   7.812   3.252  0.0312 -0.1719  0.3872
 2276SOL    HW117757   0.447   7.820   3.226  0.0133 -0.6151  0.1904
 2276SOL    HW217758   0.327   7.716   3.265 -0.7732 -0.1897 -1.0594
 2277SOL     OW17759   1.971   5.251   2.938  0.4131 -0.0761 -0.1229
 2277SOL    HW117760   1.948   5.315   3.011  0.8911  0.7197 -0.6537
 2277SOL    HW217761   1.890   5.235   2.882  0.3124  0.1509 -0.0451
 2278SOL     OW17762   7.190   1.768   4.990 -0.2577  0.7122  0.2004
 2278SOL    HW117763   7.158   1.828   5.063 -0.2249  0.2425  0.5955
 2278SOL    HW217764   7.145   1.795   4.904 -0.2718  1.2794  0.3813
 2279SOL     OW17765   4.981   3.620   0.583 -0.0909 -0.0318  0.3197
 2279SOL    HW117766   4.991   3.521   0.578 -0.0546 -0.0546  0.8270
 2279SOL    HW217767   4.916   3.644   0.656  0.0407  0.3253  0.3220
 2280SOL     OW17768   4.993   4.102   0.028  0.2300  0.0070  0.1675
 2280SOL    HW117769   4.918   4.038   0.011  0.2662  0.2144 -0.8190
 2280SOL    HW217770   4.956   4.189   0.060  0.1705 -0.4563  1.3770
 2281SOL     OW17771   8.621   8.524   0.992  0.1145  0.3509  0.2516
 2281SOL    HW117772   8.715   8.496   0.969  0.0065  0.4321 -0.2944
 2281SOL    HW217773   8.607   8.514   1.090  0.7669  0.5431  0.3702
 2282SOL     OW17774   0.561   3.155   0.613 -0.1580 -0.2314  0.3847
 2282SOL    HW117775   0.478   3.149   0.668  0.3465  1.2524  1.3410
 2282SOL    HW217776   0.590   3.251   0.606  1.6148 -0.7486  0.3038
 2283SOL     OW17777   6.165   9.333   5.565  0.1367  0.2363  0.2377
 2283SOL    HW117778   6.103   9.262   5.531  1.8154 -1.2072  0.1039
 2283SOL    HW217779   6.168   9.329   5.665  0.1086  0.1970  0.2374
 2284SOL     OW17780   8.741   2.021   4.277 -0.3635  0.8010  0.3999
 2284SOL    HW117781   8.806   1.984   4.210  0.8707  0.9163  1.5251
 2284SOL    HW217782   8.668   2.069   4.228  0.8079  1.3525 -0.8630
 2285SOL     OW17783   9.615   4.017   0.535 -0.3061 -0.1813 -0.3711
 2285SOL    HW117784   9.643   4.024   0.630 -1.7271 -1.3568  0.1467
 2285SOL    HW217785   9.678   3.955   0.486  1.2039  1.4469 -0.5375
 2286SOL     OW17786   1.295   5.773   4.179 -0.4874  0.2866 -0.5331
 2286SOL    HW117787   1.267   5.700   4.242 -0.0183  0.2407 -0.3765
 2286SOL    HW217788   1.219   5.836   4.166 -0.8885 -0.2093 -0.6372
 2287SOL     OW17789   1.326   2.740   2.162 -0.9718  0.6637 -0.2873
 2287SOL    HW117790   1.352   2.654   2.205 -1.2361  0.4836 -0.4833
 2287SOL    HW217791   1.381   2.755   2.080 -0.8694  0.7213 -0.2080
 2288SOL     OW17792   9.068   9.400   2.543  0.6683 -0.4461 -0.1049
 2288SOL    HW117793   9.015   9.324   2.506 -0.7486  0.7576 -0.5907
 2288SOL    HW217794   9.062   9.479   2.481  0.9584  0.5293  1.0802
 2289SOL     OW17795   9.051   1.033   2.246 -0.1472  0.4267  0.1805
 2289SOL    HW117796   9.073   0.979   2.328 -0.9797  0.7006  0.5854
 2289SOL    HW217797   8.995   1.111   2.272  0.8525  1.3658 -0.4418
 2290SOL     OW17798   3.051   7.987   4.448 -0.4897  0.1535 -0.3325
 2290SOL    HW117799   3.085   8.020   4.360 -2.1557  0.9152 -0.7157
 2290SOL    HW217800   2.996   7.905   4.433 -1.5319  0.8070 -0.1213
 2291SOL     OW17801   1.292   2.741   5.201  0.5699  0.3201 -1.1357
 2291SOL    HW117802   1.231   2.809   5.241 -1.3725 -1.7084 -0.5364
 2291SOL    HW217803   1.386   2.775   5.205 -0.2110  2.4579  0.2215
 2292SOL     OW17804   4.001   6.345   1.566 -0.1492 -0.0315 -0.5852
 2292SOL    HW117805   3.956   6.288   1.635 -1.4426  0.5629 -0.9207
 2292SOL    HW217806   3.964   6.323   1.476 -1.1738  1.8163 -0.6388
 2293SOL     OW17807   3.565   4.517   6.051  0.3928 -0.5166  0.6369
 2293SOL    HW117808   3.501   4.589   6.022 -0.7489 -2.1591 -1.0338
 2293SOL    HW217809   3.559   4.506   6.150  0.6960  1.7789  0.9394
 2294SOL     OW17810   9.289   7.082   5.709  0.9333  0.0301 -0.3726
 2294SOL    HW117811   9.385   7.080   5.682  1.1840 -1.7017  0.5587
 2294SOL    HW217812   9.264   6.994   5.748 -1.2742  0.1901 -1.3739
 2295SOL     OW17813   9.803   7.293   5.818  0.1805  0.3595 -0.1579
 2295SOL    HW117814   9.765   7.274   5.908  2.0300 -0.8845  0.3974
 2295SOL    HW217815   9.896   7.330   5.828  0.4593  0.0753 -1.5469
 2296SOL     OW17816   0.313   6.977   3.354 -0.0667 -0.1169  0.1052
 2296SOL    HW117817   0.336   7.017   3.443 -2.4537  0.0139  0.6909
 2296SOL    HW217818   0.215   6.955   3.351  0.3653 -1.9785 -1.7683
 2297SOL     OW17819   3.482   0.675   1.835  0.5976 -0.9995  0.4591
 2297SOL    HW117820   3.479   0.648   1.931 -0.5736 -2.6928 -0.0172
 2297SOL    HW217821   3.576   0.699   1.809  0.9393 -0.6739  1.9758
 2298SOL     OW17822   2.864   4.209   3.661  0.0056  0.4318 -0.8341
 2298SOL    HW117823   2.929   4.254   3.600  3.0974 -0.8007  1.4001
 2298SOL    HW217824   2.914   4.163   3.735 -3.4953  0.4885  1.7130
 2299SOL     OW17825   4.873   0.019   3.027  0.1607 -0.1311  0.4506
 2299SOL    HW117826   4.946  -0.042   3.060 -0.2057 -0.4268  0.7249
 2299SOL    HW217827   4.787  -0.005   3.072  0.1860  1.1461  1.2036
 2300SOL     OW17828   2.254   3.485   2.815  0.5031 -0.3652 -0.2290
 2300SOL    HW117829   2.158   3.499   2.840  0.5198  0.7763 -0.8303
 2300SOL    HW217830   2.301   3.439   2.891 -0.4533 -0.7051  0.1638
 2301SOL     OW17831   5.419   0.387   1.614  0.1847 -0.3464 -0.4684
 2301SOL    HW117832   5.423   0.469   1.557  0.5377  2.0727  2.8945
 2301SOL    HW217833   5.504   0.334   1.603  1.4589  1.5751 -0.0488
 2302SOL     OW17834   0.438   7.577   2.741 -0.3649 -0.1641 -0.1576
 2302SOL    HW117835   0.436   7.671   2.776  2.1492 -0.1935  0.1466
 2302SOL    HW217836   0.355   7.559   2.688 -2.5968  1.0549  2.7404
 2303SOL     OW17837   3.336   9.278   0.891 -0.5140  0.4791 -0.7877
 2303SOL    HW117838   3.276   9.207   0.929  0.8158 -0.5762 -0.6286
 2303SOL    HW217839   3.376   9.245   0.806 -0.2318  1.2222 -0.9432
 2304SOL     OW17840   2.741   5.613   5.970  0.0505 -0.0708 -0.0860
 2304SOL    HW117841   2.829   5.570   5.950  0.2027 -0.4104  1.2178
 2304SOL    HW217842   2.724   5.607   6.069 -0.8491  1.1025 -0.1629
 2305SOL     OW17843   2.583   7.584   4.087  0.1351 -0.2697  0.5400
 2305SOL    HW117844   2.642   7.523   4.141  0.7529 -1.6747 -1.6619
 2305SOL    HW217845   2.628   7.605   4.000 -1.8121  0.1486 -0.3957
 2306SOL     OW17846   9.136   3.260   1.986  0.2692 -0.0993 -0.5945
 2306SOL    HW117847   9.152   3.216   1.898 -2.9903  0.0575 -1.3472
 2306SOL    HW217848   9.086   3.197   2.046 -0.9894  1.1710 -0.2907
 2307SOL     OW17849   3.909   1.429   2.432  0.0000  0.1381  0.0547
 2307SOL    HW117850   3.957   1.343   2.449  1.0413  0.7215  0.1158
 2307SOL    HW217851   3.936   1.496   2.500 -0.9612  0.4643  0.1246
 2308SOL     OW17852   9.509   8.770   1.385 -0.1328 -0.4641  0.0530
 2308SOL    HW117853   9.495   8.841   1.454  0.6689  1.1199 -1.3759
 2308SOL    HW217854   9.480   8.681   1.421  0.7072  0.2684  2.5653
 2309SOL     OW17855   0.159   4.461   3.118 -0.1984 -0.4290 -0.2912
 2309SOL    HW117856   0.120   4.502   3.200  1.9943  2.7161 -0.7316
 2309SOL    HW217857   0.091   4.463   3.044 -0.6545  1.0581  0.1473
 2310SOL     OW17858   2.599   6.212   5.135  0.0865  0.0928 -0.0832
 2310SOL    HW117859   2.640   6.259   5.057  0.0580  0.6850  0.2503
 2310SOL    HW217860   2.593   6.114   5.116 -0.6745  0.3365 -1.1612
 2311SOL     OW17861   9.813   5.648   6.577  0.6251 -0.4503  0.7814
 2311SOL    HW117862   9.786   5.697   6.494 -1.1358 -0.7861  1.1379
 2311SOL    HW217863   9.911   5.659   6.592  0.6881  0.8539 -0.5213
 2312SOL     OW17864   9.957   7.874   0.398 -0.0315  0.5164  0.5837
 2312SOL    HW117865  10.010   7.954   0.372  0.8487  0.0655  0.9725
 2312SOL    HW217866   9.906   7.892   0.482  0.9948  0.3078  1.2503
 2313SOL     OW17867   2.123   5.614   1.532 -0.0875  0.0678 -0.3842
 2313SOL    HW117868   2.219   5.592   1.514 -0.3917 -1.8564  0.2348
 2313SOL    HW217869   2.109   5.621   1.631 -0.8418 -0.8874 -0.4193
 2314SOL     OW17870   2.398   0.972   3.922 -0.1858  0.0625  0.6038
 2314SOL    HW117871   2.336   0.919   3.980  1.0128 -1.8356  0.1994
 2314SOL    HW217872   2.489   0.931   3.924  0.6516  1.8338 -0.1370
 2315SOL     OW17873   1.934   7.901   3.805  0.3223  0.2952  0.3386
 2315SOL    HW117874   1.866   7.911   3.733  0.9632  2.2335 -0.0056
 2315SOL    HW217875   1.985   7.816   3.791 -1.0404 -0.4561 -0.2035
 2316SOL     OW17876   0.668   5.773   2.322  0.2911 -0.4636  0.2963
 2316SOL    HW117877   0.593   5.812   2.377 -0.0649  1.0545 -1.2360
 2316SOL    HW217878   0.755   5.811   2.354  0.0295  0.9063 -0.5687
 2317SOL     OW17879   7.719   9.130   5.051 -0.2225  0.0669 -0.2393
 2317SOL    HW117880   7.732   9.202   5.119  2.6813 -0.9949  0.4117
 2317SOL    HW217881   7.807   9.104   5.012 -1.3718 -2.1602 -1.4837
 2318SOL     OW17882   9.219   5.450   0.149 -0.3559  0.2501 -0.0347
 2318SOL    HW117883   9.175   5.361   0.149 -0.1540  0.1485 -0.5238
 2318SOL    HW217884   9.298   5.449   0.211  0.0492 -0.1100 -0.5621
 2319SOL     OW17885   8.079   2.122   4.256 -0.4986 -0.2715  0.1943
 2319SOL    HW117886   8.093   2.149   4.351  4.9719  0.1621 -0.5646
 2319SOL    HW217887   8.039   2.198   4.205 -1.2709  0.2908  1.5995
 2320SOL     OW17888   7.808   9.830   0.461  0.1716 -0.2007  0.2126
 2320SOL    HW117889   7.749   9.792   0.389 -1.4616 -1.5985  2.2184
 2320SOL    HW217890   7.819   9.928   0.446  0.0549 -0.4932 -2.0622
 2321SOL     OW17891   8.716   2.967   0.209 -0.6724  0.4723  0.3818
 2321SOL    HW117892   8.674   2.876   0.205  1.4784 -0.5424 -0.1282
 2321SOL    HW217893   8.814   2.957   0.226 -0.9374  2.8415  3.7063
 2322SOL     OW17894   4.136   8.991   3.158  0.2975  0.8328  0.0435
 2322SOL    HW117895   4.230   8.979   3.191 -0.3502  1.4586  2.1979
 2322SOL    HW217896   4.096   8.901   3.139  0.6711  0.4567  1.0168
 2323SOL     OW17897   0.236   5.480   4.441  0.2199 -0.0573 -0.4009
 2323SOL    HW117898   0.167   5.508   4.373 -1.5304 -0.4610  1.1643
 2323SOL    HW217899   0.263   5.386   4.423 -0.0505 -0.0829 -0.6949
 2324SOL     OW17900   4.757   2.212   0.625 -0.0155  0.3967 -0.3945
 2324SOL    HW117901   4.851   2.180   0.639  0.0421  0.7355  0.0249
 2324SOL    HW217902   4.758   2.310   0.606 -0.3906  0.7205  1.1516
 2325SOL     OW17903   5.802   7.688   2.043 -0.1147 -0.4688  0.3408
 2325SOL    HW117904   5.885   7.743   2.030 -0.1891 -0.4003  0.1506
 2325SOL    HW217905   5.809   7.637   2.128  1.2974 -2.5539 -0.9807
 2326SOL     OW17906   1.485   7.625   0.517 -0.1064 -0.2302 -0.6935
 2326SOL    HW117907   1.423   7.547   0.510 -0.7039  0.3456 -2.1230
 2326SOL    HW217908   1.544   7.628   0.436  0.6306  0.1998 -0.1492
 2327SOL     OW17909   9.666   8.123   0.860 -0.5856 -0.0723 -0.1768
 2327SOL    HW117910   9.644   8.155   0.768  0.2256  0.2655 -0.2597
 2327SOL    HW217911   9.626   8.033   0.875 -0.1156 -0.4430 -1.1195
 2328SOL     OW17912   7.595   0.492   2.735 -0.4737 -0.1762 -0.0047
 2328SOL    HW117913   7.596   0.395   2.759  2.4825 -0.1076  0.2955
 2328SOL    HW217914   7.607   0.547   2.817  0.6075  0.3360 -0.4978
 2329SOL     OW17915   1.212   9.511   3.338 -0.2704  0.1888  0.1085
 2329SOL    HW117916   1.129   9.456   3.350  0.1141 -0.3863  0.1331
 2329SOL    HW217917   1.250   9.535   3.427  0.2009 -0.4706  0.0827
 2330SOL     OW17918   0.796   3.608   2.624  0.3400 -0.3444  0.2295
 2330SOL    HW117919   0.730   3.624   2.698 -1.7520  0.6496 -1.8129
 2330SOL    HW217920   0.818   3.510   2.621 -3.5855 -1.2738 -1.1082
 2331SOL     OW17921   5.521   9.691   2.107 -0.2462 -0.0631 -0.2486
 2331SOL    HW117922   5.538   9.778   2.153 -0.8665 -0.2948  0.4377
 2331SOL    HW217923   5.425   9.687   2.079 -0.3960 -0.8259  0.3696
 2332SOL     OW17924   8.113   3.015   5.309  0.3444  0.6337  0.2782
 2332SOL    HW117925   8.152   3.046   5.396  1.1099 -1.1680  0.5956
 2332SOL    HW217926   8.046   2.943   5.326 -1.9012  2.4956 -0.4034
 2333SOL     OW17927   4.902   7.338   2.653  0.5713  0.3139  0.1121
 2333SOL    HW117928   4.980   7.335   2.590  1.2695  1.1107  0.9198
 2333SOL    HW217929   4.927   7.294   2.739 -0.6314 -1.4521 -0.4116
 2334SOL     OW17930   8.179   0.948   2.792  0.1575 -0.1859 -0.1703
 2334SOL    HW117931   8.178   0.924   2.889  1.4359  0.9445  0.1336
 2334SOL    HW217932   8.209   0.868   2.739  1.1762 -0.2937  0.5386
 2335SOL     OW17933   7.807   3.461   1.685  0.2320 -0.5167  0.0738
 2335SOL    HW117934   7.865   3.424   1.758  1.5911  0.3793 -0.5305
 2335SOL    HW217935   7.771   3.550   1.712  1.5807  0.2906 -0.7549
 2336SOL     OW17936   1.703   8.750   3.472  0.1983  0.5584  0.2843
 2336SOL    HW117937   1.779   8.757   3.406 -0.3844  1.3788 -0.3047
 2336SOL    HW217938   1.618   8.732   3.422  0.0433 -0.6524  0.9679
 2337SOL     OW17939   1.391   7.146   6.307 -0.9125 -0.1697  0.0584
 2337SOL    HW117940   1.453   7.198   6.249 -0.3536  1.2153  1.8586
 2337SOL    HW217941   1.343   7.078   6.251 -1.8041  2.3496 -2.3853
 2338SOL     OW17942   5.958   9.154   2.195  0.6114 -0.5123  0.1961
 2338SOL    HW117943   5.933   9.139   2.290  1.6928 -1.1110  0.4027
 2338SOL    HW217944   6.054   9.128   2.182  1.0675  1.4368 -0.6073
 2339SOL     OW17945   7.995   8.748   2.926  0.2930 -0.6356 -0.4981
 2339SOL    HW117946   7.954   8.732   3.016  2.6059  0.0342  0.7193
 2339SOL    HW217947   7.957   8.833   2.888 -0.6178 -0.8576 -0.1176
 2340SOL     OW17948   4.754   3.263   0.642 -0.0854 -0.1180  0.5142
 2340SOL    HW117949   4.669   3.212   0.654  0.0971 -0.1553  1.7990
 2340SOL    HW217950   4.739   3.339   0.579 -0.3825 -1.6862 -1.3529
 2341SOL     OW17951   2.199   1.115   4.215  0.2203  0.6902 -0.0194
 2341SOL    HW117952   2.289   1.150   4.239  1.2262 -3.5298  2.9024
 2341SOL    HW217953   2.140   1.119   4.296 -0.6336 -1.2332 -0.5373
 2342SOL     OW17954   0.422   3.291   2.241 -0.0055  0.3687 -0.4171
 2342SOL    HW117955   0.431   3.313   2.144 -1.1724 -0.7314 -0.7973
 2342SOL    HW217956   0.325   3.290   2.266  0.3248  1.7598  1.0412
 2343SOL     OW17957   9.922   9.034   4.613  0.2895  0.0022 -0.9657
 2343SOL    HW117958   9.956   9.031   4.519 -0.0456 -0.6143 -1.0732
 2343SOL    HW217959   9.835   9.083   4.616 -0.0616 -0.6107 -1.0940
 2344SOL     OW17960   9.091   4.150   2.230 -1.3574  0.2817  0.6078
 2344SOL    HW117961   9.102   4.176   2.134 -1.3661 -0.5575  0.3799
 2344SOL    HW217962   9.160   4.197   2.285  0.0343 -0.9080 -0.1006
 2345SOL     OW17963   0.233   3.166   6.339  0.2862 -0.7814  0.1016
 2345SOL    HW117964   0.139   3.143   6.365  0.0389 -0.8261 -0.8086
 2345SOL    HW217965   0.231   3.229   6.262  0.9926  0.0965  0.7870
 2346SOL     OW17966   3.122   2.064   1.872 -0.3566  0.2351 -0.5112
 2346SOL    HW117967   3.110   1.985   1.811 -0.2608 -0.9246  0.9439
 2346SOL    HW217968   3.210   2.108   1.852 -0.6347  0.2825 -1.6681
 2347SOL     OW17969   2.743   3.579   5.455  0.0563 -0.3191  0.5905
 2347SOL    HW117970   2.738   3.679   5.452  2.4634 -0.1654  0.6490
 2347SOL    HW217971   2.747   3.549   5.551 -0.5950 -0.4865  0.5707
 2348SOL     OW17972   3.347   9.511   2.398 -0.1087 -0.1019 -0.0962
 2348SOL    HW117973   3.382   9.417   2.391 -1.2362 -0.4587 -1.4716
 2348SOL    HW217974   3.316   9.529   2.491  0.5144 -0.9455  0.2805
 2349SOL     OW17975   3.557   5.219   2.520  0.2888  0.6796 -0.1730
 2349SOL    HW117976   3.520   5.309   2.543  0.4088  1.4968 -3.0137
 2349SOL    HW217977   3.636   5.229   2.460 -0.0358 -1.3149 -0.9900
 2350SOL     OW17978   8.200   9.856   1.799 -0.3827 -0.3004  0.0891
 2350SOL    HW117979   8.245   9.774   1.763 -0.4062 -0.3518  0.1748
 2350SOL    HW217980   8.257   9.936   1.781 -1.0311 -0.1363 -1.2960
 2351SOL     OW17981   5.248   0.058   2.438  0.1769  0.4379 -0.3033
 2351SOL    HW117982   5.323  -0.002   2.468  1.3257  1.8011 -0.3990
 2351SOL    HW217983   5.167   0.002   2.420  1.3801 -1.1757 -0.9499
 2352SOL     OW17984   3.460   8.001   0.677  0.1057 -0.3028 -0.0542
 2352SOL    HW117985   3.404   8.068   0.725 -0.9321 -1.2014  0.0092
 2352SOL    HW217986   3.521   8.047   0.612 -2.2432  0.5208 -1.7129
 2353SOL     OW17987   3.646   7.573   4.210 -0.1580  0.1932 -0.3298
 2353SOL    HW117988   3.650   7.473   4.210  2.1698  0.2641 -0.3513
 2353SOL    HW217989   3.594   7.604   4.131 -0.2436 -0.9929 -0.7449
 2354SOL     OW17990   7.161   0.769   4.497 -0.0207  0.5692 -0.0531
 2354SOL    HW117991   7.085   0.793   4.436 -0.2990  0.1396  0.1240
 2354SOL    HW217992   7.244   0.759   4.443 -0.1997  0.5153 -0.3223
 2355SOL     OW17993   2.088   4.026   4.785  0.0484  0.6572 -0.6525
 2355SOL    HW117994   2.141   3.946   4.757 -1.0356  0.1101 -1.1785
 2355SOL    HW217995   2.126   4.107   4.741  2.2512  0.7167  1.2598
 2356SOL     OW17996   4.732   7.514   2.958 -0.8072  0.2390 -0.1766
 2356SOL    HW117997   4.830   7.521   2.978 -1.1190 -2.7331  2.6725
 2356SOL    HW217998   4.694   7.434   3.003 -4.7463  1.7349 -0.6461
 2357SOL     OW17999   1.961   9.065   4.919  0.0500 -0.1652 -0.1532
 2357SOL    HW118000   1.991   9.018   5.002 -0.4821  1.6546  1.1166
 2357SOL    HW218001   2.030   9.131   4.892 -0.8665  1.0226  0.3255
 2358SOL     OW18002   6.546   1.117   3.074  0.5961 -0.3809  0.0060
 2358SOL    HW118003   6.640   1.126   3.040  1.1937 -1.1498  1.4151
 2358SOL    HW218004   6.533   1.177   3.153 -0.4848  0.6587 -0.9508
 2359SOL     OW18005   5.791   1.339   4.889 -0.0256 -0.1003 -0.6409
 2359SOL    HW118006   5.874   1.297   4.926  0.1731  0.5342 -0.3400
 2359SOL    HW218007   5.816   1.424   4.841 -0.3109 -0.7802 -2.0143
 2360SOL     OW18008   7.923   8.671   2.249  0.2466 -0.3152  0.4963
 2360SOL    HW118009   7.997   8.660   2.316  0.1313 -0.6868  0.5646
 2360SOL    HW218010   7.851   8.604   2.268  0.7795 -1.2666 -0.7556
 2361SOL     OW18011   2.983   0.405   3.992  0.2545 -0.2892  0.3005
 2361SOL    HW118012   2.976   0.308   4.012 -1.2766  0.0145  1.2949
 2361SOL    HW218013   2.903   0.435   3.940  1.6855  0.0395 -1.7957
 2362SOL     OW18014   9.078   9.149   4.533  0.1370 -0.2732  0.2617
 2362SOL    HW118015   9.167   9.194   4.533  0.9052 -1.7584 -0.0094
 2362SOL    HW218016   9.084   9.064   4.584 -1.2098 -0.2359  0.4904
 2363SOL     OW18017   8.867   6.477   1.361 -0.3030  0.5229  0.1711
 2363SOL    HW118018   8.887   6.414   1.286  1.2977  0.9650  0.1984
 2363SOL    HW218019   8.947   6.535   1.378 -1.0634  1.2316  1.4385
 2364SOL     OW18020   0.017   2.168   4.916 -0.5136  0.2283 -0.2344
 2364SOL    HW118021  -0.057   2.220   4.958 -0.9121 -1.5176  1.2463
 2364SOL    HW218022   0.006   2.169   4.817 -1.6847  1.1874 -0.1119
 2365SOL     OW18023   3.238   0.871   1.684  0.1904 -0.2269  0.0165
 2365SOL    HW118024   3.333   0.851   1.709 -0.3913 -0.8049  1.8202
 2365SOL    HW218025   3.195   0.789   1.646 -0.0445 -0.3978  0.6485
 2366SOL     OW18026   4.843   6.966   1.693  0.2946  0.1365 -0.2010
 2366SOL    HW118027   4.938   6.996   1.709  0.1113  0.6967 -0.1400
 2366SOL    HW218028   4.826   6.881   1.743  0.0920  1.2414  1.6574
 2367SOL     OW18029   0.253   5.652   5.069  0.6238  0.2034  0.2824
 2367SOL    HW118030   0.253   5.737   5.017 -0.1014  0.4422  0.6525
 2367SOL    HW218031   0.181   5.592   5.035  1.2213 -0.3201 -0.0639
 2368SOL     OW18032   1.801   4.458   1.530  0.3076  1.2868 -0.1653
 2368SOL    HW118033   1.869   4.450   1.603  0.2973  0.1690 -0.2665
 2368SOL    HW218034   1.822   4.537   1.473  1.6590  0.8265 -0.3201
 2369SOL     OW18035   3.876   2.521   2.203 -0.1783  0.8102 -0.0308
 2369SOL    HW118036   3.965   2.508   2.247  0.3465 -1.2943 -1.6471
 2369SOL    HW218037   3.803   2.502   2.270  0.5672  1.0085  0.8557
 2370SOL     OW18038   5.012   4.034   3.638 -0.4020 -0.3466 -0.0148
 2370SOL    HW118039   5.016   3.995   3.547  2.0692  0.7926 -0.4391
 2370SOL    HW218040   5.015   3.961   3.707  3.2994 -1.0049 -0.7902
 2371SOL     OW18041   7.580   9.874   4.373  0.6062  0.1095  0.3390
 2371SOL    HW118042   7.522   9.892   4.293 -0.9978 -2.4048  0.8689
 2371SOL    HW218043   7.597   9.776   4.380  2.1512  0.4772  2.1400
 2372SOL     OW18044   9.532   1.895   4.643  0.4530  0.2036 -0.4425
 2372SOL    HW118045   9.498   1.989   4.639  0.9162  0.3155 -2.2249
 2372SOL    HW218046   9.631   1.896   4.635  0.4198 -0.4572 -0.9389
 2373SOL     OW18047   3.166   4.355   2.427  0.0483 -0.2589 -0.0278
 2373SOL    HW118048   3.131   4.263   2.408  1.0701 -0.7277  0.2914
 2373SOL    HW218049   3.101   4.423   2.396 -1.4734 -1.1124  1.2284
 2374SOL     OW18050   8.421   3.112   4.231  0.2128  0.0607 -0.4079
 2374SOL    HW118051   8.411   3.044   4.303  2.1941  0.2606  0.0696
 2374SOL    HW218052   8.462   3.195   4.268  1.1526  0.2114 -1.7497
 2375SOL     OW18053   2.152   3.708   3.862  0.5361  0.9127 -0.5128
 2375SOL    HW118054   2.222   3.666   3.805 -0.4828 -2.5691  0.6219
 2375SOL    HW218055   2.061   3.676   3.832 -0.0846 -0.0113  2.1819
 2376SOL     OW18056   2.504   7.378   5.075  0.2687 -0.2469 -0.2940
 2376SOL    HW118057   2.579   7.431   5.116 -0.6583  2.2860 -1.7883
 2376SOL    HW218058   2.446   7.439   5.020 -2.3513 -2.3381  0.0634
 2377SOL     OW18059   6.650   1.162   1.630  0.4679 -0.0363 -0.1913
 2377SOL    HW118060   6.731   1.145   1.686  0.2942 -0.4180 -0.0560
 2377SOL    HW218061   6.639   1.261   1.617  0.9384  0.0192 -0.1871
 2378SOL     OW18062   8.979   3.241   5.279 -0.1242  0.1277 -0.1264
 2378SOL    HW118063   9.023   3.291   5.204  0.5484  1.5804  1.2165
 2378SOL    HW218064   8.993   3.143   5.266 -2.2511  0.1603 -3.3061
 2379SOL     OW18065   8.687   7.985   0.938  0.2110  0.2255 -0.2055
 2379SOL    HW118066   8.691   8.057   0.869 -0.0907  0.2148 -0.2340
 2379SOL    HW218067   8.597   7.942   0.936 -0.0576  0.7455  0.7236
 2380SOL     OW18068   5.947   8.256   5.232 -0.0863 -0.4688 -0.1962
 2380SOL    HW118069   5.890   8.174   5.235  0.4258 -0.9119 -2.0498
 2380SOL    HW218070   6.037   8.233   5.195  0.0511  0.9182 -0.7673
 2381SOL     OW18071   1.932   6.694   2.538  0.3557  0.2018 -0.5155
 2381SOL    HW118072   2.026   6.665   2.557  0.1633 -1.0175 -1.3832
 2381SOL    HW218073   1.931   6.793   2.519  1.3406  0.3741  0.2659
 2382SOL     OW18074   2.723   2.129   3.503 -0.1774  0.4920 -0.3785
 2382SOL    HW118075   2.736   2.228   3.509  1.3924  0.3669 -1.5311
 2382SOL    HW218076   2.729   2.100   3.408 -4.7619 -0.1826 -0.5678
 2383SOL     OW18077   1.251   6.762   1.757 -0.3211  0.2010  0.0152
 2383SOL    HW118078   1.246   6.680   1.813 -0.6956  1.3812  1.7642
 2383SOL    HW218079   1.193   6.751   1.676  1.1516 -1.9826 -0.7904
 2384SOL     OW18080   0.244   2.767   3.515 -0.3354 -0.3354 -0.3829
 2384SOL    HW118081   0.303   2.755   3.595 -0.4980 -0.4996 -0.2864
 2384SOL    HW218082   0.170   2.700   3.518 -0.6057 -0.0375 -0.4308
 2385SOL     OW18083   8.405   9.952   1.335 -0.3121 -0.7155  0.0258
 2385SOL    HW118084   8.370  10.045   1.324 -0.7735 -0.6803  1.6912
 2385SOL    HW218085   8.331   9.892   1.365  0.4149 -1.2397  0.7777
 2386SOL     OW18086   3.251   0.947   3.114  0.0571 -0.0600  0.0748
 2386SOL    HW118087   3.313   0.888   3.166  0.2227 -0.4157 -0.5284
 2386SOL    HW218088   3.185   0.989   3.177 -0.7073 -1.6748  0.3540
 2387SOL     OW18089   0.549   2.983   5.045 -0.1940  0.9844 -0.0003
 2387SOL    HW118090   0.460   2.939   5.051  0.0105  0.5672 -0.0079
 2387SOL    HW218091   0.600   2.944   4.968 -0.2503  1.6626 -0.3864
 2388SOL     OW18092   4.253   4.128   0.345 -0.0849  0.3125 -0.4385
 2388SOL    HW118093   4.232   4.200   0.410 -1.0768 -0.4091  0.0511
 2388SOL    HW218094   4.187   4.054   0.355  2.1018 -1.5826  0.4461
 2389SOL     OW18095   9.224   4.104   3.693 -0.0487  0.0796 -0.3619
 2389SOL    HW118096   9.144   4.055   3.658 -0.5855 -0.5584  1.6972
 2389SOL    HW218097   9.194   4.186   3.743  0.6336  0.3632 -0.4140
 2390SOL     OW18098   0.831   4.790   3.564 -0.2737  0.5394  0.1444
 2390SOL    HW118099   0.879   4.784   3.477 -2.3276 -0.0082 -0.9991
 2390SOL    HW218100   0.758   4.721   3.566 -0.6085  0.9336  2.0617
 2391SOL     OW18101   2.920   4.450   4.580  0.3461  0.9825  0.1239
 2391SOL    HW118102   2.970   4.533   4.556 -2.4780  3.1513  1.3685
 2391SOL    HW218103   2.904   4.395   4.498  2.0847  1.7329 -0.7483
 2392SOL     OW18104   9.163   1.026   2.736 -0.3594  0.7165  0.5325
 2392SOL    HW118105   9.195   0.963   2.666  0.8295 -1.4497  2.9667
 2392SOL    HW218106   9.071   1.059   2.712  0.2570  0.4601 -2.2758
 2393SOL     OW18107   5.683   7.648   3.131  0.0613  0.1157 -0.4489
 2393SOL    HW118108   5.714   7.555   3.109 -0.3151  0.7995 -4.0382
 2393SOL    HW218109   5.588   7.644   3.161 -0.3164 -0.5223 -1.7100
 2394SOL     OW18110   4.028   3.404   4.909 -0.0230  0.3692 -0.5441
 2394SOL    HW118111   3.987   3.313   4.902  1.7067 -0.5206  0.6529
 2394SOL    HW218112   3.981   3.456   4.980 -1.1908  0.5324 -1.4103
 2395SOL     OW18113   8.527   1.328   4.155 -0.2313 -0.2116  0.1442
 2395SOL    HW118114   8.619   1.317   4.117 -0.2420 -1.0120  0.3265
 2395SOL    HW218115   8.527   1.402   4.222  0.3256 -0.3105  0.2570
 2396SOL     OW18116   4.616   1.105   4.729  1.2391 -0.2779  0.2482
 2396SOL    HW118117   4.607   1.162   4.647 -2.8657 -0.0613  0.7640
 2396SOL    HW218118   4.642   1.162   4.807  1.8374  0.0686 -0.1968
 2397SOL     OW18119   9.698   0.662   1.100  0.3232  0.1805 -0.4302
 2397SOL    HW118120   9.792   0.689   1.124  0.8827 -2.0080 -0.0634
 2397SOL    HW218121   9.672   0.706   1.014  0.7106  2.8705  0.7774
 2398SOL     OW18122   5.668   2.040   1.904  0.5612 -0.1792 -0.4086
 2398SOL    HW118123   5.651   1.946   1.931  2.5231 -0.1813  0.9261
 2398SOL    HW218124   5.729   2.041   1.824 -0.2172 -0.0485 -1.0071
 2399SOL     OW18125   3.096   1.751   3.184 -0.3299  0.2664  0.1166
 2399SOL    HW118126   3.125   1.814   3.113 -1.9448 -0.0888 -0.8694
 2399SOL    HW218127   3.021   1.694   3.151 -1.3619  0.3459  2.2080
 2400SOL     OW18128   9.739   6.488   1.732  0.2099  0.2292 -0.2897
 2400SOL    HW118129   9.839   6.487   1.731  0.2194  0.9950 -0.5599
 2400SOL    HW218130   9.704   6.480   1.639  0.0189 -0.1323 -0.1870
 2401SOL     OW18131   2.117   4.248   2.467  0.1397 -0.3319  0.0663
 2401SOL    HW118132   2.032   4.219   2.510  0.1621  0.3132  0.5517
 2401SOL    HW218133   2.159   4.171   2.420 -0.6597 -0.6731 -0.0831
 2402SOL     OW18134   2.290   7.320   3.216 -0.3014 -0.4678 -0.2841
 2402SOL    HW118135   2.260   7.286   3.127  0.6358  1.5032 -1.4042
 2402SOL    HW218136   2.257   7.413   3.229  0.8601 -0.1840  0.7557
 2403SOL     OW18137   8.838   9.776   3.275  0.4286  0.1468  0.0106
 2403SOL    HW118138   8.779   9.702   3.243  3.8568 -1.9164 -1.9050
 2403SOL    HW218139   8.791   9.864   3.264 -2.5190 -1.4612 -0.6733
 2404SOL     OW18140   2.096   5.651   1.226 -0.2579 -0.3059  0.5001
 2404SOL    HW118141   2.095   5.742   1.184  0.7424 -0.3863  0.2846
 2404SOL    HW218142   2.098   5.660   1.325 -0.7614 -0.1008  0.4951
 2405SOL     OW18143   0.674   8.837   4.272  0.6628  0.3098  0.0509
 2405SOL    HW118144   0.692   8.779   4.193  0.0251  1.1257 -0.6966
 2405SOL    HW218145   0.575   8.843   4.288  0.7813  0.2057  0.8699
 2406SOL     OW18146   9.549   7.718   3.664 -0.3467  0.1948  0.1638
 2406SOL    HW118147   9.467   7.772   3.680 -0.4230 -0.0893  0.7628
 2406SOL    HW218148   9.529   7.621   3.681 -0.9848 -0.4282 -3.6112
 2407SOL     OW18149   5.639   9.304   1.876 -0.3318  0.1665  0.8986
 2407SOL    HW118150   5.622   9.391   1.923  0.1985  1.0301 -0.4695
 2407SOL    HW218151   5.685   9.322   1.789 -2.2384 -1.3173 -0.4668
 2408SOL     OW18152   9.772   4.784   1.642  0.4153 -0.2386 -0.2818
 2408SOL    HW118153   9.681   4.804   1.680  0.1499 -0.4621 -0.7914
 2408SOL    HW218154   9.769   4.793   1.543  1.1628  0.5391 -0.2333
 2409SOL     OW18155   7.932   9.325   6.460 -0.3991 -0.0974 -0.5147
 2409SOL    HW118156   7.923   9.404   6.520  0.2214  0.5836 -1.3112
 2409SOL    HW218157   8.014   9.273   6.484  0.9552  1.2837 -2.0356
 2410SOL     OW18158   3.577   4.898   2.830  0.0524  0.3942 -0.1586
 2410SOL    HW118159   3.648   4.841   2.871  0.5462  0.7926 -0.4713
 2410SOL    HW218160   3.604   4.994   2.834  0.6502  0.3451 -2.5008
 2411SOL     OW18161   7.876   9.695   2.955 -0.3202 -0.0519  0.2205
 2411SOL    HW118162   7.829   9.625   2.901  1.6663  0.9610 -2.9118
 2411SOL    HW218163   7.828   9.782   2.946  0.0835  0.1475  0.0300
 2412SOL     OW18164   0.937   5.935   1.247  0.6868  0.4659 -0.1563
 2412SOL    HW118165   0.899   6.025   1.226 -0.7445 -0.1501 -0.2431
 2412SOL    HW218166   0.904   5.868   1.180 -2.1444 -1.0660  2.6555
 2413SOL     OW18167   7.156   0.411   4.373 -0.1076  0.1813  0.3032
 2413SOL    HW118168   7.215   0.472   4.321 -1.6359  0.6166 -0.9264
 2413SOL    HW218169   7.060   0.431   4.354 -0.6856 -0.4728  2.3413
 2414SOL     OW18170   4.103   0.370   4.446  0.0320  0.3610 -0.3162
 2414SOL    HW118171   4.013   0.399   4.478  0.4288  0.0268  1.1391
 2414SOL    HW218172   4.096   0.339   4.351 -1.2218  1.1024 -0.4780
 2415SOL     OW18173   4.658   8.366   4.176  0.2950 -0.7969 -0.1681
 2415SOL    HW118174   4.580   8.420   4.208  0.6784 -0.4203  0.1345
 2415SOL    HW218175   4.676   8.291   4.241 -0.5852 -1.6342 -0.8721
 2416SOL     OW18176   0.542   3.262   2.891 -0.3798  0.1312  0.1587
 2416SOL    HW118177   0.457   3.209   2.891 -0.3141  0.0248 -0.0876
 2416SOL    HW218178   0.598   3.235   2.813 -0.7033  1.1345 -0.4335
 2417SOL     OW18179   4.079   3.157   0.702 -0.1479 -0.1098 -0.0724
 2417SOL    HW118180   4.092   3.214   0.784 -0.5762 -1.1780  0.7425
 2417SOL    HW218181   4.148   3.182   0.634 -1.2275  2.4124 -0.3182
 2418SOL     OW18182   4.994   4.863   1.904 -0.3873  0.0906 -0.3406
 2418SOL    HW118183   4.925   4.930   1.879  0.9835  0.5769 -2.9812
 2418SOL    HW218184   5.008   4.799   1.828  0.4651 -1.3675  1.0076
 2419SOL     OW18185   9.368   1.430   2.867 -0.0754 -0.4260 -0.3838
 2419SOL    HW118186   9.349   1.524   2.839 -0.2910 -0.0672  0.9032
 2419SOL    HW218187   9.460   1.426   2.907 -0.8997 -0.2922  1.5784
 2420SOL     OW18188   0.346   7.114   3.628  0.2557  0.1806 -0.2670
 2420SOL    HW118189   0.443   7.125   3.603  0.2536  0.4265 -0.1763
 2420SOL    HW218190   0.328   7.167   3.711  0.4049 -1.1229  0.6134
 2421SOL     OW18191   4.038   1.374   3.861  0.1688  0.4458 -0.1658
 2421SOL    HW118192   4.054   1.404   3.767 -0.0653 -1.0836 -0.7074
 2421SOL    HW218193   3.942   1.392   3.886  0.0449  0.1863 -0.4621
 2422SOL     OW18194   9.940   5.348   2.234  0.1387  0.0514  0.3953
 2422SOL    HW118195   9.899   5.258   2.248  0.3196 -0.0901  0.0307
 2422SOL    HW218196  10.024   5.338   2.181 -0.3576  0.5350 -0.4972
 2423SOL     OW18197   3.005   9.314   1.766  0.0255 -0.6332  0.1228
 2423SOL    HW118198   3.025   9.217   1.779  1.1948 -0.4176 -0.0099
 2423SOL    HW218199   3.081   9.369   1.801 -0.1055  0.1969 -0.8601
 2424SOL     OW18200   3.814   4.449   3.659  0.1488 -0.6659 -0.0538
 2424SOL    HW118201   3.731   4.504   3.674 -0.1914 -1.6075  1.7154
 2424SOL    HW218202   3.884   4.506   3.617 -0.1730  1.1576  1.7996
 2425SOL     OW18203   4.651   9.159   1.666  0.0451  0.1954  0.7501
 2425SOL    HW118204   4.598   9.244   1.666  1.7500  1.2925 -1.5153
 2425SOL    HW218205   4.636   9.111   1.753 -3.2821  1.3107  0.8747
 2426SOL     OW18206   4.253   7.437   1.296  0.3895  0.0941  0.0715
 2426SOL    HW118207   4.307   7.507   1.249  1.3000 -1.2941 -0.9655
 2426SOL    HW218208   4.173   7.414   1.241  0.6287 -0.4045 -0.0725
 2427SOL     OW18209   9.318   2.655   2.271 -0.3916 -0.5211  0.4814
 2427SOL    HW118210   9.239   2.656   2.210  0.6375  1.2423 -0.8541
 2427SOL    HW218211   9.380   2.581   2.244 -0.6561 -0.6855  0.3235
 2428SOL     OW18212   0.150   5.609   0.346 -0.3772  0.0445 -0.1611
 2428SOL    HW118213   0.179   5.690   0.295 -1.9738 -0.0844 -1.3302
 2428SOL    HW218214   0.230   5.561   0.380  0.6432  1.3515 -0.6634
 2429SOL     OW18215   9.556   8.270   5.257 -0.3714  0.0459  0.0528
 2429SOL    HW118216   9.496   8.202   5.299 -0.8477  0.3369 -0.1514
 2429SOL    HW218217   9.639   8.224   5.222  0.0359 -0.1913  1.3028
 2430SOL     OW18218   2.116   9.278   3.685 -0.3753 -0.0807 -0.3110
 2430SOL    HW118219   2.131   9.362   3.737 -0.6066 -0.1471 -0.1390
 2430SOL    HW218220   2.056   9.296   3.608  1.1542  0.3400 -1.4180
 2431SOL     OW18221   6.026   4.185   0.099 -0.4960 -0.1932 -0.1871
 2431SOL    HW118222   6.058   4.238   0.178  0.6256  0.1549 -0.8476
 2431SOL    HW218223   6.052   4.089   0.111  0.4987  0.0220 -0.5470
 2432SOL     OW18224   1.729   3.757   0.337  0.5637 -0.2877  0.8354
 2432SOL    HW118225   1.743   3.796   0.428  2.2846  1.0336  0.0450
 2432SOL    HW218226   1.666   3.814   0.285  1.2391  0.1548  0.4885
 2433SOL     OW18227   6.716   8.605   3.594 -0.2408  0.3649 -0.1392
 2433SOL    HW118228   6.646   8.562   3.536  0.4192 -1.3539  0.3138
 2433SOL    HW218229   6.783   8.537   3.621  0.3930  1.5252  1.2737
 2434SOL     OW18230   8.472   8.691   1.246 -0.1632  0.1716  0.5168
 2434SOL    HW118231   8.431   8.781   1.231 -0.1428  0.0893 -0.0405
 2434SOL    HW218232   8.571   8.699   1.246 -0.1354 -0.0612 -0.9162
 2435SOL     OW18233   6.530   4.205   6.700 -0.2667  0.1118 -0.2995
 2435SOL    HW118234   6.444   4.241   6.663 -0.9404 -0.2354  0.8917
 2435SOL    HW218235   6.525   4.203   6.800  0.3147 -1.8977 -0.2816
 2436SOL     OW18236   4.485   9.770   2.881  0.7783  0.1826 -0.2424
 2436SOL    HW118237   4.509   9.785   2.977  0.0961 -0.0440 -0.0338
 2436SOL    HW218238   4.385   9.770   2.872  0.8453  1.3325 -1.1219
 2437SOL     OW18239   4.412   7.656   1.608  0.0013 -0.2202  0.5306
 2437SOL    HW118240   4.472   7.678   1.685 -0.6722 -1.0293  1.2908
 2437SOL    HW218241   4.327   7.615   1.642 -1.4649  1.8887 -0.4483
 2438SOL     OW18242   2.619   3.512   3.683  0.4068 -0.3339  0.0270
 2438SOL    HW118243   2.618   3.610   3.665 -0.7728 -0.0747  1.4876
 2438SOL    HW218244   2.641   3.495   3.779 -0.9337 -1.4395  0.1535
 2439SOL     OW18245   9.627   6.113   5.493 -0.3023 -0.1366 -0.4827
 2439SOL    HW118246   9.687   6.179   5.539 -2.3130  0.7816  0.9025
 2439SOL    HW218247   9.555   6.163   5.444 -1.0403 -1.2690 -0.5580
 2440SOL     OW18248   8.787   6.370   2.354 -0.4575 -0.1177 -0.2278
 2440SOL    HW118249   8.809   6.454   2.305 -0.0872 -0.0619  0.0344
 2440SOL    HW218250   8.693   6.375   2.389 -0.0922  0.6115  0.6730
 2441SOL     OW18251   2.711   3.094   0.874  0.1611  0.0097  0.0329
 2441SOL    HW118252   2.688   3.097   0.777 -0.4827  0.2653  0.1935
 2441SOL    HW218253   2.672   3.174   0.920  1.1687  0.3264  0.3504
 2442SOL     OW18254   9.416   8.689   4.964  0.0658 -0.4972 -0.6591
 2442SOL    HW118255   9.483   8.762   4.952  0.2710 -0.7892 -1.3264
 2442SOL    HW218256   9.435   8.638   5.048  0.6287 -0.5278 -0.8062
 2443SOL     OW18257   1.739   5.714   5.671 -0.3205 -0.5734  0.7712
 2443SOL    HW118258   1.679   5.727   5.750 -0.4092 -1.9169  0.9354
 2443SOL    HW218259   1.729   5.620   5.637  0.9010 -0.4786  0.1450
 2444SOL     OW18260   3.491   4.929   3.348  0.4676 -0.1073 -0.7115
 2444SOL    HW118261   3.540   4.893   3.427 -0.2714  0.1031 -0.1575
 2444SOL    HW218262   3.500   4.864   3.272 -1.4602 -1.8481  0.4964
 2445SOL     OW18263   2.800   5.542   2.910 -0.5831 -0.3147 -0.4094
 2445SOL    HW118264   2.723   5.543   2.846  0.0807  1.6633 -1.2004
 2445SOL    HW218265   2.883   5.570   2.863  0.3678 -1.0849  0.7885
 2446SOL     OW18266   3.155   6.854   4.937 -0.2190 -0.7400  0.0139
 2446SOL    HW118267   3.196   6.943   4.956  2.1171 -1.6636 -0.5529
 2446SOL    HW218268   3.162   6.796   5.018  0.5900 -1.2665 -0.4296
 2447SOL     OW18269   3.694   2.883   4.912 -0.4972 -0.5696  0.3960
 2447SOL    HW118270   3.606   2.928   4.898 -0.3646 -0.6722 -0.8766
 2447SOL    HW218271   3.679   2.792   4.951 -0.7270  0.7535  3.5465
 2448SOL     OW18272   8.001   9.185   0.270  0.1775 -0.2499  0.3449
 2448SOL    HW118273   7.943   9.251   0.221 -0.0206 -0.3539  0.4417
 2448SOL    HW218274   8.097   9.205   0.251  0.2665  2.0774  2.8940
 2449SOL     OW18275   3.403   4.785   4.384  0.1754 -0.3850 -0.2647
 2449SOL    HW118276   3.348   4.868   4.394 -0.5594 -0.9031  0.0532
 2449SOL    HW218277   3.370   4.715   4.448 -0.1176 -1.3948 -1.5118
 2450SOL     OW18278   0.582   7.235   3.517  0.1778  0.0713 -0.2660
 2450SOL    HW118279   0.665   7.206   3.565 -0.4793 -0.0329  0.8266
 2450SOL    HW218280   0.573   7.334   3.521  1.2772  0.2753 -2.1120
 2451SOL     OW18281   4.055   7.785   3.503 -0.5313 -0.0026 -0.2234
 2451SOL    HW118282   3.956   7.779   3.515 -0.5616 -0.6070 -0.7300
 2451SOL    HW218283   4.081   7.880   3.485 -1.0734  0.0828 -0.5720
 2452SOL     OW18284   9.475   6.024   5.689  0.1672  0.0001  0.1133
 2452SOL    HW118285   9.529   6.037   5.772  0.3178 -1.8841  0.3502
 2452SOL    HW218286   9.527   6.054   5.610  0.2278  1.3179  0.6386
 2453SOL     OW18287   2.144   4.794   6.501  0.3871 -0.3830 -0.1032
 2453SOL    HW118288   2.238   4.773   6.527  1.5009  2.4596 -1.6186
 2453SOL    HW218289   2.122   4.888   6.528 -1.6347 -0.6422 -0.7605
 2454SOL     OW18290   6.116   1.955   3.919 -0.3566 -0.7379 -0.7017
 2454SOL    HW118291   6.074   1.872   3.881  2.4139 -1.0017 -3.3420
 2454SOL    HW218292   6.079   2.035   3.871 -0.0680 -0.7384 -0.9222
 2455SOL     OW18293   0.418   4.495   4.492 -0.2671 -0.2937 -0.2331
 2455SOL    HW118294   0.364   4.514   4.573 -1.1462  3.9824 -1.6803
 2455SOL    HW218295   0.359   4.457   4.421 -0.2267 -0.6958 -0.0538
 2456SOL     OW18296   1.956   8.774   3.328  0.4605  0.0868 -0.1072
 2456SOL    HW118297   2.041   8.721   3.326  0.1904 -0.3511 -0.0740
 2456SOL    HW218298   1.970   8.856   3.383  0.6899 -0.2822  0.4016
 2457SOL     OW18299   3.841   2.179   4.221 -0.2061  0.4816 -0.1361
 2457SOL    HW118300   3.886   2.245   4.282 -1.3131 -0.7619  2.0852
 2457SOL    HW218301   3.895   2.095   4.217 -0.2466  0.4802 -0.7286
 2458SOL     OW18302   9.821   4.926   4.630  0.2481  0.1736  0.2873
 2458SOL    HW118303   9.830   5.015   4.585  0.9957 -0.4852 -0.9035
 2458SOL    HW218304   9.828   4.938   4.729  0.3716  1.4385  0.1339
 2459SOL     OW18305   8.516   7.521   2.350  0.5681  0.0828 -0.4908
 2459SOL    HW118306   8.431   7.475   2.375  0.8262 -0.4614 -0.6032
 2459SOL    HW218307   8.497   7.593   2.283 -0.3014  2.3457  2.1236
 2460SOL     OW18308   5.012   8.152   4.695  0.1992 -0.7812 -0.0573
 2460SOL    HW118309   4.982   8.241   4.730  0.0798 -1.3661  1.3638
 2460SOL    HW218310   5.106   8.134   4.726  0.6234 -0.6778 -1.2492
 2461SOL     OW18311   1.998   5.226   6.372 -0.7557 -0.5532 -0.1935
 2461SOL    HW118312   1.992   5.326   6.368  0.0314 -0.4174  1.5700
 2461SOL    HW218313   2.094   5.199   6.368 -0.8721 -1.1518  1.0414
 2462SOL     OW18314   2.251   4.075   5.849 -0.1224 -0.7336 -0.1189
 2462SOL    HW118315   2.205   3.996   5.809 -0.1490  0.0838 -1.7322
 2462SOL    HW218316   2.207   4.159   5.819  0.3016 -0.0712  1.0717
 2463SOL     OW18317   5.684   4.951   0.409  0.6088  0.2704  0.0325
 2463SOL    HW118318   5.781   4.977   0.412  0.8285 -0.4193 -0.8166
 2463SOL    HW218319   5.648   4.971   0.318  0.2720 -0.5681 -0.0226
 2464SOL     OW18320   7.534   0.388   4.933  0.1334  0.4977  0.7409
 2464SOL    HW118321   7.443   0.349   4.931  0.9931 -1.5318  0.1942
 2464SOL    HW218322   7.532   0.481   4.895 -1.4817  0.0132 -0.3913
 2465SOL     OW18323   4.228   9.320   1.342  0.0849 -0.5564  0.2319
 2465SOL    HW118324   4.232   9.418   1.323  0.7618 -0.8043 -0.9705
 2465SOL    HW218325   4.134   9.289   1.337 -0.0802 -0.0477  0.1642
 2466SOL     OW18326   8.180   1.384   4.345 -0.2538  0.4159 -0.1119
 2466SOL    HW118327   8.170   1.470   4.296  0.0104  0.0744 -0.7638
 2466SOL    HW218328   8.092   1.360   4.387 -0.8866 -0.0671 -1.6889
 2467SOL     OW18329   1.636   5.781   5.109 -1.0197 -0.2080 -0.2331
 2467SOL    HW118330   1.733   5.799   5.124 -1.6266  1.0740  2.3117
 2467SOL    HW218331   1.620   5.769   5.011  1.2187  2.5494 -1.0032
 2468SOL     OW18332   3.260   4.039   2.531 -0.3966 -0.7950  0.6570
 2468SOL    HW118333   3.183   4.049   2.467 -0.1150  2.9570  0.7960
 2468SOL    HW218334   3.239   4.086   2.616  2.6682  1.8146  0.0851
 2469SOL     OW18335   0.524   7.502   0.429  0.4671 -0.0645  0.1553
 2469SOL    HW118336   0.543   7.475   0.334 -1.2862 -1.1507  0.0812
 2469SOL    HW218337   0.441   7.559   0.430  0.0248 -0.7286  1.1189
 2470SOL     OW18338   9.274   5.384   1.507 -0.3234  0.3940 -0.1588
 2470SOL    HW118339   9.360   5.383   1.557 -0.4633 -0.2185  0.0659
 2470SOL    HW218340   9.253   5.478   1.479  0.6486  0.4721 -0.6279
 2471SOL     OW18341   7.832   6.935   2.164 -0.3385 -0.1154 -0.6462
 2471SOL    HW118342   7.839   6.941   2.064  0.0326  0.0470 -0.6133
 2471SOL    HW218343   7.840   7.027   2.203 -1.4985 -0.0645 -0.5269
 2472SOL     OW18344   2.513   6.571   6.282  0.0374 -0.5678 -0.5620
 2472SOL    HW118345   2.557   6.562   6.193 -0.5482 -3.1199 -0.6479
 2472SOL    HW218346   2.417   6.544   6.274 -0.3786  0.5767  0.5432
 2473SOL     OW18347   1.542   5.328   6.069 -0.5358  0.3413 -0.1419
 2473SOL    HW118348   1.615   5.322   6.137  0.3052  0.6483 -1.0034
 2473SOL    HW218349   1.580   5.360   5.982 -1.8199  1.1331 -0.4208
 2474SOL     OW18350   2.030   0.172   4.355  0.3117  0.9026  0.3718
 2474SOL    HW118351   2.008   0.143   4.262  0.4167 -1.0814  0.9545
 2474SOL    HW218352   2.130   0.174   4.366  0.3526  2.9274 -0.0869
 2475SOL     OW18353   8.743   1.406   3.763  0.0486 -0.3309 -0.3749
 2475SOL    HW118354   8.742   1.326   3.703 -1.9390 -0.4925 -0.1348
 2475SOL    HW218355   8.800   1.477   3.721  1.9898 -1.8964 -0.5030
 2476SOL     OW18356   9.521   6.759   3.277  0.0573 -0.1261  0.4318
 2476SOL    HW118357   9.573   6.774   3.360 -0.2653 -1.1464  0.8237
 2476SOL    HW218358   9.474   6.843   3.251  0.1439  0.1871  1.2924
 2477SOL     OW18359   8.954   5.882   5.866 -0.1307 -0.5030  0.2537
 2477SOL    HW118360   9.008   5.799   5.853  1.6165  0.4842  0.9353
 2477SOL    HW218361   8.923   5.917   5.777 -0.6034 -1.7066 -0.0531
 2478SOL     OW18362   1.350   5.864   6.391 -0.0549 -0.5767 -0.2570
 2478SOL    HW118363   1.398   5.810   6.322 -0.6459 -3.5240  1.5287
 2478SOL    HW218364   1.416   5.908   6.451  0.4903 -2.5236  0.6219
 2479SOL     OW18365   3.237   4.545   5.802  0.0460  0.0364  0.8373
 2479SOL    HW118366   3.312   4.580   5.747  1.1170 -1.7335  1.1332
 2479SOL    HW218367   3.175   4.493   5.743 -0.6365  0.9850  0.7045
 2480SOL     OW18368   2.326   7.713   6.491  0.2214 -0.5783 -0.4981
 2480SOL    HW118369   2.385   7.744   6.417 -0.4936  0.3484 -0.6874
 2480SOL    HW218370   2.249   7.776   6.502 -0.3336 -1.3613  0.2398
 2481SOL     OW18371   1.673   8.411   4.082  0.0260 -0.4776 -0.1200
 2481SOL    HW118372   1.669   8.439   4.178 -0.0646 -1.4661  0.1654
 2481SOL    HW218373   1.591   8.360   4.058 -0.8204  1.3724 -1.2459
 2482SOL     OW18374   9.652   5.757   3.526  0.5344  0.2629  0.4823
 2482SOL    HW118375   9.673   5.795   3.436  0.0959  1.3200  0.8118
 2482SOL    HW218376   9.604   5.826   3.581  2.5476  0.3289  2.2212
 2483SOL     OW18377   7.675   2.697   0.168  0.0291  0.8032 -0.4749
 2483SOL    HW118378   7.662   2.769   0.236 -2.0026 -0.1696  0.2187
 2483SOL    HW218379   7.617   2.618   0.192  0.2819 -0.0587 -2.6155
 2484SOL     OW18380   3.586   5.424   5.183 -0.2205 -0.0444  0.2607
 2484SOL    HW118381   3.500   5.452   5.224  0.1421  0.6975  0.5169
 2484SOL    HW218382   3.570   5.392   5.089 -0.5214  1.8145 -0.3344
 2485SOL     OW18383   2.929   5.285   1.227 -0.1497 -0.4640  0.0548
 2485SOL    HW118384   3.020   5.264   1.191 -0.7230 -0.2231 -1.6053
 2485SOL    HW218385   2.883   5.200   1.252 -0.0856 -0.7223 -0.6786
 2486SOL     OW18386   2.972   3.733   0.046 -0.2432 -0.5644 -0.1154
 2486SOL    HW118387   2.916   3.814   0.056 -0.2779 -0.7415  1.1286
 2486SOL    HW218388   2.955   3.670   0.122  1.3089 -0.8111  0.0439
 2487SOL     OW18389   8.991   0.429   4.637 -0.5331 -0.6896 -0.3283
 2487SOL    HW118390   8.947   0.412   4.726  1.7117  2.2132  1.4171
 2487SOL    HW218391   9.076   0.376   4.633 -1.0796 -1.5156 -1.1476
 2488SOL     OW18392   6.514   8.769   4.337  0.2308 -0.3612  0.3935
 2488SOL    HW118393   6.614   8.767   4.340  0.2011 -0.9664  0.9094
 2488SOL    HW218394   6.484   8.759   4.242  0.5824 -3.4528  0.5748
 2489SOL     OW18395   9.491   7.018   4.530  0.2973  0.1276  0.5160
 2489SOL    HW118396   9.584   7.016   4.568  0.6570  0.5746 -0.3126
 2489SOL    HW218397   9.427   7.052   4.599  1.4200  3.9722 -0.2086
 2490SOL     OW18398   8.354   3.276   2.933  0.1830 -0.6726 -0.7075
 2490SOL    HW118399   8.369   3.375   2.935  0.1071 -0.6058 -2.5557
 2490SOL    HW218400   8.258   3.257   2.951  0.3911 -0.4887  0.6788
 2491SOL     OW18401   0.966   9.025   3.485 -0.1280 -0.2117 -0.2162
 2491SOL    HW118402   1.007   8.952   3.430 -0.8126  0.4156 -1.5927
 2491SOL    HW218403   0.993   9.114   3.447  0.3558  0.2511  1.1874
 2492SOL     OW18404   0.771   6.122   0.815 -0.0936 -0.1943  0.3483
 2492SOL    HW118405   0.841   6.163   0.872 -1.1562  0.5650  1.1276
 2492SOL    HW218406   0.695   6.186   0.804  0.1805 -0.2288 -2.1067
 2493SOL     OW18407   5.084   5.657   1.694 -0.3614 -0.0412 -0.2169
 2493SOL    HW118408   5.109   5.579   1.635  2.1075 -0.1539  0.8932
 2493SOL    HW218409   5.063   5.623   1.786 -0.1733  0.5093  0.0294
 2494SOL     OW18410   6.580   8.439   2.192  1.1181 -0.1840  0.2835
 2494SOL    HW118411   6.628   8.430   2.280  1.2126  2.0499  0.4835
 2494SOL    HW218412   6.642   8.480   2.125  0.3691  0.0723 -0.2504
 2495SOL     OW18413   2.112   7.054   1.746 -0.0472  0.3647 -0.4335
 2495SOL    HW118414   2.050   7.023   1.674 -2.2464  1.1055  1.1120
 2495SOL    HW218415   2.182   6.984   1.761 -1.5333 -1.2798 -1.0079
 2496SOL     OW18416   9.299   0.771   4.941 -0.0137 -0.2608 -0.1512
 2496SOL    HW118417   9.393   0.749   4.968 -0.0414 -2.5307 -1.7557
 2496SOL    HW218418   9.299   0.855   4.887  1.1316 -0.4515 -0.4626
 2497SOL     OW18419   6.301   0.784   5.047  0.7016  0.0856  0.4988
 2497SOL    HW118420   6.318   0.687   5.030 -0.0776 -0.0197  0.3354
 2497SOL    HW218421   6.303   0.833   4.960  2.2242  0.4000  0.6896
 2498SOL     OW18422   5.693   1.357   5.155  0.2221  0.1769  0.1239
 2498SOL    HW118423   5.643   1.276   5.187  0.4264 -0.3156 -0.7747
 2498SOL    HW218424   5.727   1.340   5.062  0.1055  1.3753 -0.1376
 2499SOL     OW18425   0.373   4.045   2.014 -0.2104 -0.0384  0.2676
 2499SOL    HW118426   0.403   4.032   1.919 -0.5694  1.3699 -0.0538
 2499SOL    HW218427   0.283   4.090   2.014  0.4644  1.3451  1.2914
 2500SOL     OW18428   4.389   9.178   2.711 -0.4004 -0.1358  0.0898
 2500SOL    HW118429   4.295   9.150   2.730  0.0406 -1.6347  0.0823
 2500SOL    HW218430   4.451   9.133   2.775  0.3955  0.2825 -0.3767
 2501SOL     OW18431   9.757   2.868   3.299 -0.6096 -0.7569  0.6616
 2501SOL    HW118432   9.758   2.914   3.210 -0.1618  0.0966  1.1008
 2501SOL    HW218433   9.796   2.777   3.290  1.9534  0.3188  0.5135
 2502SOL     OW18434   9.653   3.529   0.044  0.0386  0.0652  0.6851
 2502SOL    HW118435   9.661   3.574   0.133 -0.7893  0.1934  0.7026
 2502SOL    HW218436   9.743   3.518   0.003  0.2581  1.8376  0.6516
 2503SOL     OW18437   0.655   5.542   3.203 -0.0031 -0.2067 -0.1080
 2503SOL    HW118438   0.712   5.518   3.125  2.2512  0.1767  1.3591
 2503SOL    HW218439   0.643   5.462   3.262 -0.2232 -0.0645  0.0453
 2504SOL     OW18440   0.143   2.074   1.960  0.2471 -0.2358  0.0177
 2504SOL    HW118441   0.127   2.167   1.992 -1.0903  0.0878 -1.5643
 2504SOL    HW218442   0.242   2.060   1.948  0.4541  0.9822  0.2471
 2505SOL     OW18443   0.297   8.288   1.053  0.0236 -0.5139  0.2479
 2505SOL    HW118444   0.241   8.205   1.050 -2.1824  0.9414 -0.0540
 2505SOL    HW218445   0.237   8.368   1.051  2.1695  1.0959 -0.7161
 2506SOL     OW18446   5.446   9.844   2.978 -0.0833  0.3152  0.4445
 2506SOL    HW118447   5.433   9.919   3.043 -1.4582  1.9616 -1.6383
 2506SOL    HW218448   5.513   9.871   2.908  1.2905 -1.3810  1.0895
 2507SOL     OW18449   1.225   1.463   2.051 -0.0500  0.1138  0.4030
 2507SOL    HW118450   1.162   1.437   2.124 -0.8205  1.4546  0.2184
 2507SOL    HW218451   1.311   1.495   2.091 -0.1052 -0.0916  0.6895
 2508SOL     OW18452   1.082   5.845   3.447  0.1768  0.4439  0.0097
 2508SOL    HW118453   1.004   5.824   3.388  1.0579  0.5050 -1.1954
 2508SOL    HW218454   1.061   5.924   3.504 -0.4812  0.7113 -0.6052
 2509SOL     OW18455   9.072   7.462   5.351  0.1910 -0.2210 -0.2740
 2509SOL    HW118456   9.015   7.502   5.279  1.2781  0.5173 -0.7271
 2509SOL    HW218457   9.040   7.494   5.440  0.8382  1.4134 -0.6097
 2510SOL     OW18458   6.109   1.485   3.874  0.9477  0.3639 -0.5643
 2510SOL    HW118459   6.071   1.393   3.884  2.0002  0.0903  1.1509
 2510SOL    HW218460   6.152   1.494   3.784  3.0473 -1.6636  0.1924
 2511SOL     OW18461   4.646   6.008   1.786 -0.5071 -0.7288 -0.0189
 2511SOL    HW118462   4.593   6.092   1.773  0.2753  0.1932  2.4315
 2511SOL    HW218463   4.642   5.953   1.703 -0.4496  2.0696 -1.9478
 2512SOL     OW18464   8.740   5.712   0.136  0.3180  0.5329 -0.1519
 2512SOL    HW118465   8.813   5.695   0.069  0.3850  0.2027  0.0019
 2512SOL    HW218466   8.704   5.804   0.123  1.1267  0.8988  0.1119
 2513SOL     OW18467   2.371   4.171   4.135 -0.3367 -0.2912  0.6412
 2513SOL    HW118468   2.347   4.265   4.155  1.0918  0.0304  0.9206
 2513SOL    HW218469   2.389   4.161   4.037 -2.9215 -0.8565  0.1823
 2514SOL     OW18470   7.703   8.496   2.853  0.1609 -0.1399  0.5207
 2514SOL    HW118471   7.770   8.504   2.779  0.0193 -2.7541  0.0590
 2514SOL    HW218472   7.654   8.410   2.844 -1.4061  0.5146  2.4190
 2515SOL     OW18473   5.551   9.814   4.710  0.4129  0.4614 -0.4554
 2515SOL    HW118474   5.569   9.766   4.624  0.3862  0.2117 -0.3247
 2515SOL    HW218475   5.490   9.891   4.694  0.0735  0.1671 -0.5947
 2516SOL     OW18476   8.377   7.592   2.919  0.0938 -0.3435 -0.0522
 2516SOL    HW118477   8.311   7.634   2.981  0.1956  0.3075 -0.3820
 2516SOL    HW218478   8.432   7.663   2.875  0.8506 -0.8704  0.0348
 2517SOL     OW18479   1.743   3.050   2.143 -0.0073 -0.3611 -0.2720
 2517SOL    HW118480   1.827   3.084   2.187 -0.9341  1.3409  0.2361
 2517SOL    HW218481   1.708   3.120   2.081  0.0282 -1.8524 -2.0231
 2518SOL     OW18482   1.385   7.856   3.586 -0.3361  0.6482 -0.0220
 2518SOL    HW118483   1.329   7.785   3.628  2.3445 -1.4017  0.2419
 2518SOL    HW218484   1.421   7.916   3.657  0.6582 -0.1930  0.2029
 2519SOL     OW18485   5.012   9.671   3.306 -0.1245  0.1091  0.6773
 2519SOL    HW118486   4.928   9.618   3.288  1.1427 -1.7947  0.2448
 2519SOL    HW218487   5.086   9.609   3.330  1.7014  1.6100 -0.9188
 2520SOL     OW18488   9.398   2.845   1.900  0.0218  0.0051  0.1393
 2520SOL    HW118489   9.462   2.875   1.971  0.5104 -0.8186  0.0543
 2520SOL    HW218490   9.427   2.756   1.865 -0.0822  0.5168 -1.2588
 2521SOL     OW18491   8.358   7.426   1.791  0.1420  0.0025 -0.6028
 2521SOL    HW118492   8.456   7.417   1.807  0.1115  0.7166 -0.0052
 2521SOL    HW218493   8.334   7.381   1.705  0.6335 -2.0718  0.3115
 2522SOL     OW18494   4.447   9.656   2.491 -0.2468 -0.0365 -0.5108
 2522SOL    HW118495   4.543   9.628   2.483 -0.7734 -1.3374 -2.9931
 2522SOL    HW218496   4.401   9.598   2.558  0.3401 -0.4330 -0.4394
 2523SOL     OW18497   3.164   9.679   2.095  0.1114  0.3619 -0.1781
 2523SOL    HW118498   3.110   9.610   2.142 -0.5157  0.3372 -0.9225
 2523SOL    HW218499   3.116   9.767   2.099  0.3016  0.4726 -0.3308
 2524SOL     OW18500   1.094   3.755   3.509  0.1521 -0.2138  0.0425
 2524SOL    HW118501   1.035   3.834   3.524  1.8011  0.9759  0.4141
 2524SOL    HW218502   1.042   3.682   3.465 -0.8035  1.9386 -2.5207
 2525SOL     OW18503   4.354   6.169   2.329  0.4007 -0.1326  0.6873
 2525SOL    HW118504   4.401   6.138   2.246 -0.7689 -0.2124  0.0468
 2525SOL    HW218505   4.418   6.166   2.406  0.7636 -2.7039  0.3478
 2526SOL     OW18506   8.234   8.323   3.260  0.0087 -0.2325 -0.4196
 2526SOL    HW118507   8.327   8.346   3.289  0.5662 -0.7592 -1.7472
 2526SOL    HW218508   8.198   8.251   3.320  0.3428  0.1794  0.2814
 2527SOL     OW18509   9.446   8.672   4.425  0.0945  0.1884 -0.5541
 2527SOL    HW118510   9.472   8.614   4.347  2.6996  0.6817 -0.0844
 2527SOL    HW218511   9.385   8.744   4.393 -0.1352 -0.5480 -1.8473
 2528SOL     OW18512   2.490   4.218   5.060  0.2290  0.2617 -0.3936
 2528SOL    HW118513   2.413   4.167   5.098  1.5951  0.0054  2.1060
 2528SOL    HW218514   2.486   4.313   5.092  3.0715 -0.6812  3.0121
 2529SOL     OW18515   1.557   2.157   4.437 -0.3476  0.7136  0.0558
 2529SOL    HW118516   1.560   2.182   4.340  0.6335 -1.1955 -0.4277
 2529SOL    HW218517   1.623   2.212   4.488  0.2866  0.5993 -0.6404
 2530SOL     OW18518   8.903   8.531   3.805 -0.0150 -0.5152  0.7371
 2530SOL    HW118519   8.841   8.600   3.842  0.7286 -1.1328  3.2641
 2530SOL    HW218520   8.851   8.450   3.779 -0.6392  0.1898 -0.2259
 2531SOL     OW18521   9.938   5.313   3.334  0.6408 -0.1200  0.0809
 2531SOL    HW118522   9.877   5.255   3.280  0.4512 -0.2628  0.4470
 2531SOL    HW218523   9.983   5.258   3.404  0.0285  0.2752  0.8043
 2532SOL     OW18524   1.843   8.269   3.681  0.2762  0.2522 -0.0867
 2532SOL    HW118525   1.803   8.178   3.692  2.3982 -0.9807 -2.1607
 2532SOL    HW218526   1.793   8.319   3.611  0.5588 -0.2133 -0.6261
 2533SOL     OW18527   5.228   1.779   1.882 -0.1306  0.6317 -0.3629
 2533SOL    HW118528   5.313   1.741   1.919 -1.1277 -0.3438  0.9761
 2533SOL    HW218529   5.194   1.851   1.943 -0.7193  0.4088 -0.4215
 2534SOL     OW18530   8.043   7.167   3.018 -0.2215 -0.0651 -0.2425
 2534SOL    HW118531   8.138   7.141   3.038 -0.0322  1.3187  0.6873
 2534SOL    HW218532   7.982   7.106   3.068  0.2372  1.7647  2.6851
 2535SOL     OW18533   1.455   6.717   6.269 -0.8538 -0.3570  0.2002
 2535SOL    HW118534   1.355   6.708   6.267 -0.9141  0.4710 -0.6324
 2535SOL    HW218535   1.484   6.781   6.198  0.2728 -0.5833  0.4528
 2536SOL     OW18536   4.010   3.520   0.468 -0.2264  0.6781  0.5210
 2536SOL    HW118537   4.012   3.429   0.510 -0.4638  0.6269  0.4246
 2536SOL    HW218538   3.922   3.533   0.422  0.3245  0.4202 -0.6377
 2537SOL     OW18539   9.613   3.785   6.371 -0.0137  0.6911 -0.0897
 2537SOL    HW118540   9.515   3.770   6.387 -0.1062  0.3211 -0.9137
 2537SOL    HW218541   9.633   3.883   6.372  0.0753  0.6727  2.6352
 2538SOL     OW18542   1.927   8.462   1.471  0.3129  0.2024 -0.4550
 2538SOL    HW118543   1.858   8.491   1.538  0.5171 -1.2213  0.3828
 2538SOL    HW218544   1.996   8.534   1.463  1.0491 -0.1758  1.9439
 2539SOL     OW18545   1.448   7.850   1.114  0.1353 -0.2762  0.2126
 2539SOL    HW118546   1.496   7.843   1.026  1.3443  1.3167  0.7304
 2539SOL    HW218547   1.512   7.877   1.185 -0.6133 -2.6264  1.8416
 2540SOL     OW18548   4.627   7.492   4.838 -0.0822 -0.1283  0.2752
 2540SOL    HW118549   4.531   7.462   4.841  0.2373 -1.4004 -1.3047
 2540SOL    HW218550   4.677   7.436   4.771  1.5191  1.2255  0.3117
 2541SOL     OW18551   9.007   5.421   0.448 -0.3473  0.2929 -0.2390
 2541SOL    HW118552   8.988   5.444   0.544  0.4356 -0.1799  0.0383
 2541SOL    HW218553   9.070   5.344   0.445 -1.3317 -0.4804 -1.1500
 2542SOL     OW18554   9.599   3.170   1.472 -0.0147  0.2442  0.0161
 2542SOL    HW118555   9.527   3.236   1.495 -0.3209  0.2085 -0.7994
 2542SOL    HW218556   9.668   3.169   1.544 -1.3936 -0.5355  1.3474
 2543SOL     OW18557   8.538   4.769   0.460 -0.3037 -0.2908 -0.0719
 2543SOL    HW118558   8.582   4.781   0.549 -0.1419  0.7346 -0.2844
 2543SOL    HW218559   8.438   4.772   0.472 -0.2787  0.1398  0.0354
 2544SOL     OW18560   9.296   3.011   4.989  0.1865  0.2201 -0.4836
 2544SOL    HW118561   9.350   3.092   4.964  0.2919 -0.0832 -1.2355
 2544SOL    HW218562   9.356   2.932   4.998 -0.1300 -0.1399 -1.4184
 2545SOL     OW18563   1.480   6.220   6.551 -0.1614 -0.4797 -0.1702
 2545SOL    HW118564   1.482   6.132   6.598 -0.6171  0.4171  1.5662
 2545SOL    HW218565   1.386   6.253   6.545  0.0620  0.1369 -0.3367
 2546SOL     OW18566   3.425   0.376   3.561 -0.5601 -0.1751  0.0438
 2546SOL    HW118567   3.463   0.284   3.547 -1.7635 -0.7558  0.4335
 2546SOL    HW218568   3.381   0.407   3.477 -2.5868 -1.1537  0.6983
 2547SOL     OW18569   3.231   1.548   1.232  0.2748 -0.0291  0.8544
 2547SOL    HW118570   3.312   1.579   1.183 -1.1282 -0.0608 -1.5570
 2547SOL    HW218571   3.223   1.448   1.224  0.4610 -0.1310  1.8393
 2548SOL     OW18572   2.230   9.252   3.378 -0.0444  0.0121  0.3529
 2548SOL    HW118573   2.314   9.197   3.383  1.3932  2.1776  0.9655
 2548SOL    HW218574   2.224   9.293   3.287  0.2466  0.8835  0.7232
 2549SOL     OW18575   1.562   6.418   3.194 -0.1285  0.0397 -0.6766
 2549SOL    HW118576   1.631   6.347   3.183  1.3777  1.7974 -3.0325
 2549SOL    HW218577   1.512   6.430   3.108 -0.0817  2.0493 -0.4607
 2550SOL     OW18578   1.517   3.292   1.590 -0.3519 -0.2543 -0.1341
 2550SOL    HW118579   1.460   3.218   1.627 -0.7143 -0.6221 -1.4149
 2550SOL    HW218580   1.504   3.298   1.491  1.4004  0.0318 -0.3570
 2551SOL     OW18581   3.418   7.221   2.150 -0.1619 -0.1138 -0.2890
 2551SOL    HW118582   3.432   7.178   2.239 -0.9356  2.0634  0.9308
 2551SOL    HW218583   3.329   7.193   2.114  0.3685 -1.3942 -0.6229
 2552SOL     OW18584   9.690   9.763   3.419  0.3589  0.2442 -0.5092
 2552SOL    HW118585   9.629   9.684   3.406 -0.3257  0.6539  0.1961
 2552SOL    HW218586   9.635   9.847   3.425  0.9604  0.5737  0.4716
 2553SOL     OW18587   2.321   8.961   1.811  0.5353  0.0795  0.2092
 2553SOL    HW118588   2.341   8.889   1.876  0.2982  0.1055  0.3136
 2553SOL    HW218589   2.297   8.921   1.722  0.7477  0.0399  0.1700
 2554SOL     OW18590   2.561   4.048   0.998 -0.4833  0.2849  0.0790
 2554SOL    HW118591   2.479   4.073   0.945 -0.8515 -0.5831  0.2258
 2554SOL    HW218592   2.536   4.039   1.095 -0.3918 -0.7497  0.0135
 2555SOL     OW18593   9.269   7.927   4.581  0.2585  0.8270 -0.2699
 2555SOL    HW118594   9.283   7.839   4.537  0.3609  0.7690 -0.1192
 2555SOL    HW218595   9.352   7.982   4.573  0.6029  0.4532  0.6921
 2556SOL     OW18596   8.487   6.104   1.539 -0.2593 -0.2303  0.4634
 2556SOL    HW118597   8.470   6.023   1.482 -0.5872  0.1934 -0.0524
 2556SOL    HW218598   8.473   6.186   1.484  0.6812  0.1718  0.8192
 2557SOL     OW18599   7.755   5.782   1.778  0.0346  0.1817 -0.3322
 2557SOL    HW118600   7.765   5.694   1.730  0.5227  0.0593 -0.0078
 2557SOL    HW218601   7.698   5.843   1.723  2.1876  0.7283 -2.0108
 2558SOL     OW18602   3.784   5.721   3.998 -0.2171 -0.1823 -0.0067
 2558SOL    HW118603   3.721   5.645   3.984 -1.8895  1.0382  0.6930
 2558SOL    HW218604   3.838   5.705   4.081  0.8700 -1.5338 -0.9578
 2559SOL     OW18605   2.456   1.586   1.637  0.2203  0.2882  0.1965
 2559SOL    HW118606   2.447   1.501   1.687 -0.5626  0.3053  0.0853
 2559SOL    HW218607   2.551   1.618   1.643  0.7752 -1.1562 -0.6893
 2560SOL     OW18608   5.799   1.143   2.126 -0.5483 -0.5561 -0.7632
 2560SOL    HW118609   5.771   1.238   2.114 -1.6598 -0.9283 -1.2299
 2560SOL    HW218610   5.820   1.126   2.222  0.5306  0.3784 -0.8161
 2561SOL     OW18611   9.476   4.596   2.954  0.1144 -0.4110  0.1822
 2561SOL    HW118612   9.394   4.594   2.896  0.5722  1.3374 -0.5612
 2561SOL    HW218613   9.546   4.538   2.913  0.1644  0.2013 -0.6298
 2562SOL     OW18614   0.161   5.573   2.349  0.1428  0.3033 -0.1791
 2562SOL    HW118615   0.105   5.554   2.430 -1.7811 -0.2870 -1.6043
 2562SOL    HW218616   0.254   5.542   2.365 -0.3597 -0.3687  1.5777
 2563SOL     OW18617   7.137   3.413   0.954 -0.1855 -0.5371 -0.5272
 2563SOL    HW118618   7.144   3.377   0.860 -0.6279 -0.7104 -0.4952
 2563SOL    HW218619   7.176   3.505   0.957  3.2585 -1.9453 -0.0808
 2564SOL     OW18620   6.156   0.975   3.551 -0.2846 -0.0761 -0.4492
 2564SOL    HW118621   6.146   0.876   3.553  0.5869 -0.1363  1.5243
 2564SOL    HW218622   6.185   1.008   3.640 -3.1654  2.2619 -0.2897
 2565SOL     OW18623   8.432   1.050   0.200  0.0585  0.2845  0.2491
 2565SOL    HW118624   8.380   1.135   0.212 -0.1102  0.8198 -3.4464
 2565SOL    HW218625   8.528   1.072   0.186  0.2431 -0.2316  0.7108
 2566SOL     OW18626   3.874   7.577   3.819  0.3450 -0.1647 -0.4826
 2566SOL    HW118627   3.935   7.653   3.799  1.4385 -1.3211 -1.6459
 2566SOL    HW218628   3.786   7.612   3.850  0.7970  1.5758 -1.1237
 2567SOL     OW18629   3.815   4.122   4.588 -0.9578 -0.4309  0.7410
 2567SOL    HW118630   3.906   4.113   4.549 -2.0400 -1.6261 -1.6086
 2567SOL    HW218631   3.804   4.213   4.628  1.0368 -0.0617  0.4901
 2568SOL     OW18632   7.434   1.279   3.777 -0.2317 -0.0988 -0.2153
 2568SOL    HW118633   7.403   1.358   3.830 -0.2993 -0.0499 -0.3278
 2568SOL    HW218634   7.379   1.271   3.694  0.5762  0.4525 -0.8133
 2569SOL     OW18635   3.238   3.407   1.176 -0.0377 -0.1707 -0.4341
 2569SOL    HW118636   3.317   3.363   1.218  0.4487  1.1014 -0.0029
 2569SOL    HW218637   3.269   3.481   1.116 -0.8686 -0.1789 -0.8859
 2570SOL     OW18638   1.854   7.170   2.245  0.0838 -0.1202 -0.2140
 2570SOL    HW118639   1.876   7.082   2.286  4.1817  0.7359 -0.2714
 2570SOL    HW218640   1.824   7.157   2.150  1.9045 -1.4244 -0.6340
 2571SOL     OW18641   0.470   5.445   6.657  0.2901 -0.1811  0.1778
 2571SOL    HW118642   0.567   5.430   6.639  0.3481 -1.3860  1.4421
 2571SOL    HW218643   0.458   5.481   6.750 -0.5107 -0.6142  0.2521
 2572SOL     OW18644   0.926   5.597   4.708 -0.2819 -0.4219  0.1326
 2572SOL    HW118645   0.866   5.522   4.679 -0.5320 -0.2172  0.1181
 2572SOL    HW218646   0.937   5.662   4.633 -2.1665  0.9083  0.9412
 2573SOL     OW18647   8.896   7.947   4.460  0.2467  0.3516 -0.4264
 2573SOL    HW118648   8.845   7.903   4.533 -1.1673  0.2877 -1.4298
 2573SOL    HW218649   8.894   8.046   4.473  0.8974  0.2868  0.1925
 2574SOL     OW18650   2.557   1.631   3.204  0.6436 -0.3617  0.4051
 2574SOL    HW118651   2.497   1.584   3.140 -0.1075  0.7469  0.2772
 2574SOL    HW218652   2.519   1.624   3.296  0.4197  0.1539  0.3560
 2575SOL     OW18653   8.406   2.727   2.062  0.4024  0.6177  0.5954
 2575SOL    HW118654   8.446   2.816   2.083 -0.7244  1.1897  0.3525
 2575SOL    HW218655   8.306   2.734   2.060  0.2969 -0.6581  0.6079
 2576SOL     OW18656   4.751   2.955   0.109 -0.4686 -0.1113 -0.1050
 2576SOL    HW118657   4.727   3.019   0.182  0.8919  0.0645  0.1923
 2576SOL    HW218658   4.690   2.875   0.113 -1.7279  0.8454 -0.0605
 2577SOL     OW18659   8.312   9.974   2.528  0.2814  0.1392 -0.5183
 2577SOL    HW118660   8.293   9.891   2.475 -2.3852 -0.6142  1.5382
 2577SOL    HW218661   8.262  10.050   2.488  0.2467  0.0948 -0.5610
 2578SOL     OW18662   9.954   6.799   5.872 -0.7173 -0.0614 -0.0146
 2578SOL    HW118663   9.981   6.886   5.913  0.5358  0.1934 -1.3423
 2578SOL    HW218664  10.021   6.729   5.894  0.4018  0.2636 -2.2504
 2579SOL     OW18665   0.667   9.293   4.463 -0.2590  0.0365  0.3190
 2579SOL    HW118666   0.738   9.223   4.457 -1.6821 -1.2567 -1.7086
 2579SOL    HW218667   0.602   9.268   4.536 -0.0286 -0.0664  0.4900
 2580SOL     OW18668   5.755   2.015   3.603  0.3732  0.2854  0.4173
 2580SOL    HW118669   5.812   2.032   3.522  0.6315  0.0765  0.5553
 2580SOL    HW218670   5.676   1.961   3.577  1.5542 -1.6105  0.6864
 2581SOL     OW18671   4.033   6.565   1.714  1.0215 -0.0240 -0.1026
 2581SOL    HW118672   4.119   6.614   1.699  1.3951 -0.5554  0.2953
 2581SOL    HW218673   4.036   6.476   1.669  0.2709  0.3864 -0.9705
 2582SOL     OW18674   1.115   3.610   6.262 -0.3625  0.3581  0.3137
 2582SOL    HW118675   1.056   3.668   6.318 -0.1804 -0.2920  1.2118
 2582SOL    HW218676   1.179   3.562   6.322 -0.9405 -1.2532 -0.3349
 2583SOL     OW18677   3.383   8.643   3.153 -0.0177  0.1399 -0.4379
 2583SOL    HW118678   3.309   8.667   3.091  0.2183  1.3285 -0.2839
 2583SOL    HW218679   3.465   8.696   3.129  0.6942 -0.9482 -0.4276
 2584SOL     OW18680   2.003   0.407   2.440 -0.1844 -0.1212 -0.5688
 2584SOL    HW118681   2.084   0.445   2.485 -0.2650 -0.1533 -0.3980
 2584SOL    HW218682   1.998   0.309   2.458  0.2280 -0.2806 -1.3175
 2585SOL     OW18683   1.116   2.287   1.136  0.2334 -0.2537 -0.3257
 2585SOL    HW118684   1.110   2.283   1.037 -0.3464  2.2578 -0.4142
 2585SOL    HW218685   1.203   2.328   1.163  0.7844 -1.7543  0.2440
 2586SOL     OW18686   7.523   1.655   4.504 -0.4398 -0.3828 -0.0967
 2586SOL    HW118687   7.453   1.725   4.517  1.7645  1.7039  0.7725
 2586SOL    HW218688   7.544   1.613   4.592  0.1638 -0.2748 -0.1920
 2587SOL     OW18689   2.942   3.122   3.699  0.1716 -0.0778 -0.0886
 2587SOL    HW118690   2.977   3.150   3.789 -2.0019 -0.4068  0.9014
 2587SOL    HW218691   2.935   3.202   3.640 -0.4270  0.5100  0.7638
 2588SOL     OW18692   0.976   6.915   2.646  0.5759  0.3473 -0.7351
 2588SOL    HW118693   1.075   6.903   2.641  0.3911 -1.3431 -0.4028
 2588SOL    HW218694   0.951   6.953   2.735  0.7678 -0.8399 -0.1716
 2589SOL     OW18695   7.364   0.616   0.611 -0.5319  0.0457  0.1700
 2589SOL    HW118696   7.375   0.621   0.511  0.3755 -2.3169  0.1391
 2589SOL    HW218697   7.272   0.648   0.635 -1.1319 -0.3489 -1.5187
 2590SOL     OW18698   2.624   1.712   1.093 -0.2309  0.5120  0.3236
 2590SOL    HW118699   2.593   1.635   1.149 -2.1893  0.1802 -1.1576
 2590SOL    HW218700   2.545   1.767   1.064  0.3498 -0.8355 -4.2781
 2591SOL     OW18701   8.410   3.097   2.633  0.4812  0.1136  0.1000
 2591SOL    HW118702   8.472   3.093   2.711  0.7726 -1.6478 -0.2111
 2591SOL    HW218703   8.456   3.141   2.556  1.7544 -2.2537 -0.5012
 2592SOL     OW18704   1.628   2.973   1.390 -0.2684 -0.1559 -0.2338
 2592SOL    HW118705   1.555   2.949   1.455 -0.0151 -1.6407 -0.4702
 2592SOL    HW218706   1.717   2.952   1.431  0.0335  1.5409  0.0090
 2593SOL     OW18707   1.357   5.533   3.800  0.4203 -0.2280 -0.1765
 2593SOL    HW118708   1.390   5.449   3.757 -0.7265 -1.1344  0.6729
 2593SOL    HW218709   1.323   5.596   3.730  0.6963 -0.7276 -0.7594
 2594SOL     OW18710   2.589   2.512   3.047  0.0660  0.2894 -0.3086
 2594SOL    HW118711   2.599   2.416   3.021 -0.9108 -0.2524  1.2708
 2594SOL    HW218712   2.533   2.559   2.978  1.1778 -0.0753 -1.4831
 2595SOL     OW18713   9.653   2.394   4.159  0.2004 -0.2752  0.4302
 2595SOL    HW118714   9.679   2.473   4.104 -1.4449 -0.0291 -0.0160
 2595SOL    HW218715   9.580   2.343   4.113 -0.4681 -0.6564  1.8802
 2596SOL     OW18716   7.990   0.214   4.796 -0.0353 -0.1036 -0.1507
 2596SOL    HW118717   7.962   0.282   4.864  0.5327 -1.1917  1.2029
 2596SOL    HW218718   7.909   0.185   4.744 -0.0694  2.5006 -1.6075
 2597SOL     OW18719   2.686   0.234   3.652  0.0711  0.1482  0.2765
 2597SOL    HW118720   2.781   0.207   3.665  0.0925 -0.1457 -0.4306
 2597SOL    HW218721   2.682   0.321   3.603 -0.0238  0.1245  0.2415
 2598SOL     OW18722   1.246   0.576   2.640  0.6025 -0.2752 -0.0321
 2598SOL    HW118723   1.266   0.640   2.714 -0.0579  0.3162 -0.3524
 2598SOL    HW218724   1.161   0.604   2.594  1.9035  0.3918 -2.1250
 2599SOL     OW18725   3.838   2.495   1.944 -0.6154 -0.4486  0.4419
 2599SOL    HW118726   3.878   2.502   2.036  0.7622  0.1941 -0.1968
 2599SOL    HW218727   3.847   2.401   1.911 -0.1216 -0.4318  0.5265
 2600SOL     OW18728   1.151   0.356   3.321  0.1676  0.2435  0.1752
 2600SOL    HW118729   1.223   0.423   3.335 -2.1338  2.5289  1.4585
 2600SOL    HW218730   1.071   0.400   3.281 -1.4400 -1.6957  1.1552
 2601SOL     OW18731   8.766   3.586   3.638 -0.2216  0.5108 -0.2540
 2601SOL    HW118732   8.840   3.579   3.571  2.3758 -2.3609  2.7058
 2601SOL    HW218733   8.679   3.562   3.595  1.9608 -5.8716 -1.7278
 2602SOL     OW18734   9.731   7.723   0.736  0.1816 -0.0357 -0.5300
 2602SOL    HW118735   9.746   7.652   0.668 -1.6943 -1.6090  0.6238
 2602SOL    HW218736   9.638   7.758   0.727  0.1845  0.3204  0.6731
 2603SOL     OW18737   4.410   3.367   5.159  0.3929 -0.2536  0.6443
 2603SOL    HW118738   4.372   3.405   5.244 -2.7814  0.2204 -0.8979
 2603SOL    HW218739   4.353   3.291   5.128  1.2376 -0.1284 -1.3014
 2604SOL     OW18740   0.371   5.601   4.161  0.7528 -0.1150  0.1646
 2604SOL    HW118741   0.355   5.503   4.161  0.5666 -0.0859  0.7927
 2604SOL    HW218742   0.469   5.620   4.163  0.7705 -0.2911  3.2860
 2605SOL     OW18743   9.396   3.664   5.047 -0.0066 -0.3519 -0.1962
 2605SOL    HW118744   9.325   3.708   4.992 -1.4120 -1.4477  0.7219
 2605SOL    HW218745   9.460   3.615   4.987 -0.5069 -0.0793 -0.9571
 2606SOL     OW18746   9.702   3.091   4.257  0.4305 -0.3660  0.6768
 2606SOL    HW118747   9.628   3.044   4.210  0.4373  0.0690  0.2194
 2606SOL    HW218748   9.790   3.063   4.218  0.3370  1.5794 -1.0556
 2607SOL     OW18749   4.190   7.338   1.544  0.2277  0.1146  0.1850
 2607SOL    HW118750   4.202   7.369   1.449 -1.0416 -0.7470 -0.2649
 2607SOL    HW218751   4.211   7.414   1.606  0.4737  0.8670 -0.7971
 2608SOL     OW18752   1.257   0.102   4.008 -0.5095 -0.6919  0.1820
 2608SOL    HW118753   1.187   0.032   3.999 -1.7593  0.3802  1.3707
 2608SOL    HW218754   1.266   0.151   3.921  0.0039 -1.9644 -0.4937
 2609SOL     OW18755   0.209   1.733   2.036 -0.5819 -0.2822 -0.4658
 2609SOL    HW118756   0.239   1.827   2.053 -1.4944 -0.4813  2.5761
 2609SOL    HW218757   0.109   1.729   2.037 -0.5591 -1.2267 -1.0889
 2610SOL     OW18758   0.915   9.012   0.759 -0.1640 -0.2623 -0.1148
 2610SOL    HW118759   1.012   9.034   0.750 -0.2706  0.2503 -0.0022
 2610SOL    HW218760   0.874   9.004   0.668  0.0789 -0.9102 -0.1702
 2611SOL     OW18761   7.387   2.156   4.670  0.9217  0.1479  0.0795
 2611SOL    HW118762   7.318   2.085   4.686  1.5843 -0.8832 -1.4946
 2611SOL    HW218763   7.440   2.171   4.753  1.8828 -2.4215 -0.0374
 2612SOL     OW18764   9.472   8.118   3.218  0.2542  0.2291  0.2782
 2612SOL    HW118765   9.517   8.030   3.231  0.7022  0.3694 -0.3173
 2612SOL    HW218766   9.534   8.191   3.248 -0.5537  0.2937  1.8954
 2613SOL     OW18767   7.122   0.093   4.324  0.0916 -0.2448  0.4816
 2613SOL    HW118768   7.100   0.147   4.243  0.3304  0.0839  0.6347
 2613SOL    HW218769   7.153   0.002   4.296 -0.2431 -0.2797  0.2200
 2614SOL     OW18770   0.029   7.962   5.652 -0.3383 -0.2102  0.3407
 2614SOL    HW118771  -0.018   8.049   5.637  0.8841  0.9316  2.7437
 2614SOL    HW218772  -0.033   7.898   5.698  0.2850  1.1969  3.2609
 2615SOL     OW18773   9.267   7.050   1.395 -0.0318 -0.0998  0.4453
 2615SOL    HW118774   9.266   7.112   1.474 -2.0439  1.0103 -0.4325
 2615SOL    HW218775   9.175   7.041   1.358  0.7369 -1.3340 -1.2436
 2616SOL     OW18776   7.579   8.064   5.383 -0.0685 -0.3060 -0.8050
 2616SOL    HW118777   7.678   8.055   5.389 -0.1484 -1.0643 -0.6030
 2616SOL    HW218778   7.554   8.161   5.393  0.3764 -0.5174  3.3514
 2617SOL     OW18779   1.675   3.157   5.763  0.0507  0.1638 -0.3213
 2617SOL    HW118780   1.703   3.190   5.673 -1.7856  0.9270 -0.6303
 2617SOL    HW218781   1.735   3.083   5.791  0.9323  0.2302 -1.9782
 2618SOL     OW18782   0.973   7.422   6.616  0.1196 -0.7299  0.2653
 2618SOL    HW118783   1.048   7.428   6.550 -0.1899 -1.5278 -0.1712
 2618SOL    HW218784   1.006   7.446   6.707  0.0192  2.7565 -0.5407
 2619SOL     OW18785   2.496   6.635   4.931  0.0330 -0.2903  0.2460
 2619SOL    HW118786   2.568   6.674   4.874 -1.5257  2.0092 -0.2261
 2619SOL    HW218787   2.483   6.692   5.013 -1.9148 -0.0708 -0.1829
 2620SOL     OW18788   1.852   7.846   4.051  0.0136  0.8896 -0.1394
 2620SOL    HW118789   1.790   7.923   4.064 -0.9804  0.2787 -1.2546
 2620SOL    HW218790   1.880   7.841   3.955 -0.7183 -0.7367 -0.2777
 2621SOL     OW18791   1.504   0.053   2.380  0.0447 -0.1785  0.1120
 2621SOL    HW118792   1.447   0.116   2.326  1.6808  1.0926 -0.1667
 2621SOL    HW218793   1.515   0.089   2.472 -0.3677 -0.8950  0.4430
 2622SOL     OW18794   2.921   0.925   1.783  0.3845  0.1262 -0.0314
 2622SOL    HW118795   2.870   0.842   1.760 -0.6615  0.6180  0.4414
 2622SOL    HW218796   2.863   1.005   1.767  1.0243  0.7051  0.4829
 2623SOL     OW18797   1.887   8.199   0.761  0.4845  0.0696 -0.2709
 2623SOL    HW118798   1.965   8.150   0.724  0.3144  0.4152 -1.0887
 2623SOL    HW218799   1.804   8.174   0.711 -0.0716 -0.9001  1.1160
 2624SOL     OW18800   9.549   3.265   1.841  0.6976 -0.0688  0.3261
 2624SOL    HW118801   9.489   3.188   1.820  0.6746 -0.0812  0.4374
 2624SOL    HW218802   9.644   3.236   1.833  0.6973 -0.4726  1.6771
 2625SOL     OW18803   1.958   1.690   2.546  0.2050  0.2555  0.1914
 2625SOL    HW118804   1.883   1.630   2.519  0.3506  0.8822 -1.7097
 2625SOL    HW218805   2.045   1.642   2.534  0.3239  0.8249 -1.3702
 2626SOL     OW18806   3.170   9.259   1.528  0.1505 -0.1940 -0.5057
 2626SOL    HW118807   3.154   9.241   1.625  0.7472 -1.0085 -0.5566
 2626SOL    HW218808   3.172   9.358   1.512  0.1017 -0.0595  0.3128
 2627SOL     OW18809   9.880   4.526   3.743 -0.1152  0.0353 -0.0973
 2627SOL    HW118810   9.841   4.583   3.671 -1.4401  0.4152  0.9075
 2627SOL    HW218811   9.807   4.485   3.797  0.8718  0.4182  1.5611
 2628SOL     OW18812   3.674   5.401   0.769  0.8449 -0.2652 -0.3182
 2628SOL    HW118813   3.619   5.485   0.764  0.3460 -0.4391  1.8325
 2628SOL    HW218814   3.766   5.419   0.733  0.4894  0.9645 -0.6408
 2629SOL     OW18815   0.679   9.892   2.920 -0.5323  0.0390 -0.7878
 2629SOL    HW118816   0.679   9.794   2.902  1.6795 -0.1413  0.0907
 2629SOL    HW218817   0.747   9.937   2.861 -0.8023  0.9063 -0.4439
 2630SOL     OW18818   1.813   6.143   1.309  0.1201 -0.4391 -0.0004
 2630SOL    HW118819   1.901   6.097   1.311  0.7628  0.7626 -0.2766
 2630SOL    HW218820   1.748   6.090   1.255  1.3831 -0.0840 -1.8965
 2631SOL     OW18821   5.382   8.414   3.062  0.4624  0.0993 -0.3914
 2631SOL    HW118822   5.355   8.430   2.967  0.5265  0.8715 -0.2861
 2631SOL    HW218823   5.415   8.321   3.072 -0.4986 -0.3017 -0.9097
 2632SOL     OW18824   8.814   0.029   3.490  0.0864  0.3912  0.5237
 2632SOL    HW118825   8.894  -0.010   3.535  1.8617  3.4738  0.2064
 2632SOL    HW218826   8.732  -0.024   3.514  1.9583 -1.8643  2.1282
 2633SOL     OW18827   1.875   1.937   1.420  0.3269 -0.2703 -0.2106
 2633SOL    HW118828   1.952   1.948   1.358 -1.0465  1.8516 -1.5877
 2633SOL    HW218829   1.889   1.995   1.500 -0.3067  0.8834 -0.9313
 2634SOL     OW18830   1.553   5.056   0.637  0.3619 -0.1773  0.1830
 2634SOL    HW118831   1.454   5.070   0.647  0.2753  0.3998 -1.4161
 2634SOL    HW218832   1.578   4.966   0.672 -0.9000 -0.7799 -0.4359
 2635SOL     OW18833   7.336   0.264   2.844  0.1752  0.1177 -0.3782
 2635SOL    HW118834   7.370   0.358   2.845  3.5284 -1.0486  1.3081
 2635SOL    HW218835   7.273   0.251   2.921  0.3544  0.7264 -0.1270
 2636SOL     OW18836   9.215   0.304   3.083  0.2982  0.1893  0.5902
 2636SOL    HW118837   9.211   0.404   3.072  0.0791  0.5334  3.3896
 2636SOL    HW218838   9.146   0.261   3.025  0.4897  1.6418 -0.7575
 2637SOL     OW18839   3.037   3.551   2.576 -0.0292  0.1445  0.1584
 2637SOL    HW118840   3.096   3.493   2.519 -0.7837  1.2138 -1.7608
 2637SOL    HW218841   3.072   3.645   2.575 -1.4650  0.6851 -0.5962
 2638SOL     OW18842   1.664   1.126   3.682  0.6048  0.9738  0.1586
 2638SOL    HW118843   1.566   1.114   3.672  0.7804 -3.2243  2.1036
 2638SOL    HW218844   1.683   1.211   3.732 -1.9731  2.1291 -0.7771
 2639SOL     OW18845   2.409   7.365   2.857  0.3471 -0.3095 -0.1372
 2639SOL    HW118846   2.449   7.423   2.786  0.8904 -0.0810  0.3525
 2639SOL    HW218847   2.446   7.390   2.946  1.4676 -2.1556 -0.0511
 2640SOL     OW18848   9.819   1.518   2.700 -0.0045 -0.1296  0.1301
 2640SOL    HW118849   9.902   1.464   2.679  0.1345  0.0758  0.1525
 2640SOL    HW218850   9.838   1.581   2.775 -0.0369  0.2647 -0.1909
 2641SOL     OW18851   2.632   8.270   3.646  0.3087  0.2495  0.0999
 2641SOL    HW118852   2.535   8.246   3.656 -0.0783  0.5659 -2.5545
 2641SOL    HW218853   2.652   8.351   3.700 -0.8156 -0.0734  1.0157
 2642SOL     OW18854   8.233   8.409   2.147  0.0256 -0.7357 -0.0591
 2642SOL    HW118855   8.280   8.495   2.171  0.3815 -1.1074  0.6002
 2642SOL    HW218856   8.189   8.419   2.058  0.1634  0.0963 -0.0437
 2643SOL     OW18857   3.111   6.932   3.495  0.4573  0.2590  0.0103
 2643SOL    HW118858   3.146   6.860   3.555  0.1210 -0.2650 -0.4156
 2643SOL    HW218859   3.017   6.953   3.520 -0.2289 -1.0798 -1.3256
 2644SOL     OW18860   8.166   2.278   1.497  0.0499  0.0965 -0.1288
 2644SOL    HW118861   8.084   2.305   1.548  0.1994  0.3281 -0.0138
 2644SOL    HW218862   8.145   2.275   1.399  0.0474  0.6710 -0.1448
 2645SOL     OW18863   7.192   7.384   5.269 -0.5077  0.8766  0.0792
 2645SOL    HW118864   7.276   7.342   5.304 -1.1632 -0.7724 -0.2741
 2645SOL    HW218865   7.209   7.480   5.248  0.9664  0.8671  1.1361
 2646SOL     OW18866   4.292   2.440   3.958 -0.1406 -0.3491 -0.0193
 2646SOL    HW118867   4.223   2.510   3.942 -0.1932 -0.4940 -0.4216
 2646SOL    HW218868   4.252   2.350   3.945  0.2325 -0.4214 -0.6843
 2647SOL     OW18869   2.517   1.990   3.761  0.7344  0.6293 -0.3679
 2647SOL    HW118870   2.565   1.925   3.702  0.0284  2.0836 -2.5727
 2647SOL    HW218871   2.419   1.978   3.752  0.5858  2.5641 -1.4321
 2648SOL     OW18872   0.995   4.024   2.135 -0.9593  0.3352  0.4811
 2648SOL    HW118873   1.068   3.963   2.104  0.3259  0.9782  2.1648
 2648SOL    HW218874   0.921   3.971   2.174 -0.3315 -0.2068  0.9374
 2649SOL     OW18875   3.169   7.561   4.197 -0.3369  0.3521 -0.0854
 2649SOL    HW118876   3.179   7.555   4.296  1.0725  0.2768 -0.2226
 2649SOL    HW218877   3.115   7.483   4.164  0.0838 -0.1928  0.5044
 2650SOL     OW18878   1.869   3.334   0.858  0.1829  0.4401  0.4403
 2650SOL    HW118879   1.788   3.393   0.851  0.2763  0.3613 -1.5263
 2650SOL    HW218880   1.939   3.380   0.913 -0.8845  0.8304  1.5168
 2651SOL     OW18881   1.532   7.141   0.627 -0.0293  0.0942 -0.0531
 2651SOL    HW118882   1.458   7.082   0.660 -0.0105 -0.4834 -1.0164
 2651SOL    HW218883   1.544   7.127   0.529  1.1187  0.4424  0.0312
 2652SOL     OW18884   4.241   9.096   2.324 -0.0319  0.3483  0.8882
 2652SOL    HW118885   4.271   9.012   2.368  1.7852 -0.2766 -1.4679
 2652SOL    HW218886   4.299   9.172   2.353  2.1605 -0.3515 -1.5576
 2653SOL     OW18887   5.925   1.548   4.747 -0.2198 -0.8102  0.4007
 2653SOL    HW118888   5.957   1.493   4.669  0.7002 -1.8989  1.5222
 2653SOL    HW218889   5.947   1.644   4.730 -0.3812 -0.9853 -0.8621
 2654SOL     OW18890   0.002   8.141   1.955 -0.2384  0.6877 -0.5101
 2654SOL    HW118891   0.046   8.230   1.943 -1.2994  1.2659 -0.2741
 2654SOL    HW218892  -0.094   8.148   1.928 -0.6166 -0.0836  0.5657
 2655SOL     OW18893   4.745   6.046   1.016 -0.1816 -0.2635  0.0497
 2655SOL    HW118894   4.689   6.045   0.933 -0.8619 -0.7797  0.5180
 2655SOL    HW218895   4.793   5.959   1.025  1.1966  0.3920 -0.6774
 2656SOL     OW18896   6.705   0.118   4.926  0.3459  0.3394  0.0734
 2656SOL    HW118897   6.691   0.157   4.835 -0.2874 -1.3365 -0.5650
 2656SOL    HW218898   6.738   0.024   4.917 -1.8291 -0.6076  1.5306
 2657SOL     OW18899   4.041   6.145   2.617 -0.3464  0.5968  0.2524
 2657SOL    HW118900   4.033   6.183   2.525 -1.4915  1.5179  0.7248
 2657SOL    HW218901   4.138   6.140   2.642 -0.0722  1.1750 -0.6498
 2658SOL     OW18902   2.759   6.547   3.077  0.4222 -0.3573 -0.0782
 2658SOL    HW118903   2.726   6.631   3.034  0.2907  0.3241  1.3482
 2658SOL    HW218904   2.773   6.477   3.006  1.0496  1.0198 -1.3380
 2659SOL     OW18905   9.039   2.584   1.822 -0.8492  0.2635  0.2046
 2659SOL    HW118906   9.005   2.575   1.916  1.6045 -0.4443  1.0698
 2659SOL    HW218907   9.052   2.493   1.783  1.1650  0.4993  0.3165
 2660SOL     OW18908   8.823   2.170   5.497 -0.3822  0.1978 -0.0909
 2660SOL    HW118909   8.902   2.181   5.557 -2.1215  1.4983  2.0588
 2660SOL    HW218910   8.854   2.157   5.402  2.3873 -0.5909  0.8807
 2661SOL     OW18911   0.694   7.474   6.618 -0.4944  0.7556  0.1082
 2661SOL    HW118912   0.667   7.567   6.593 -0.1120  0.2490 -2.3495
 2661SOL    HW218913   0.792   7.463   6.601 -0.8739 -0.5986 -1.2219
 2662SOL     OW18914   9.313   0.907   2.508  0.4481 -0.3149  0.2484
 2662SOL    HW118915   9.375   0.873   2.579  0.2979 -0.3782  0.3510
 2662SOL    HW218916   9.266   0.829   2.467  0.6128 -0.2866  0.0066
 2663SOL     OW18917   0.300   6.208   6.029 -0.9407 -0.0111  0.3679
 2663SOL    HW118918   0.249   6.251   5.955  1.2263  2.2559  0.1174
 2663SOL    HW218919   0.262   6.236   6.117 -0.4496  1.2702  0.1776
 2664SOL     OW18920   0.359   3.757   0.052 -0.5935 -0.0144 -0.1823
 2664SOL    HW118921   0.357   3.857   0.054  0.0384  0.0097 -0.5024
 2664SOL    HW218922   0.362   3.725  -0.042 -0.2551 -0.3161 -0.0724
 2665SOL     OW18923   0.274   6.268   2.321  0.0440 -0.0975 -0.1807
 2665SOL    HW118924   0.272   6.367   2.338  1.2449  0.1306 -1.2801
 2665SOL    HW218925   0.285   6.251   2.223 -2.1784 -1.3518 -0.2374
 2666SOL     OW18926   7.614   7.856   3.136  0.4303  0.0865  0.8002
 2666SOL    HW118927   7.525   7.841   3.178  0.7862  0.7216  1.7998
 2666SOL    HW218928   7.666   7.771   3.136 -0.5315 -0.5278 -0.6769
 2667SOL     OW18929   4.269   7.243   4.631  0.6298 -0.0356 -0.0990
 2667SOL    HW118930   4.219   7.157   4.640 -0.2448  0.1609 -2.6823
 2667SOL    HW218931   4.265   7.293   4.717 -1.4702 -1.1746  0.5089
 2668SOL     OW18932   7.506   2.047   0.476  0.8070  0.1529 -0.0579
 2668SOL    HW118933   7.406   2.051   0.466  0.7684 -0.9725 -0.1067
 2668SOL    HW218934   7.549   2.052   0.387  0.8568  2.1386  0.0500
 2669SOL     OW18935   0.760   6.091   2.212 -0.1357 -0.1364 -0.5894
 2669SOL    HW118936   0.791   6.011   2.263 -2.7131 -1.0357 -0.3794
 2669SOL    HW218937   0.742   6.166   2.275  2.8168  0.8618 -0.8344
 2670SOL     OW18938   8.150   8.158   2.284 -0.4069 -0.1296 -0.4966
 2670SOL    HW118939   8.077   8.174   2.350 -0.2573  0.2511 -0.4266
 2670SOL    HW218940   8.168   8.242   2.233 -1.0429 -0.6205 -1.5499
 2671SOL     OW18941   0.470   6.134   3.255 -0.5698 -0.0324 -0.2882
 2671SOL    HW118942   0.559   6.117   3.298 -1.7021 -0.6615  1.8926
 2671SOL    HW218943   0.438   6.051   3.211 -1.5187 -0.7269  1.6862
 2672SOL     OW18944   0.116   9.611   3.585  0.2407  0.3320 -0.5890
 2672SOL    HW118945   0.068   9.595   3.499 -0.7351  1.3074 -0.2283
 2672SOL    HW218946   0.211   9.635   3.565 -0.1294  1.1346 -1.4259
 2673SOL     OW18947   7.577   1.300   1.825  0.0616 -0.6875 -1.1970
 2673SOL    HW118948   7.532   1.389   1.825 -1.5348 -1.4453  0.5071
 2673SOL    HW218949   7.651   1.300   1.892 -1.5257 -1.3415  0.6301
 2674SOL     OW18950   9.712   7.864   0.272  0.3299 -0.1139  0.5064
 2674SOL    HW118951   9.793   7.881   0.328  0.2959 -1.9560  1.1439
 2674SOL    HW218952   9.634   7.914   0.310  0.8764  0.6639  0.6187
 2675SOL     OW18953   5.941   7.796   3.271 -0.1612 -0.9532 -0.1021
 2675SOL    HW118954   5.987   7.831   3.189  2.7057 -2.2057  0.9056
 2675SOL    HW218955   5.893   7.871   3.317  0.9020  0.4114 -1.1738
 2676SOL     OW18956   2.294   0.329   1.894  0.3459 -0.1486 -0.3819
 2676SOL    HW118957   2.334   0.298   1.981 -3.5618 -1.9469  0.9310
 2676SOL    HW218958   2.227   0.401   1.913  0.3759  0.3196 -2.0422
 2677SOL     OW18959   9.095   7.792   4.801  0.7374  0.0729  0.4307
 2677SOL    HW118960   9.056   7.715   4.750 -2.6710  0.8726  1.7305
 2677SOL    HW218961   9.127   7.861   4.736 -0.2563 -0.4871 -0.6860
 2678SOL     OW18962   3.132   5.493   5.733  0.2996  0.5384  0.0604
 2678SOL    HW118963   3.209   5.429   5.741  0.0918  0.1714 -0.8512
 2678SOL    HW218964   3.086   5.500   5.822  0.1404 -0.8122  0.0967
 2679SOL     OW18965   9.645   2.049   1.945 -0.3709 -0.1130 -0.3548
 2679SOL    HW118966   9.741   2.036   1.919  0.3562 -0.2175  2.2345
 2679SOL    HW218967   9.599   2.105   1.876  1.4796 -0.2785 -1.7571
 2680SOL     OW18968   7.418   2.826   3.253  0.4581 -0.8492  0.1465
 2680SOL    HW118969   7.384   2.884   3.179  0.7688 -0.5119  0.2662
 2680SOL    HW218970   7.515   2.806   3.238 -0.0968 -2.9096 -0.9093
 2681SOL     OW18971   0.354   3.528   4.993 -0.1076  0.5002  0.0259
 2681SOL    HW118972   0.268   3.517   4.943  0.2319 -0.2947 -0.3900
 2681SOL    HW218973   0.353   3.468   5.073  1.2400 -1.7132 -1.5634
 2682SOL     OW18974   2.645   1.183   2.108 -0.0703  0.0742 -0.0794
 2682SOL    HW118975   2.566   1.143   2.154  0.6819  0.0536  1.2060
 2682SOL    HW218976   2.715   1.113   2.094  0.2322  0.3773 -0.0923
 2683SOL     OW18977   2.573   8.164   0.956  0.8614 -0.3958 -0.2388
 2683SOL    HW118978   2.573   8.074   0.999  0.7170 -0.6526 -0.7650
 2683SOL    HW218979   2.628   8.160   0.872 -0.7439 -0.4895 -1.2948
 2684SOL     OW18980   9.529   4.398   5.007  0.0452 -0.4245 -0.6548
 2684SOL    HW118981   9.439   4.373   4.972 -1.1046  0.2177  1.7267
 2684SOL    HW218982   9.550   4.341   5.087  1.4653 -0.1059 -0.7937
 2685SOL     OW18983   3.576   3.807   0.236 -0.4085 -0.3104 -0.0429
 2685SOL    HW118984   3.498   3.843   0.287  0.6151  0.6199  0.8780
 2685SOL    HW218985   3.661   3.841   0.276  0.5050 -2.0184 -0.5049
 2686SOL     OW18986   1.146   7.981   5.145  0.4418 -0.2355 -0.4114
 2686SOL    HW118987   1.109   8.050   5.082 -0.8477  0.3498  0.9782
 2686SOL    HW218988   1.186   8.026   5.225 -1.6895 -1.1255  1.1953
 2687SOL     OW18989   1.045   4.445   2.780  0.2558  0.4921 -0.0631
 2687SOL    HW118990   1.098   4.421   2.698 -0.0589  0.3343 -0.2237
 2687SOL    HW218991   1.107   4.475   2.852  0.5429  0.5738 -0.3390
 2688SOL     OW18992   9.201   6.812   4.977  0.5295 -0.3631 -0.2755
 2688SOL    HW118993   9.205   6.717   4.946 -0.1024  0.1200 -1.8456
 2688SOL    HW218994   9.281   6.862   4.943  1.0785 -0.4104  0.8938
 2689SOL     OW18995   4.549   7.247   4.557  0.3626  0.3271  0.1663
 2689SOL    HW118996   4.526   7.322   4.495 -0.8605  2.7617  3.4074
 2689SOL    HW218997   4.467   7.222   4.610  1.4532 -1.4393  1.0621
 2690SOL     OW18998   8.833   9.505   0.819 -0.4505 -0.6553  0.3237
 2690SOL    HW118999   8.930   9.527   0.810 -0.7534 -0.2210 -1.9368
 2690SOL    HW219000   8.787   9.579   0.868  0.2239 -0.5380  0.7910
 2691SOL     OW19001   0.397   6.355   2.042 -0.2300 -0.3969  0.1237
 2691SOL    HW119002   0.327   6.335   1.974 -1.3331  0.5720  0.9468
 2691SOL    HW219003   0.470   6.287   2.036  0.0285  0.0451 -2.4485
 2692SOL     OW19004   4.770   5.246   1.031 -0.1424 -0.0023  0.4325
 2692SOL    HW119005   4.753   5.165   0.974 -0.1122  0.0308  0.3758
 2692SOL    HW219006   4.686   5.299   1.039 -0.8634 -1.4282  2.6632
 2693SOL     OW19007   3.439   5.035   5.542  0.2749 -0.2635 -0.6710
 2693SOL    HW119008   3.475   5.129   5.542  2.2265 -0.9903  0.2322
 2693SOL    HW219009   3.390   5.019   5.627 -0.0964 -0.0485 -0.8432
 2694SOL     OW19010   3.393   4.272   3.349 -0.2796 -0.4984 -0.3397
 2694SOL    HW119011   3.316   4.267   3.285 -1.2699 -1.5565  0.9065
 2694SOL    HW219012   3.367   4.230   3.436  1.5452 -0.4007  0.2764
 2695SOL     OW19013   1.051   7.249   6.207 -0.1744 -0.4752  0.0823
 2695SOL    HW119014   1.069   7.202   6.293 -2.9005 -0.8068  0.5071
 2695SOL    HW219015   1.107   7.333   6.203  2.2672 -2.0096  0.7466
 2696SOL     OW19016   5.665   9.883   3.514  0.0660  0.2306  0.2365
 2696SOL    HW119017   5.575   9.910   3.549 -0.4586 -0.3923 -0.5865
 2696SOL    HW219018   5.728   9.868   3.590  0.1010  2.7628  0.7479
 2697SOL     OW19019   9.236   9.198   0.764  0.0140 -0.3452 -0.2735
 2697SOL    HW119020   9.322   9.147   0.759 -0.6902 -1.6377  0.7129
 2697SOL    HW219021   9.160   9.134   0.774 -0.9307  0.8731  0.3826
 2698SOL     OW19022   7.547   0.958   2.150 -0.1403  0.4545  0.2094
 2698SOL    HW119023   7.595   1.045   2.156 -1.4795  1.1513  1.0588
 2698SOL    HW219024   7.497   0.953   2.064 -0.6458  0.8302  0.4814
 2699SOL     OW19025   1.391   7.763   6.659  0.2707 -0.3481 -0.2185
 2699SOL    HW119026   1.306   7.812   6.678  0.9386  0.0150  1.9981
 2699SOL    HW219027   1.467   7.828   6.654  0.3935 -0.6365 -2.4896
 2700SOL     OW19028   0.100   3.644   1.588  0.2389 -0.0537  0.3476
 2700SOL    HW119029   0.083   3.722   1.648  1.1720 -0.5511  1.2667
 2700SOL    HW219030   0.193   3.611   1.602 -0.8697 -2.7603  1.6126
 2701SOL     OW19031   8.273   5.814   0.626  0.2910 -0.2247  0.3659
 2701SOL    HW119032   8.208   5.867   0.681 -0.3447 -0.3205 -0.2874
 2701SOL    HW219033   8.298   5.731   0.675  1.1599  0.5711  1.3244
 2702SOL     OW19034   1.634   4.073   0.427  0.0160  0.3480  0.3477
 2702SOL    HW119035   1.564   4.141   0.447  2.0632  2.7318 -0.2290
 2702SOL    HW219036   1.630   3.999   0.494 -3.1116  0.3358  0.1984
 2703SOL     OW19037   3.010   6.098   5.881 -0.0632 -0.0734 -0.2498
 2703SOL    HW119038   3.024   6.014   5.829  1.8531 -0.9492  1.6691
 2703SOL    HW219039   2.946   6.082   5.956 -0.3513  0.4052 -0.3845
 2704SOL     OW19040   3.777   8.419   1.906 -0.7507 -0.0118  0.6315
 2704SOL    HW119041   3.742   8.508   1.934  0.2207  0.5313  0.1454
 2704SOL    HW219042   3.834   8.381   1.979  0.0237  0.4277  0.2601
 2705SOL     OW19043   2.139   6.834   5.118  0.2596  0.0581  0.2053
 2705SOL    HW119044   2.057   6.889   5.102  0.2235  0.5709  2.0202
 2705SOL    HW219045   2.198   6.880   5.184  1.7914 -0.5456 -0.7044
 2706SOL     OW19046   7.876   3.039   4.563 -0.5002  0.6002  0.3912
 2706SOL    HW119047   7.965   2.995   4.554 -1.0047 -0.3167 -0.1839
 2706SOL    HW219048   7.832   3.011   4.648 -0.9818 -0.3062 -0.1522
 2707SOL     OW19049   9.046   4.110   2.630  0.0515  0.7156 -0.4541
 2707SOL    HW119050   8.988   4.155   2.562 -0.3264  1.3444  0.2831
 2707SOL    HW219051   8.991   4.050   2.687 -0.2864  3.0061  1.6947
 2708SOL     OW19052   3.741   5.079   5.581  0.4993  0.1113 -0.2008
 2708SOL    HW119053   3.714   4.985   5.605 -0.9772  0.8546  1.2461
 2708SOL    HW219054   3.682   5.113   5.507 -0.1736  0.4845  0.4893
 2709SOL     OW19055   0.785   9.989   1.367  0.1111  0.1489  0.2467
 2709SOL    HW119056   0.789  10.088   1.355  0.3268  0.0347 -0.6809
 2709SOL    HW219057   0.874   9.956   1.399 -0.2443  0.3619  1.5039
 2710SOL     OW19058   0.989   9.322   2.479  0.6076  0.8935  0.1657
 2710SOL    HW119059   0.955   9.242   2.430 -0.3553  0.7676  1.0113
 2710SOL    HW219060   0.948   9.405   2.441 -2.2005  0.6064  2.3959
 2711SOL     OW19061   4.251   5.451   0.927 -0.4185 -0.4131  0.2225
 2711SOL    HW119062   4.350   5.465   0.923 -0.6838  1.6845  0.6568
 2711SOL    HW219063   4.211   5.516   0.991 -2.3311  0.0527 -1.4356
 2712SOL     OW19064   9.884   9.617   3.062 -0.3471 -0.1775  0.2051
 2712SOL    HW119065   9.855   9.712   3.051  0.8695  0.0237 -1.3769
 2712SOL    HW219066   9.805   9.561   3.086 -1.8206  0.5751 -2.6590
 2713SOL     OW19067   8.257   2.522   4.095 -0.1343 -0.0104 -0.5224
 2713SOL    HW119068   8.277   2.442   4.037  1.9161  0.1927 -0.1291
 2713SOL    HW219069   8.298   2.603   4.055 -0.1713  0.4294  0.3223
 2714SOL     OW19070   0.861   3.608   3.723 -0.7348  0.3236 -0.3722
 2714SOL    HW119071   0.763   3.616   3.705 -0.6546 -0.1627 -1.0211
 2714SOL    HW219072   0.908   3.575   3.641 -0.4212 -2.1850  0.7692
 2715SOL     OW19073   2.099   6.304   2.324  0.4871 -0.2201 -0.2853
 2715SOL    HW119074   2.048   6.221   2.344  1.3211 -0.2070  2.1052
 2715SOL    HW219075   2.036   6.381   2.315 -0.0304 -0.3610  1.7950
 2716SOL     OW19076   9.070   7.995   3.409  0.2897 -0.3173 -0.4246
 2716SOL    HW119077   9.010   8.053   3.465 -1.2688 -0.7165 -1.6467
 2716SOL    HW219078   9.065   8.026   3.314  2.7431  0.2079 -0.3984
 2717SOL     OW19079   5.401   4.563   0.429  0.2030 -0.2564 -0.2241
 2717SOL    HW119080   5.457   4.644   0.445  1.2505 -1.1926  0.8829
 2717SOL    HW219081   5.449   4.481   0.461 -1.8309 -1.0725  0.8612
 2718SOL     OW19082   9.062   0.893   3.644  0.8046 -0.1018 -0.2577
 2718SOL    HW119083   9.157   0.893   3.612  0.6745  1.7658 -0.7258
 2718SOL    HW219084   9.037   0.986   3.672 -0.1417 -1.0375  2.1208
 2719SOL     OW19085   5.164   0.941   4.889  0.0121  0.2510 -0.0605
 2719SOL    HW119086   5.209   0.852   4.897  0.0170  0.2125 -0.4743
 2719SOL    HW219087   5.109   0.943   4.805 -0.0392  0.6130 -0.0197
 2720SOL     OW19088   0.186   7.163   4.901 -0.0539  0.8831 -0.0376
 2720SOL    HW119089   0.092   7.176   4.934 -0.5513 -1.1567 -0.5975
 2720SOL    HW219090   0.233   7.097   4.959  0.5876  0.8205 -0.6234
 2721SOL     OW19091   8.425   6.009   3.586  0.4720 -0.1892 -0.1488
 2721SOL    HW119092   8.333   5.975   3.564 -0.9117  2.2562  1.6123
 2721SOL    HW219093   8.452   6.078   3.518 -0.3821  1.4293  1.1178
 2722SOL     OW19094   2.505   3.544   5.608  0.3815 -0.3760 -0.3691
 2722SOL    HW119095   2.406   3.555   5.602  0.5666  1.0002 -0.9227
 2722SOL    HW219096   2.539   3.497   5.526  0.4407  0.9471 -1.1043
 2723SOL     OW19097   1.188   2.519   3.516  0.0112  0.3545  0.0084
 2723SOL    HW119098   1.278   2.562   3.512  0.0104  0.5027  1.3052
 2723SOL    HW219099   1.167   2.494   3.611 -1.5020  0.7426 -0.2042
 2724SOL     OW19100   8.267   9.406   5.724  0.5825 -0.4988  0.0727
 2724SOL    HW119101   8.284   9.481   5.661 -1.9662  1.5997  1.7878
 2724SOL    HW219102   8.353   9.378   5.767  1.3389  2.6992  0.7679
 2725SOL     OW19103   2.522   5.989   4.364 -0.0996  0.3615 -0.4863
 2725SOL    HW119104   2.471   5.907   4.389  0.2372  0.6444  1.1718
 2725SOL    HW219105   2.481   6.069   4.409  0.5243  0.8865 -0.8362
 2726SOL     OW19106   7.824   7.843   4.141 -0.4415 -0.2046  0.1139
 2726SOL    HW119107   7.860   7.832   4.234  0.1441 -2.4854 -0.3553
 2726SOL    HW219108   7.732   7.804   4.136 -0.4583 -0.1180 -0.2799
 2727SOL     OW19109   1.682   9.325   4.308  0.9245 -0.2036 -0.0660
 2727SOL    HW119110   1.639   9.244   4.349 -0.2827 -0.1546 -1.1880
 2727SOL    HW219111   1.692   9.311   4.209  0.1884  1.2373 -0.3571
 2728SOL     OW19112   9.028   3.230   0.709  0.5423  0.2464 -0.2073
 2728SOL    HW119113   9.030   3.294   0.633  0.6379 -0.0129 -0.4215
 2728SOL    HW219114   9.033   3.136   0.675 -0.0246  0.1081  0.0777
 2729SOL     OW19115   0.447   2.624   1.449  0.2294 -0.2581 -0.3629
 2729SOL    HW119116   0.357   2.666   1.440  0.0603 -0.5919 -0.2325
 2729SOL    HW219117   0.489   2.615   1.359 -0.7333 -2.0008 -0.6590
 2730SOL     OW19118   1.061   9.290   3.682 -0.1997  0.4488  0.1111
 2730SOL    HW119119   1.033   9.359   3.749 -1.6751  0.1011 -0.1225
 2730SOL    HW219120   1.049   9.198   3.721 -2.3249  0.1972 -1.0707
 2731SOL     OW19121   4.465   5.498   2.269 -0.0012  0.3719 -0.2748
 2731SOL    HW119122   4.393   5.566   2.279 -0.8728 -0.6739  0.5948
 2731SOL    HW219123   4.427   5.406   2.281  1.3748 -0.2187 -0.3042
 2732SOL     OW19124   9.321   2.021   2.201 -0.2751  0.3995  0.6493
 2732SOL    HW119125   9.379   2.064   2.270  0.8741  0.1175 -0.1281
 2732SOL    HW219126   9.303   1.926   2.228 -1.5140  0.8940  1.5778
 2733SOL     OW19127   2.068   7.093   4.713 -0.2850 -0.3840 -0.0628
 2733SOL    HW119128   2.105   7.000   4.701  0.7857 -0.0619  0.6514
 2733SOL    HW219129   2.076   7.143   4.627 -0.0130 -0.6646 -0.2022
 2734SOL     OW19130   3.120   4.568   5.304  0.0772 -0.1295  0.1813
 2734SOL    HW119131   3.158   4.508   5.234  3.9858  3.2623 -0.8348
 2734SOL    HW219132   3.132   4.526   5.394 -1.5133 -2.8514 -0.8310
 2735SOL     OW19133   2.986   6.903   2.249  0.0556  0.3127  0.0857
 2735SOL    HW119134   3.035   6.890   2.163 -1.0443 -2.4456 -0.1765
 2735SOL    HW219135   2.888   6.896   2.233 -0.1583 -0.3360  1.5639
 2736SOL     OW19136   0.651   6.422   0.270  0.2135 -0.3599  0.0433
 2736SOL    HW119137   0.731   6.375   0.232  0.4640 -0.1288  0.2783
 2736SOL    HW219138   0.676   6.515   0.296 -0.5970  0.3305 -1.5867
 2737SOL     OW19139   6.503   9.364   3.483  0.7083  0.6361 -0.4770
 2737SOL    HW119140   6.515   9.273   3.522  2.6591  0.3860 -1.6173
 2737SOL    HW219141   6.416   9.368   3.434  0.6204 -0.6052 -0.4263
 2738SOL     OW19142   7.767   8.764   4.942 -0.4968 -0.1734 -0.2258
 2738SOL    HW119143   7.670   8.768   4.963 -1.0490  0.1812 -2.7052
 2738SOL    HW219144   7.807   8.856   4.949 -0.7345 -0.0134 -0.9667
 2739SOL     OW19145   3.531   1.825   4.155 -0.1064 -0.5059 -0.5604
 2739SOL    HW119146   3.454   1.865   4.205  0.1123 -0.2408 -0.4359
 2739SOL    HW219147   3.579   1.896   4.104  1.1800 -0.3240  0.8437
 2740SOL     OW19148   0.345   7.982   6.125  0.6617  0.1122 -0.5556
 2740SOL    HW119149   0.357   7.890   6.088 -0.6893  0.7705 -2.7884
 2740SOL    HW219150   0.249   8.010   6.115  0.9522  1.5798  0.5178
 2741SOL     OW19151   9.374   2.504   1.758  0.3680 -0.2807  0.6034
 2741SOL    HW119152   9.289   2.535   1.716  0.2676 -1.0433  0.2368
 2741SOL    HW219153   9.451   2.534   1.701  0.2813 -0.5784  0.3311
 2742SOL     OW19154   3.831   5.064   0.462 -0.2994 -0.8359 -0.1034
 2742SOL    HW119155   3.903   5.086   0.527  0.2218  1.3995 -1.3948
 2742SOL    HW219156   3.751   5.031   0.511  0.5533 -0.4934  1.5611
 2743SOL     OW19157   0.905   7.293   2.058  0.2928  0.2572  0.1694
 2743SOL    HW119158   0.979   7.264   1.997 -0.8254 -1.3027 -0.4684
 2743SOL    HW219159   0.824   7.314   2.004 -0.4540 -0.3156  1.0678
 2744SOL     OW19160   9.434   7.575   5.607 -0.0894 -0.3527 -0.4105
 2744SOL    HW119161   9.518   7.547   5.654 -0.9143  1.3235  2.1567
 2744SOL    HW219162   9.362   7.508   5.626 -0.8896  1.1956  2.1960
 2745SOL     OW19163   9.494   7.851   3.246 -0.6460  0.0516 -0.1841
 2745SOL    HW119164   9.577   7.797   3.257 -0.0392  1.2628  1.5891
 2745SOL    HW219165   9.418   7.792   3.219  0.8604 -1.0022 -2.2245
 2746SOL     OW19166   3.884   8.289   4.772  0.5214  0.0184 -0.0994
 2746SOL    HW119167   3.933   8.250   4.851 -1.2481  1.1014  1.5867
 2746SOL    HW219168   3.948   8.342   4.716  1.8689 -1.0121  0.4396
 2747SOL     OW19169   5.357   5.357   1.679 -0.1192 -0.6067  0.3896
 2747SOL    HW119170   5.361   5.417   1.759  0.4249 -1.8500  1.3284
 2747SOL    HW219171   5.450   5.341   1.645 -0.3019 -0.5259 -0.1458
 2748SOL     OW19172   7.160   9.393   4.513 -0.1141 -0.1692  0.4913
 2748SOL    HW119173   7.164   9.414   4.611  0.4295 -0.2876  0.4953
 2748SOL    HW219174   7.240   9.339   4.487 -0.8441 -1.1394  0.2175
 2749SOL     OW19175   2.171   2.150   2.420 -0.1787  0.4179 -0.3765
 2749SOL    HW119176   2.193   2.093   2.341 -0.8652 -2.8726  1.7146
 2749SOL    HW219177   2.082   2.194   2.405  0.0151  0.3894 -1.6865
 2750SOL     OW19178   2.208   6.683   1.677  0.1543  0.5287 -0.1702
 2750SOL    HW119179   2.219   6.694   1.578 -0.1561 -0.4101 -0.3117
 2750SOL    HW219180   2.254   6.758   1.724  1.9267 -0.0354 -0.9703
 2751SOL     OW19181   9.816   7.136   1.890 -0.0374  0.0604 -0.4046
 2751SOL    HW119182   9.760   7.188   1.954  1.7627  1.9131 -0.2920
 2751SOL    HW219183   9.764   7.117   1.807 -1.1849  0.8176  0.1370
 2752SOL     OW19184   7.982   6.431   3.879  0.0434 -0.6238 -0.5881
 2752SOL    HW119185   8.009   6.336   3.865  2.0073  0.1030 -1.9841
 2752SOL    HW219186   8.063   6.489   3.883 -1.1267  1.0039  0.2469
 2753SOL     OW19187   5.239   0.650   1.284 -0.6727  0.1304  0.0814
 2753SOL    HW119188   5.223   0.556   1.256 -0.6676  0.7843 -2.2164
 2753SOL    HW219189   5.297   0.696   1.216 -2.0689  2.2631  0.2842
 2754SOL     OW19190   2.378   9.198   2.189 -0.4422 -0.1496  0.5403
 2754SOL    HW119191   2.370   9.273   2.123 -1.3939 -0.9574 -0.2642
 2754SOL    HW219192   2.351   9.231   2.279 -0.0905  0.6843  0.3532
 2755SOL     OW19193   7.869   0.341   0.069 -0.6306 -0.2491 -0.2618
 2755SOL    HW119194   7.841   0.404  -0.004  0.4364 -0.0785 -0.5268
 2755SOL    HW219195   7.845   0.247   0.043  1.6728 -0.4477 -1.8151
 2756SOL     OW19196   4.957   5.185   2.874  0.1182  0.6524 -0.1741
 2756SOL    HW119197   5.047   5.142   2.881 -0.4134 -0.6298 -0.9334
 2756SOL    HW219198   4.916   5.162   2.786 -2.0968 -1.1066  1.2319
 2757SOL     OW19199   0.731   7.811   4.604 -0.2236  0.1551  0.2467
 2757SOL    HW119200   0.649   7.851   4.563 -0.5977 -0.4010  0.4559
 2757SOL    HW219201   0.812   7.851   4.561 -0.5866  1.3394  0.6292
 2758SOL     OW19202   3.787   9.074   2.746 -0.4660 -0.3020 -0.2817
 2758SOL    HW119203   3.695   9.071   2.783 -0.2183 -0.8127  0.3030
 2758SOL    HW219204   3.799   9.156   2.690 -0.9799  0.2275  0.3922
 2759SOL     OW19205   9.665   3.748   3.526 -0.1118 -0.4548 -0.1379
 2759SOL    HW119206   9.582   3.692   3.529  0.2280 -0.9277  0.6297
 2759SOL    HW219207   9.643   3.843   3.544 -0.3478 -0.7463  1.1721
 2760SOL     OW19208   4.932   2.477   4.512 -0.0197  0.0336  0.0010
 2760SOL    HW119209   4.886   2.416   4.576  1.1200 -0.4278  0.3915
 2760SOL    HW219210   4.992   2.423   4.452 -1.2336  0.4281 -1.5949
 2761SOL     OW19211   1.037   9.438   2.201  0.2082 -0.4599 -0.3028
 2761SOL    HW119212   1.028   9.458   2.104  1.4944 -0.0152 -0.3338
 2761SOL    HW219213   1.103   9.364   2.215 -0.8779 -1.3599  0.1568
 2762SOL     OW19214   0.573   6.397   2.468 -0.1609  0.2978  0.0719
 2762SOL    HW119215   0.503   6.330   2.490 -0.3078  0.4363  0.0286
 2762SOL    HW219216   0.656   6.351   2.435 -0.5728  0.1879 -0.8157
 2763SOL     OW19217   9.949   7.363   3.427  0.1984  0.4466  0.0531
 2763SOL    HW119218   9.878   7.431   3.445  0.5422  0.9718 -0.5146
 2763SOL    HW219219   9.977   7.369   3.331 -0.9360 -1.6504 -0.4237
 2764SOL     OW19220   8.603   8.387   0.621 -0.4759  0.3399  0.2434
 2764SOL    HW119221   8.566   8.331   0.547 -0.1070  2.9082 -1.9312
 2764SOL    HW219222   8.533   8.401   0.691 -0.7643 -2.2583  0.5351
 2765SOL     OW19223   3.932   0.505   1.274 -0.5662 -0.3243  0.3782
 2765SOL    HW119224   3.874   0.428   1.301 -1.0580  0.1354  0.6530
 2765SOL    HW219225   4.012   0.472   1.224 -1.5689 -0.8777 -0.8639
 2766SOL     OW19226   4.590   3.495   3.642  0.3655  0.3805 -0.2207
 2766SOL    HW119227   4.594   3.485   3.741  0.7397  0.5203 -0.2175
 2766SOL    HW219228   4.654   3.567   3.614 -0.0230  0.6118 -0.5245
 2767SOL     OW19229   1.115   7.215   1.900 -0.0332 -0.5507  0.5392
 2767SOL    HW119230   1.193   7.157   1.926 -0.4626 -0.8059  1.2761
 2767SOL    HW219231   1.129   7.251   1.808  0.4953 -1.3936  0.2874
 2768SOL     OW19232   5.089   2.442   3.390  0.2487  0.1477 -0.3093
 2768SOL    HW119233   5.024   2.512   3.418  0.6469  1.3364 -2.2588
 2768SOL    HW219234   5.090   2.435   3.291  0.4184 -2.4655 -0.1577
 2769SOL     OW19235   9.862   2.745   1.515 -0.0201 -0.1076  0.0427
 2769SOL    HW119236   9.778   2.794   1.490 -0.3924 -0.9291 -0.3213
 2769SOL    HW219237   9.876   2.669   1.452  1.4530  0.5207 -0.4311
 2770SOL     OW19238   8.519   0.239   2.203  0.3153 -0.1142 -0.1262
 2770SOL    HW119239   8.481   0.154   2.238  2.9599 -0.9288  0.9475
 2770SOL    HW219240   8.498   0.249   2.106 -1.4559 -1.1232  0.1415
 2771SOL     OW19241   5.616   8.309   4.430 -0.7226  0.2882 -0.1541
 2771SOL    HW119242   5.702   8.259   4.424 -1.8291 -2.2374  3.1865
 2771SOL    HW219243   5.550   8.269   4.367 -0.9566 -1.1417  0.9758
 2772SOL     OW19244   8.546   7.269   2.043 -0.1095 -0.0774  0.2218
 2772SOL    HW119245   8.612   7.310   2.107 -0.8235 -0.5671  1.3010
 2772SOL    HW219246   8.540   7.171   2.061 -0.2500 -0.2304 -0.6745
 2773SOL     OW19247   9.703   5.533   1.370 -0.0345  0.4749 -0.4249
 2773SOL    HW119248   9.786   5.543   1.316  0.1841 -1.2325 -0.4437
 2773SOL    HW219249   9.726   5.529   1.467 -0.2568  1.6385 -0.3144
 2774SOL     OW19250   9.027   5.286   3.370 -0.6151  0.4546  0.0789
 2774SOL    HW119251   9.092   5.321   3.302  1.4424 -0.5649  1.4843
 2774SOL    HW219252   8.972   5.214   3.329 -0.6972  1.1304 -1.0443
 2775SOL     OW19253   9.532   3.411   0.345  0.1959 -0.6209  0.7957
 2775SOL    HW119254   9.616   3.463   0.333 -0.2817 -0.3815 -1.7835
 2775SOL    HW219255   9.481   3.448   0.423  1.1435  1.0157  0.6665
 2776SOL     OW19256   5.744   8.411   2.836  0.0395  0.0483  0.0006
 2776SOL    HW119257   5.765   8.323   2.878  0.0431 -0.6015 -1.3432
 2776SOL    HW219258   5.816   8.477   2.857  0.9731 -0.7947 -0.5117
 2777SOL     OW19259   1.056   5.330   6.194 -0.6152  0.3088 -0.1644
 2777SOL    HW119260   1.065   5.230   6.190  0.3110  0.4148 -0.8232
 2777SOL    HW219261   0.983   5.359   6.132 -0.3839  0.1077 -0.5325
 2778SOL     OW19262   1.615   5.922   0.713 -0.0337  0.7269 -0.6759
 2778SOL    HW119263   1.540   5.858   0.731 -1.4478  2.5553  0.1294
 2778SOL    HW219264   1.687   5.909   0.780  0.0461 -0.5328 -0.9906
 2779SOL     OW19265   3.323   4.231   1.014  0.0500  0.0169  0.2885
 2779SOL    HW119266   3.241   4.271   1.055  0.6347  1.7537 -0.2199
 2779SOL    HW219267   3.317   4.131   1.020 -1.8589  0.1346  0.7163
 2780SOL     OW19268   5.878   7.560   2.294 -0.0366  0.1695  0.1935
 2780SOL    HW119269   5.934   7.478   2.282 -1.0815 -0.6092  0.5496
 2780SOL    HW219270   5.927   7.626   2.352  0.6927 -0.3172  0.1319
 2781SOL     OW19271   6.429   9.395   2.559  0.0382  0.0953  0.7342
 2781SOL    HW119272   6.345   9.442   2.585 -0.0602  0.8318 -0.8942
 2781SOL    HW219273   6.407   9.310   2.512  0.2124 -0.4134  1.5648
 2782SOL     OW19274   0.784   5.252   3.720 -0.3125 -0.7636  0.0783
 2782SOL    HW119275   0.695   5.297   3.709  0.5456  0.5832 -1.5862
 2782SOL    HW219276   0.844   5.309   3.775  0.5723 -0.1169 -1.5141
 2783SOL     OW19277   6.024   0.315   4.281  0.0255  0.1809  0.5526
 2783SOL    HW119278   6.098   0.249   4.292 -1.4063 -1.1804  2.2997
 2783SOL    HW219279   6.062   0.406   4.265  2.0558 -0.5780  0.9611
 2784SOL     OW19280   4.465   8.990   4.852 -0.0295  0.0055  0.0356
 2784SOL    HW119281   4.472   9.061   4.922 -0.5854  0.3110 -0.2076
 2784SOL    HW219282   4.504   9.024   4.766 -1.8501  0.6862 -0.5607
 2785SOL     OW19283   0.264   8.059   3.135  0.8475  0.3114 -0.5018
 2785SOL    HW119284   0.183   8.049   3.077  1.5052  1.6937 -1.6714
 2785SOL    HW219285   0.282   7.973   3.182 -2.6177  0.5802  1.4980
 2786SOL     OW19286   5.609   9.633   4.490  0.0542 -0.0172  0.5898
 2786SOL    HW119287   5.516   9.656   4.461  0.6002  2.9727  1.0999
 2786SOL    HW219288   5.667   9.626   4.409 -0.2306 -0.0679  0.3872
 2787SOL     OW19289   2.678   0.628   4.092 -0.3110 -0.3254 -0.4466
 2787SOL    HW119290   2.764   0.647   4.140 -0.5769 -0.7247  0.1943
 2787SOL    HW219291   2.614   0.584   4.155 -1.8315  2.0828 -0.2292
 2788SOL     OW19292   3.958   4.935   6.531  0.7590 -0.4349  0.5322
 2788SOL    HW119293   4.045   4.891   6.513  0.2908 -0.6709 -1.1726
 2788SOL    HW219294   3.921   4.974   6.447  0.5952  2.1947  1.7441
 2789SOL     OW19295   0.416   2.567   4.479  0.9618  0.0417  0.3270
 2789SOL    HW119296   0.332   2.543   4.528  0.7168  0.8420  0.3099
 2789SOL    HW219297   0.394   2.589   4.384  0.9331  1.9178  0.7400
 2790SOL     OW19298   3.970   9.429   3.395  0.2918  0.2171  0.1826
 2790SOL    HW119299   4.015   9.406   3.308 -0.3443  0.1787 -0.1429
 2790SOL    HW219300   3.957   9.528   3.401 -1.0749  0.1003 -0.4898
 2791SOL     OW19301   0.546   9.867   1.349  0.3751 -0.1690  0.2542
 2791SOL    HW119302   0.621   9.932   1.361 -0.1440  0.6987 -1.1413
 2791SOL    HW219303   0.507   9.878   1.258  0.7941 -2.9914 -0.3086
 2792SOL     OW19304   6.621   0.414   5.702  0.2523  0.0587 -0.6873
 2792SOL    HW119305   6.621   0.333   5.761  1.1309 -1.3852 -2.5814
 2792SOL    HW219306   6.660   0.389   5.613 -0.7379  2.2532 -1.7615
 2793SOL     OW19307   9.712   9.284   4.134 -0.3169  0.0386 -0.3564
 2793SOL    HW119308   9.801   9.305   4.092 -0.5426  0.0471 -0.8222
 2793SOL    HW219309   9.640   9.289   4.065 -0.3672 -2.3410 -0.4908
 2794SOL     OW19310   4.699   0.916   3.589  0.3122  0.3343 -0.0626
 2794SOL    HW119311   4.753   0.973   3.652 -1.4538 -0.8065  2.5738
 2794SOL    HW219312   4.731   0.821   3.596 -1.1976 -0.1332  0.6098
 2795SOL     OW19313   0.922   3.829   2.878 -0.1767 -0.7646 -0.2560
 2795SOL    HW119314   0.903   3.784   2.791  0.4730 -0.4961 -0.5360
 2795SOL    HW219315   0.854   3.902   2.892 -1.2609 -1.8535  0.2270
 2796SOL     OW19316   7.442   0.361   1.153 -0.5371  0.3204  0.1152
 2796SOL    HW119317   7.519   0.425   1.159 -0.6506  0.4363  0.3081
 2796SOL    HW219318   7.427   0.337   1.057  0.1511 -0.1979  0.1291
 2797SOL     OW19319   2.599   8.519   3.952  0.2141  0.2429  0.2648
 2797SOL    HW119320   2.562   8.611   3.955 -0.5738  0.0210 -1.9858
 2797SOL    HW219321   2.533   8.454   3.990 -1.1523  0.0367 -2.3974
 2798SOL     OW19322   4.511   6.112   2.097  0.1290  0.2138 -0.2447
 2798SOL    HW119323   4.513   6.018   2.063 -0.7531  0.0763  0.0711
 2798SOL    HW219324   4.550   6.173   2.028  1.4687 -0.4791 -0.1163
 2799SOL     OW19325   9.959   7.394   2.980 -0.2569  0.3348  0.0354
 2799SOL    HW119326  10.051   7.427   3.001 -0.1341 -0.6064  0.9979
 2799SOL    HW219327   9.896   7.471   2.976  0.3266  0.8471  0.6853
 2800SOL     OW19328   3.034   8.624   3.608 -0.5373  0.1779  0.2996
 2800SOL    HW119329   3.050   8.552   3.540  0.3948  0.2291  0.4543
 2800SOL    HW219330   2.967   8.592   3.675 -2.0993  0.4511 -1.1147
 2801SOL     OW19331   6.965   1.966   3.276 -0.0095 -0.4122  0.1408
 2801SOL    HW119332   6.866   1.954   3.269  0.1917 -1.9285 -0.3317
 2801SOL    HW219333   6.989   2.061   3.256 -1.2684 -0.3136 -0.9633
 2802SOL     OW19334   8.804   4.921   5.086  0.6333 -0.6236  0.5120
 2802SOL    HW119335   8.757   4.849   5.138  1.1687 -0.8646  0.6589
 2802SOL    HW219336   8.768   4.923   4.993 -0.3091 -0.2150  0.8772
 2803SOL     OW19337   9.832   6.429   4.812 -0.0047  0.5436  0.3909
 2803SOL    HW119338   9.764   6.418   4.740 -0.2960 -1.1042  0.8865
 2803SOL    HW219339   9.924   6.423   4.772 -0.1638 -0.6771  0.1873
 2804SOL     OW19340   0.704   3.528   1.450 -0.2317  0.1414  0.3940
 2804SOL    HW119341   0.722   3.462   1.377 -0.5760  0.6700 -0.1747
 2804SOL    HW219342   0.694   3.619   1.410  1.0352  0.6731  1.2525
 2805SOL     OW19343   0.385   5.879   3.214  0.1990 -0.8854 -0.0170
 2805SOL    HW119344   0.304   5.829   3.245 -0.2852 -0.8145 -1.1364
 2805SOL    HW219345   0.391   5.874   3.115  0.7388  0.3626 -0.0589
 2806SOL     OW19346   3.348   6.183   6.120  0.4353  1.0244 -0.3358
 2806SOL    HW119347   3.275   6.215   6.060 -0.0638  2.3354  0.9555
 2806SOL    HW219348   3.372   6.254   6.186  1.0073 -0.3628  1.0022
 2807SOL     OW19349   2.403   7.605   5.669 -0.1253 -0.0286  0.2274
 2807SOL    HW119350   2.354   7.690   5.688  1.2072  0.9194 -0.5431
 2807SOL    HW219351   2.445   7.571   5.752 -1.2289 -0.3087  0.6822
 2808SOL     OW19352   7.653   1.433   4.636  0.3418  0.0538 -0.5291
 2808SOL    HW119353   7.710   1.381   4.573  1.7336 -0.6152  1.2402
 2808SOL    HW219354   7.686   1.420   4.730 -3.8763 -1.9222  0.8188
 2809SOL     OW19355   8.471   1.484   3.669  0.7580 -0.7040 -0.2369
 2809SOL    HW119356   8.468   1.435   3.583 -0.5027  0.4295 -0.8606
 2809SOL    HW219357   8.561   1.473   3.711  1.0867 -1.9847 -1.2582
 2810SOL     OW19358   1.816   7.077   0.667 -0.1940  0.0773 -0.0121
 2810SOL    HW119359   1.842   7.135   0.590  2.0669 -0.4778  0.2866
 2810SOL    HW219360   1.723   7.099   0.696 -1.1458  0.1743 -2.9930
 2811SOL     OW19361   5.216   8.092   3.890  0.1754 -0.3747 -0.1852
 2811SOL    HW119362   5.270   8.152   3.950 -2.9233  0.4708  1.8543
 2811SOL    HW219363   5.247   7.997   3.902  1.1042  0.0629  1.0484
 2812SOL     OW19364   4.520   9.555   3.814 -0.5923 -0.0346  0.1049
 2812SOL    HW119365   4.547   9.538   3.909  3.8633  2.4540 -0.5824
 2812SOL    HW219366   4.550   9.478   3.757  0.9526  0.5672  0.0712
 2813SOL     OW19367   4.083   8.085   3.658  0.0534  0.1588  0.2656
 2813SOL    HW119368   4.173   8.085   3.701  0.3855  1.6804 -0.3968
 2813SOL    HW219369   4.093   8.083   3.558 -0.6792 -1.1644  0.2003
 2814SOL     OW19370   1.660   9.750   3.490  0.6544  0.0132 -0.2496
 2814SOL    HW119371   1.642   9.736   3.393  1.7820 -1.6772 -0.2256
 2814SOL    HW219372   1.590   9.811   3.528  0.6913  1.3740 -2.2896
 2815SOL     OW19373   4.830   2.526   3.206  0.4116 -0.2459 -0.0810
 2815SOL    HW119374   4.756   2.515   3.139 -0.3180  1.4274  0.4520
 2815SOL    HW219375   4.793   2.523   3.298  0.8778  1.5394  0.1781
 2816SOL     OW19376   4.451   4.707   0.106  0.0754  0.4007  0.4212
 2816SOL    HW119377   4.514   4.731   0.179  1.0039 -0.3011 -0.1414
 2816SOL    HW219378   4.391   4.633   0.136  1.3937 -0.8726  0.0228
 2817SOL     OW19379   9.538   2.349   0.742  0.2507  0.5114 -0.0962
 2817SOL    HW119380   9.627   2.304   0.737  0.9348  1.4996  2.5240
 2817SOL    HW219381   9.499   2.337   0.833 -1.2490  2.0461 -0.4948
 2818SOL     OW19382   6.321   9.183   3.012  0.1027  1.1953  0.1320
 2818SOL    HW119383   6.419   9.173   3.033  0.0016  0.8198  0.4320
 2818SOL    HW219384   6.293   9.277   3.029  0.2116  1.0902  0.8828
 2819SOL     OW19385   9.394   4.021   1.020  0.1888  0.1380  0.6555
 2819SOL    HW119386   9.331   3.955   0.978  1.6756  0.6479 -2.5509
 2819SOL    HW219387   9.480   3.975   1.042 -0.2349  0.1062  2.3143
 2820SOL     OW19388   0.792   2.868   6.732  0.0999 -0.2704  0.3629
 2820SOL    HW119389   0.884   2.830   6.735 -0.6467 -2.2025 -0.2733
 2820SOL    HW219390   0.729   2.800   6.693 -1.9014  0.3661  2.3550
 2821SOL     OW19391   7.516   2.323   3.651 -0.2934  0.3884 -0.4229
 2821SOL    HW119392   7.535   2.229   3.681 -0.0303  0.5439 -0.1083
 2821SOL    HW219393   7.571   2.387   3.704  0.9042  0.6076 -1.9127
 2822SOL     OW19394   2.241   7.021   5.608  0.5216  0.2865 -0.3611
 2822SOL    HW119395   2.201   7.100   5.654 -0.9308  1.4045 -3.3980
 2822SOL    HW219396   2.175   6.946   5.605  0.6277  0.1990 -0.5660
 2823SOL     OW19397   1.113   6.900   0.225 -0.6652  0.9567 -0.2895
 2823SOL    HW119398   1.055   6.881   0.146 -0.7434 -0.7638  0.1666
 2823SOL    HW219399   1.116   6.820   0.285  1.4570  1.3357  0.1579
 2824SOL     OW19400   9.240   7.562   1.722 -0.6548  0.0775 -0.4614
 2824SOL    HW119401   9.222   7.657   1.744  2.5859  0.2474  1.7946
 2824SOL    HW219402   9.335   7.552   1.690 -0.9183 -2.3874 -0.5885
 2825SOL     OW19403   9.771   6.595   4.439 -0.4289  0.0711  0.0790
 2825SOL    HW119404   9.757   6.632   4.531  0.8965 -0.7556  0.6146
 2825SOL    HW219405   9.715   6.647   4.374  0.0354  1.8579  1.0780
 2826SOL     OW19406   6.248   7.399   1.843 -0.3998 -0.4646 -0.1066
 2826SOL    HW119407   6.278   7.307   1.818  1.3088 -0.9456  3.4568
 2826SOL    HW219408   6.156   7.395   1.880  0.2630 -0.9994  1.5115
 2827SOL     OW19409   6.423   0.326   1.576  0.3758 -0.6311 -0.0165
 2827SOL    HW119410   6.495   0.387   1.610 -0.7305  1.4004 -1.1691
 2827SOL    HW219411   6.388   0.270   1.651  1.6078 -0.0244  1.0354
 2828SOL     OW19412   3.704   8.552   1.385  0.3400 -0.7455 -0.6912
 2828SOL    HW119413   3.739   8.464   1.416  0.7195 -0.7095 -1.0233
 2828SOL    HW219414   3.605   8.546   1.374  0.4498 -1.3382 -1.4126
 2829SOL     OW19415   1.262   8.292   5.554  0.0057 -0.4652  0.3733
 2829SOL    HW119416   1.317   8.273   5.635  0.1126  0.0244  0.4176
 2829SOL    HW219417   1.177   8.337   5.580  0.9522  1.5834  0.0623
 2830SOL     OW19418   3.253   3.270   2.845 -0.4584 -0.2520  0.2989
 2830SOL    HW119419   3.339   3.291   2.890 -0.1175 -0.3520 -0.2988
 2830SOL    HW219420   3.190   3.348   2.855  0.4029  0.6300 -0.9463
 2831SOL     OW19421   0.785   4.191   1.390  0.2855  0.3274  0.7821
 2831SOL    HW119422   0.783   4.120   1.319 -1.0289  1.6826 -0.5905
 2831SOL    HW219423   0.878   4.226   1.399  0.3503  0.5993 -0.7869
 2832SOL     OW19424   1.878   2.909   1.495 -0.2475 -0.0381  0.5471
 2832SOL    HW119425   1.924   2.854   1.565  0.8368 -0.2630 -0.3270
 2832SOL    HW219426   1.934   2.911   1.413 -0.3826  2.2143  0.4989
 2833SOL     OW19427   8.058   4.649   0.701  0.5979  0.1704 -0.2283
 2833SOL    HW119428   8.112   4.577   0.659  0.7447 -0.0764  0.3774
 2833SOL    HW219429   7.987   4.608   0.758  0.9910  0.5066  0.5084
 2834SOL     OW19430   4.180   1.684   2.287 -0.0039  0.5303  0.6450
 2834SOL    HW119431   4.229   1.732   2.213 -1.0427 -1.1822 -1.2076
 2834SOL    HW219432   4.084   1.713   2.287 -0.5310 -1.1818 -0.1889
 2835SOL     OW19433   0.334   8.650   2.256  0.2099  0.4122  0.0052
 2835SOL    HW119434   0.412   8.605   2.299 -1.2933 -2.1336  0.1804
 2835SOL    HW219435   0.342   8.644   2.156  0.1194 -0.0362  0.0271
 2836SOL     OW19436   0.182   5.011   0.156  0.2428 -0.2682 -0.3284
 2836SOL    HW119437   0.247   5.066   0.104  0.2409 -0.4830 -0.5570
 2836SOL    HW219438   0.099   5.065   0.174  0.1638 -0.2595 -0.7129
 2837SOL     OW19439   8.560   4.296   5.492 -0.3482  0.3773 -0.0475
 2837SOL    HW119440   8.639   4.271   5.548  0.0188 -0.3915 -0.9044
 2837SOL    HW219441   8.566   4.393   5.468  0.4137  0.2826 -0.2359
 2838SOL     OW19442   7.915   2.655   0.436  0.5957  0.1705 -0.6317
 2838SOL    HW119443   7.903   2.725   0.366 -0.9484  0.4842 -0.0765
 2838SOL    HW219444   7.925   2.699   0.525  2.1827 -0.2390 -0.5863
 2839SOL     OW19445   0.305   3.645   5.446 -0.1423  0.4632  0.0629
 2839SOL    HW119446   0.314   3.736   5.405  1.9918 -0.1272 -0.8381
 2839SOL    HW219447   0.339   3.576   5.382  0.6897 -0.7407  1.7636
 2840SOL     OW19448   8.861   3.851   0.252  0.1524  0.3475  0.3309
 2840SOL    HW119449   8.894   3.820   0.163  0.7148  0.3657  0.5326
 2840SOL    HW219450   8.799   3.783   0.291 -0.3676  0.5010 -0.2341
 2841SOL     OW19451   9.452   4.038   1.711  0.2529  0.5647 -0.8000
 2841SOL    HW119452   9.438   3.992   1.799  1.6224 -1.4706 -1.6292
 2841SOL    HW219453   9.549   4.040   1.689 -0.2789 -1.4524 -3.5761
 2842SOL     OW19454   4.765   2.592   0.350  0.4373  0.3170 -0.6007
 2842SOL    HW119455   4.753   2.548   0.439 -0.3564 -0.4067 -1.0679
 2842SOL    HW219456   4.685   2.649   0.331  1.6876  2.4205  0.2486
 2843SOL     OW19457   9.933   3.721   0.245 -0.3216 -0.0919 -0.0309
 2843SOL    HW119458   9.887   3.794   0.297 -1.8458 -0.5660 -0.6803
 2843SOL    HW219459  10.003   3.679   0.302 -0.7690  0.5669  1.0324
 2844SOL     OW19460   9.932   5.171   4.954 -0.4551 -0.3452 -0.2682
 2844SOL    HW119461   9.914   5.197   5.048 -2.4996 -0.8949 -0.4680
 2844SOL    HW219462   9.950   5.252   4.899 -0.4033  0.0750  0.3713
 2845SOL     OW19463   4.162   7.670   4.124 -0.1793 -0.0923 -0.6062
 2845SOL    HW119464   4.180   7.703   4.216  0.2005 -1.1615 -0.3004
 2845SOL    HW219465   4.091   7.727   4.082  0.9159  1.5194 -0.3204
 2846SOL     OW19466   9.335   6.667   2.886 -1.1083  0.1005 -0.8800
 2846SOL    HW119467   9.323   6.766   2.893  1.2281  0.4498 -1.3220
 2846SOL    HW219468   9.253   6.626   2.846 -1.4629  2.0495 -2.2214
 2847SOL     OW19469   2.951   8.590   2.509  0.0416 -0.4804 -0.8183
 2847SOL    HW119470   2.926   8.572   2.414 -1.5963 -1.2561 -0.2561
 2847SOL    HW219471   2.868   8.594   2.565  0.8683  1.7605  0.2858
 2848SOL     OW19472   2.559   0.966   4.257  0.0130 -0.3473  0.2512
 2848SOL    HW119473   2.479   0.949   4.199 -1.4457  3.3707  1.0560
 2848SOL    HW219474   2.630   1.012   4.203 -0.1563  0.3523  0.6139
 2849SOL     OW19475   4.636   3.308   4.625 -0.4129  0.4080  0.7013
 2849SOL    HW119476   4.681   3.340   4.709  1.0428  0.6776 -0.1536
 2849SOL    HW219477   4.567   3.374   4.596 -0.3560  0.7080  1.2449
 2850SOL     OW19478   5.130   7.327   3.062 -0.7367  0.5423 -0.4186
 2850SOL    HW119479   5.203   7.381   3.020  0.3418 -1.2193 -0.8558
 2850SOL    HW219480   5.162   7.291   3.149 -0.9607 -0.5184 -0.7717
 2851SOL     OW19481   6.206   1.671   1.298 -0.2571  0.2172  0.1752
 2851SOL    HW119482   6.122   1.726   1.302 -1.4685 -1.3470 -2.4825
 2851SOL    HW219483   6.195   1.590   1.355 -1.4907 -1.1297 -1.8952
 2852SOL     OW19484   2.676   8.637   2.596  0.2223 -0.4587 -0.5372
 2852SOL    HW119485   2.615   8.714   2.578  0.3941 -0.7403 -2.4309
 2852SOL    HW219486   2.653   8.560   2.536  1.2785 -1.1959 -0.0248
 2853SOL     OW19487   0.013   4.559   4.247 -0.0281  0.3113  0.5492
 2853SOL    HW119488  -0.040   4.485   4.289 -1.6509  1.5575  0.7424
 2853SOL    HW219489   0.038   4.534   4.153 -0.7340 -0.3942  0.5488
 2854SOL     OW19490   1.408   5.176   4.179  0.4437  0.1573  0.4887
 2854SOL    HW119491   1.348   5.148   4.103  0.8099 -1.7013  0.8731
 2854SOL    HW219492   1.407   5.106   4.250 -0.1881  2.0497  2.4130
 2855SOL     OW19493   3.751   5.368   0.468 -0.6950 -0.3090  0.3649
 2855SOL    HW119494   3.729   5.272   0.485 -1.6464  0.0643  1.3215
 2855SOL    HW219495   3.850   5.382   0.476 -0.3353 -1.5784 -1.7278
 2856SOL     OW19496   7.597   6.831   4.394  0.5648  0.7534  0.3603
 2856SOL    HW119497   7.659   6.795   4.463 -1.0737 -2.3986  0.2771
 2856SOL    HW219498   7.647   6.848   4.309  1.5938 -0.3583  0.7328
 2857SOL     OW19499   2.013   1.900   3.401 -0.5018 -0.1020  0.2723
 2857SOL    HW119500   2.095   1.896   3.344 -1.0990 -1.0255 -0.5438
 2857SOL    HW219501   2.016   1.827   3.469 -0.3814  0.2161  0.6088
 2858SOL     OW19502   2.862   4.808   3.192 -0.3180 -0.1662  0.3754
 2858SOL    HW119503   2.783   4.804   3.253 -0.6852 -0.8926 -0.1350
 2858SOL    HW219504   2.932   4.867   3.232 -0.7074 -0.3244  1.3167
 2859SOL     OW19505   8.225   1.913   0.340  0.7223  1.1371  0.0673
 2859SOL    HW119506   8.291   1.838   0.342 -2.6782 -2.0265 -0.8445
 2859SOL    HW219507   8.234   1.964   0.255  2.0931  0.8744  0.0504
 2860SOL     OW19508   0.076   5.389   5.427 -0.1015  0.4098 -0.3897
 2860SOL    HW119509   0.104   5.477   5.389  0.4651  1.2951  1.9357
 2860SOL    HW219510   0.014   5.404   5.504 -0.3256 -1.2353 -0.2273
 2861SOL     OW19511   8.970   3.338   0.238 -0.5397 -0.0946 -0.2947
 2861SOL    HW119512   9.054   3.366   0.192  0.8046 -3.3334  0.0746
 2861SOL    HW219513   8.907   3.298   0.172 -1.5071  1.6377 -0.4439
 2862SOL     OW19514   7.699   7.463   5.401 -0.4012  0.4049  0.0219
 2862SOL    HW119515   7.711   7.555   5.438  1.2597 -0.2448  1.2029
 2862SOL    HW219516   7.752   7.453   5.317  0.9641 -0.0222  0.9119
 2863SOL     OW19517   2.925   2.957   3.452  0.4640  0.0307  0.3399
 2863SOL    HW119518   2.935   2.858   3.455  2.2184  0.2191  0.7388
 2863SOL    HW219519   2.893   2.991   3.540 -2.9855 -0.4512 -0.6315
 2864SOL     OW19520   8.476   4.837   3.127  0.6066 -0.3194  0.6735
 2864SOL    HW119521   8.474   4.914   3.190 -0.6802 -0.1027  0.3890
 2864SOL    HW219522   8.443   4.755   3.173 -0.5508 -0.1122  0.2360
 2865SOL     OW19523   5.173   4.140   1.315 -0.3899  0.5248 -0.5400
 2865SOL    HW119524   5.249   4.161   1.376 -1.6679  0.1179  1.2473
 2865SOL    HW219525   5.151   4.220   1.259  0.3086  1.1559  0.0920
 2866SOL     OW19526   0.851   7.902   5.208 -0.4961 -0.0970  0.2626
 2866SOL    HW119527   0.886   7.824   5.155 -0.5827  0.0938 -0.0787
 2866SOL    HW219528   0.862   7.986   5.155  1.6730  0.4487  1.5239
 2867SOL     OW19529   4.825   6.980   2.832  0.1014 -0.7213 -0.6126
 2867SOL    HW119530   4.896   7.042   2.865 -2.1363  0.2113  2.6975
 2867SOL    HW219531   4.833   6.892   2.879 -0.9917 -0.5634 -0.1191
 2868SOL     OW19532   1.101   1.714   1.884  0.4121 -0.1801  0.1653
 2868SOL    HW119533   1.198   1.734   1.871  0.3333 -0.7232 -1.3211
 2868SOL    HW219534   1.083   1.618   1.861 -0.1383 -0.6160  2.3054
 2869SOL     OW19535   8.586   9.108   2.155  0.4142  0.1710 -0.6211
 2869SOL    HW119536   8.523   9.077   2.085  0.3952  1.5936 -1.2409
 2869SOL    HW219537   8.535   9.152   2.230  0.5651  0.1798 -0.5215
 2870SOL     OW19538   6.405   8.563   2.343 -0.1535  0.2885  0.4577
 2870SOL    HW119539   6.466   8.524   2.273 -1.0991  0.6916 -0.5991
 2870SOL    HW219540   6.310   8.549   2.315 -0.5295  2.9739  0.2589
 2871SOL     OW19541   9.149   2.563   4.986 -0.8827  0.0949 -0.2890
 2871SOL    HW119542   9.238   2.542   5.026 -1.5377  0.3494  1.3423
 2871SOL    HW219543   9.097   2.621   5.048 -1.8647  0.6557 -1.6016
 2872SOL     OW19544   4.382   3.071   2.865 -1.0042 -0.1566 -0.4043
 2872SOL    HW119545   4.289   3.092   2.893 -0.5061  0.4965  0.8226
 2872SOL    HW219546   4.410   3.134   2.792 -1.3844 -0.1027 -0.5034
 2873SOL     OW19547   9.796   8.566   1.408  0.1352  0.5005 -0.3112
 2873SOL    HW119548   9.804   8.532   1.314 -1.8475 -1.5245  0.2138
 2873SOL    HW219549   9.714   8.623   1.415 -0.3190 -0.2404  0.4409
 2874SOL     OW19550   8.310   6.367   4.730 -0.4886  0.4153  0.3726
 2874SOL    HW119551   8.262   6.450   4.701 -0.4727  0.3110  0.0457
 2874SOL    HW219552   8.407   6.375   4.707 -0.3220  0.6784  1.1478
 2875SOL     OW19553   4.171   9.111   1.971 -0.0981  0.4147 -0.1517
 2875SOL    HW119554   4.110   9.187   1.991  0.3620  0.5503  0.7266
 2875SOL    HW219555   4.122   9.042   1.918 -1.2876  0.0959  1.3448
 2876SOL     OW19556   2.312   2.515   1.939 -0.6621  0.3909  0.5455
 2876SOL    HW119557   2.305   2.500   1.841  2.1366 -0.8123  0.4817
 2876SOL    HW219558   2.293   2.611   1.960 -0.9644  0.7235 -1.1813
 2877SOL     OW19559   9.468   6.958   4.979  0.0377 -0.0276 -0.3771
 2877SOL    HW119560   9.561   6.986   5.001 -0.1565  0.5181 -0.2361
 2877SOL    HW219561   9.406   7.037   4.988 -0.5009 -0.4804 -0.0571
 2878SOL     OW19562   4.302   2.763   2.709  0.2021 -0.4100 -0.5255
 2878SOL    HW119563   4.287   2.673   2.751 -1.5774  0.5039  0.8877
 2878SOL    HW219564   4.218   2.792   2.664  1.1233  0.0653 -1.9376
 2879SOL     OW19565   4.049   5.057   1.500  0.1582  0.1276 -0.6463
 2879SOL    HW119566   4.128   5.039   1.558 -0.1951 -0.8499 -0.4603
 2879SOL    HW219567   3.979   5.104   1.554  0.1035 -0.1675 -0.4553
 2880SOL     OW19568   1.820   8.802   0.641  0.2405 -0.1648  0.0574
 2880SOL    HW119569   1.734   8.766   0.606 -0.1422  1.6066 -0.8967
 2880SOL    HW219570   1.890   8.731   0.637 -0.8850 -1.2629 -0.2880
 2881SOL     OW19571   6.480   8.270   5.269 -0.3070  0.4006  0.6955
 2881SOL    HW119572   6.524   8.187   5.234 -0.3269  0.1909  1.1659
 2881SOL    HW219573   6.382   8.268   5.247 -0.3345  0.2287  0.8294
 2882SOL     OW19574   0.095   3.322   3.269  0.4506  0.0546 -0.6816
 2882SOL    HW119575   0.060   3.247   3.326  0.6309  1.4686  1.3201
 2882SOL    HW219576   0.195   3.321   3.270  0.4680 -0.5026 -1.7888
 2883SOL     OW19577   9.641   5.690   5.647 -0.4344 -0.4974  0.1227
 2883SOL    HW119578   9.700   5.610   5.641  2.1127  1.2618  0.8621
 2883SOL    HW219579   9.616   5.706   5.743 -0.9858 -0.4170 -0.0290
 2884SOL     OW19580   1.974   9.310   3.450  0.2715 -0.0305  0.0044
 2884SOL    HW119581   2.065   9.281   3.421  0.4855  0.3320  0.3027
 2884SOL    HW219582   1.927   9.354   3.373  0.3401 -0.2315 -0.1536
 2885SOL     OW19583   2.126   8.083   5.173 -0.2246 -0.3034 -0.1615
 2885SOL    HW119584   2.078   8.025   5.107 -0.4559 -0.5509  0.2229
 2885SOL    HW219585   2.112   8.179   5.148  0.9402 -0.4310 -1.3383
 2886SOL     OW19586   6.189   8.069   4.549 -0.2629  0.1851  0.0597
 2886SOL    HW119587   6.227   8.009   4.620 -0.2472  0.4679  0.2912
 2886SOL    HW219588   6.110   8.025   4.507  0.1559 -0.2903 -0.2307
 2887SOL     OW19589   0.153   9.226   2.041 -0.2622 -0.5144  0.1620
 2887SOL    HW119590   0.207   9.296   2.089  0.9414 -1.3705  0.0598
 2887SOL    HW219591   0.169   9.233   1.943 -2.0657  0.6753 -0.0698
 2888SOL     OW19592   5.867   8.849   2.374  0.4074 -0.2855  0.0967
 2888SOL    HW119593   5.778   8.841   2.328  0.6318  0.8273 -0.5423
 2888SOL    HW219594   5.939   8.818   2.313  0.5058 -0.7565  0.4503
 2889SOL     OW19595   3.293   1.368   2.078 -0.4078  0.7610 -0.3516
 2889SOL    HW119596   3.241   1.439   2.031  0.2509  0.9579 -0.7943
 2889SOL    HW219597   3.267   1.366   2.175 -0.4409  1.6073 -0.3346
 2890SOL     OW19598   5.682   8.891   1.674 -0.2958  0.2418 -0.0846
 2890SOL    HW119599   5.668   8.794   1.693  1.6212  0.3635  2.2258
 2890SOL    HW219600   5.609   8.944   1.718 -1.2445 -0.1035 -1.1982
 2891SOL     OW19601   9.003   8.156   0.770 -0.1804  0.3794 -0.0777
 2891SOL    HW119602   9.071   8.205   0.716  0.3084 -0.8993 -0.6350
 2891SOL    HW219603   8.912   8.168   0.729 -0.2178  1.6190  0.3481
 2892SOL     OW19604   0.628   6.873   2.466 -0.8356  0.5235  0.5240
 2892SOL    HW119605   0.645   6.954   2.523 -0.3713  2.1563 -1.8890
 2892SOL    HW219606   0.688   6.799   2.495  1.3622  2.1960  0.4290
 2893SOL     OW19607   9.301   7.442   2.933 -0.3043  0.4981 -0.1744
 2893SOL    HW119608   9.353   7.358   2.916  2.3046  2.0180 -0.0595
 2893SOL    HW219609   9.285   7.490   2.846 -1.9952 -0.2003 -0.2691
 2894SOL     OW19610   9.779   3.987   4.199  0.5081 -0.2146 -0.2240
 2894SOL    HW119611   9.796   4.074   4.151 -0.6929 -0.8238 -1.8017
 2894SOL    HW219612   9.689   3.991   4.243  1.0682 -0.1388  0.9523
 2895SOL     OW19613   8.545   9.952   3.858 -0.7805  0.2883  0.9122
 2895SOL    HW119614   8.563   9.904   3.944  0.1881  0.5807  0.8752
 2895SOL    HW219615   8.605  10.031   3.851 -1.3732  0.6926  0.3031
 2896SOL     OW19616   1.328   5.819   2.902 -0.2597 -0.4376  0.3877
 2896SOL    HW119617   1.361   5.911   2.880 -0.8789  0.1008  1.6582
 2896SOL    HW219618   1.406   5.758   2.918  0.1915 -0.5971 -2.2098
 2897SOL     OW19619   4.560   3.290   4.946  0.2570  0.4041 -0.1782
 2897SOL    HW119620   4.507   3.313   5.028  0.6335  0.4427  0.0525
 2897SOL    HW219621   4.537   3.197   4.916  0.8945  0.0029  0.5750
 2898SOL     OW19622   3.096   5.855   1.279 -0.1958  0.5582 -0.2559
 2898SOL    HW119623   3.043   5.804   1.212  2.4958  1.6813 -3.3457
 2898SOL    HW219624   3.048   5.939   1.303 -0.7165  0.6282 -1.5409
 2899SOL     OW19625   0.745   1.057   4.121 -0.5630  0.2426 -0.2352
 2899SOL    HW119626   0.761   1.154   4.101 -1.4812  0.2297 -1.0898
 2899SOL    HW219627   0.741   1.043   4.220 -0.1673  1.0284 -0.1020
 2900SOL     OW19628   2.649   6.891   3.907  0.1485 -0.3780 -0.4603
 2900SOL    HW119629   2.669   6.954   3.833  1.4680  0.4321  0.5727
 2900SOL    HW219630   2.710   6.812   3.901  0.6721 -0.0220  0.1029
 2901SOL     OW19631   9.369   0.307   1.808 -0.1839  0.1457  0.1203
 2901SOL    HW119632   9.428   0.358   1.869 -0.4848  0.1888  0.3789
 2901SOL    HW219633   9.343   0.364   1.730  1.3441 -0.3674 -0.7897
 2902SOL     OW19634   8.736   1.254   2.859  0.1210 -0.0876  0.0476
 2902SOL    HW119635   8.727   1.166   2.812  0.5424  0.0898 -0.3699
 2902SOL    HW219636   8.810   1.306   2.817  1.1399 -0.3186  1.5245
 2903SOL     OW19637   8.442   1.230   1.763  0.2918  0.6467 -0.6188
 2903SOL    HW119638   8.370   1.272   1.818 -1.2217 -1.0337 -1.2604
 2903SOL    HW219639   8.412   1.139   1.732  3.0940 -0.5405 -0.0240
 2904SOL     OW19640   3.651   4.493   5.782  0.8119  0.1273  0.3152
 2904SOL    HW119641   3.604   4.491   5.870 -1.1043 -0.4507 -0.6659
 2904SOL    HW219642   3.698   4.406   5.768 -1.5652 -1.0754 -0.5706
 2905SOL     OW19643   2.942   0.182   3.735 -0.0040 -0.6340 -0.8294
 2905SOL    HW119644   3.030   0.228   3.743  0.2198 -1.1831 -0.1124
 2905SOL    HW219645   2.955   0.083   3.741 -0.7296 -0.7005 -0.2216
 2906SOL     OW19646   0.820   0.844   3.973 -0.1847 -0.3990  0.5654
 2906SOL    HW119647   0.918   0.865   3.983 -0.1072  0.0797 -1.0874
 2906SOL    HW219648   0.767   0.906   4.031  0.3814  0.7183 -0.0899
 2907SOL     OW19649   8.586   6.445   1.842 -0.0214 -0.3679 -0.1435
 2907SOL    HW119650   8.674   6.412   1.808 -0.3450  0.6175 -2.0221
 2907SOL    HW219651   8.589   6.545   1.851 -0.4257 -0.4783  1.3766
 2908SOL     OW19652   3.534   3.845   2.113  0.5249  0.3452  0.6842
 2908SOL    HW119653   3.509   3.937   2.084  0.5814 -0.6562 -2.6468
 2908SOL    HW219654   3.628   3.825   2.086 -0.0700 -1.3373 -0.1981
 2909SOL     OW19655   5.374   9.736   3.435 -0.4855 -0.4016 -0.1197
 2909SOL    HW119656   5.465   9.711   3.468 -0.3824  0.6587  0.3867
 2909SOL    HW219657   5.346   9.671   3.364  0.7744 -0.5707 -0.4680
 2910SOL     OW19658   4.724   9.251   2.852  0.4532 -0.4187 -0.0144
 2910SOL    HW119659   4.697   9.346   2.861 -3.4550 -1.3337 -1.0051
 2910SOL    HW219660   4.822   9.242   2.868  0.7409  3.6062  0.9186
 2911SOL     OW19661   2.270   3.142   2.277 -0.0077  0.3588 -0.2228
 2911SOL    HW119662   2.315   3.193   2.351  1.5574 -0.5354 -0.5355
 2911SOL    HW219663   2.267   3.045   2.301 -0.0871  0.1572 -1.0429
 2912SOL     OW19664   2.568   9.709   1.503 -0.0304 -0.1625 -0.3125
 2912SOL    HW119665   2.516   9.625   1.488 -0.5623  0.2812 -0.9587
 2912SOL    HW219666   2.514   9.773   1.557  0.3101 -0.1676  0.0376
 2913SOL     OW19667   1.139   8.310   4.638 -0.1500 -0.7204 -0.0180
 2913SOL    HW119668   1.195   8.375   4.691 -0.4072  0.7399 -1.4965
 2913SOL    HW219669   1.064   8.277   4.695  1.3821 -1.5890  1.5322
 2914SOL     OW19670   0.074   3.138   4.946  0.1438  0.3738 -0.6135
 2914SOL    HW119671  -0.005   3.142   4.886 -1.2622 -0.0137  1.1746
 2914SOL    HW219672   0.097   3.043   4.966  0.1221  0.5173  0.0972
 2915SOL     OW19673   3.231   5.424   2.981  0.1172  0.0572  0.1849
 2915SOL    HW119674   3.255   5.393   3.073 -1.5644 -1.7699  0.0353
 2915SOL    HW219675   3.308   5.407   2.920  0.3237 -1.0459  0.7411
 2916SOL     OW19676   7.910   1.173   2.178 -0.1160  0.1017  0.4277
 2916SOL    HW119677   7.945   1.080   2.185  2.3898  1.0496  1.2343
 2916SOL    HW219678   7.942   1.226   2.257 -1.0731  1.7761 -0.2848
 2917SOL     OW19679   2.413   3.461   5.296  0.3412 -0.0172 -0.4559
 2917SOL    HW119680   2.435   3.542   5.243  0.7990 -0.3816 -0.8291
 2917SOL    HW219681   2.473   3.385   5.268  0.6269 -0.1966  0.6047
 2918SOL     OW19682   7.289   4.051   1.541 -0.1517  0.0332  0.3514
 2918SOL    HW119683   7.209   4.107   1.520 -1.1873 -1.2942  0.6794
 2918SOL    HW219684   7.282   3.963   1.494 -0.2999 -1.1959  2.6050
 2919SOL     OW19685   1.002   3.587   0.025  0.4161 -0.2441  0.1137
 2919SOL    HW119686   1.098   3.564   0.015  1.0470  2.3256 -0.0026
 2919SOL    HW219687   0.960   3.598  -0.065  0.0575 -1.0467  0.1692
 2920SOL     OW19688   4.865   7.793   2.233  0.6131  0.2659 -0.5587
 2920SOL    HW119689   4.888   7.707   2.188 -0.4992  0.0472 -0.7223
 2920SOL    HW219690   4.904   7.793   2.326  0.6954 -0.3751 -0.5896
 2921SOL     OW19691   2.059   3.421   1.730 -0.0721  0.4322 -0.1063
 2921SOL    HW119692   2.020   3.404   1.639  0.5600 -0.8631 -0.1449
 2921SOL    HW219693   2.155   3.448   1.720  0.0329  0.1640  0.1823
 2922SOL     OW19694   0.141   7.908   5.410  0.3436 -0.9263  0.4057
 2922SOL    HW119695   0.065   7.880   5.352  0.2201 -1.8847  1.0311
 2922SOL    HW219696   0.107   7.930   5.501  0.6782 -0.3566  0.3967
 2923SOL     OW19697   0.497   6.333   4.471 -0.2083  0.5101  0.6765
 2923SOL    HW119698   0.511   6.426   4.440 -0.0405  0.2592 -0.0129
 2923SOL    HW219699   0.580   6.298   4.514 -0.3074  0.7158  1.0340
 2924SOL     OW19700   0.349   3.814   0.522  0.0007 -0.3371  0.1245
 2924SOL    HW119701   0.423   3.761   0.481  1.9214  1.2951  1.3859
 2924SOL    HW219702   0.333   3.897   0.468 -0.4152 -0.3137  0.2785
 2925SOL     OW19703   8.471   7.176   0.624  0.4867  0.3764 -0.3796
 2925SOL    HW119704   8.480   7.114   0.546  0.9477  0.8337 -0.7012
 2925SOL    HW219705   8.512   7.134   0.705  0.9937  0.3460 -0.6473
 2926SOL     OW19706   9.475   2.245   1.746 -0.2595  0.0502 -0.1126
 2926SOL    HW119707   9.397   2.183   1.754  0.0187 -0.0221  2.1590
 2926SOL    HW219708   9.444   2.338   1.766  0.0756  0.1356 -0.0033
 2927SOL     OW19709   3.014   3.667   0.936 -0.1513 -0.1174  0.5894
 2927SOL    HW119710   2.932   3.655   0.991 -1.7780  3.2874 -0.9493
 2927SOL    HW219711   2.996   3.635   0.843 -0.1174  1.6284 -0.0296
 2928SOL     OW19712   3.214   1.737   3.440  0.2988 -0.5321  0.7241
 2928SOL    HW119713   3.144   1.713   3.507 -0.5550  0.5662  0.2423
 2928SOL    HW219714   3.172   1.747   3.350  1.0424  0.3729  0.4733
 2929SOL     OW19715   0.555   2.416   2.116 -0.3015  0.0880  0.1277
 2929SOL    HW119716   0.484   2.373   2.061 -0.8838  1.2007 -0.0163
 2929SOL    HW219717   0.570   2.510   2.084 -1.0755  0.9702  2.2091
 2930SOL     OW19718   8.849   4.611   5.101 -0.2698  0.9838 -0.1691
 2930SOL    HW119719   8.907   4.631   5.180  0.3968  1.4512 -0.7600
 2930SOL    HW219720   8.753   4.616   5.127 -0.0473  0.6176  0.7288
 2931SOL     OW19721   0.625   2.381   4.271  0.4334  1.1373  0.3869
 2931SOL    HW119722   0.671   2.422   4.192  0.2778  2.0374  0.7490
 2931SOL    HW219723   0.693   2.360   4.342  0.4778  1.0916  0.3307
 2932SOL     OW19724   2.008   3.915   6.584  0.0869 -0.6902 -0.3436
 2932SOL    HW119725   1.944   3.887   6.512  0.3400  0.4906 -1.0348
 2932SOL    HW219726   2.023   4.013   6.579 -0.2991 -0.5020  1.6702
 2933SOL     OW19727   5.584   9.539   1.431 -0.3129 -0.2269 -0.8717
 2933SOL    HW119728   5.548   9.473   1.496  0.9188 -1.1649 -1.1285
 2933SOL    HW219729   5.513   9.563   1.365 -1.4291  0.3653  0.5018
 2934SOL     OW19730   7.380   0.676   5.170 -0.0538 -0.5486  0.0936
 2934SOL    HW119731   7.322   0.743   5.217  0.9123 -1.9710  3.4266
 2934SOL    HW219732   7.322   0.606   5.128 -0.8824 -0.0362  0.3654
 2935SOL     OW19733   7.260   1.742   4.174 -0.2817 -0.0114 -0.2513
 2935SOL    HW119734   7.255   1.805   4.097  0.8738  0.2688 -0.1032
 2935SOL    HW219735   7.208   1.659   4.153 -0.0104  0.0879 -1.3112
 2936SOL     OW19736   9.160   6.013   2.195  0.2217 -0.1935 -0.0790
 2936SOL    HW119737   9.129   5.954   2.270  0.3726  0.9881  0.9187
 2936SOL    HW219738   9.100   6.093   2.189  0.8216  0.2153 -0.5855
 2937SOL     OW19739   9.104   5.369   4.954  0.4777  0.6357  0.1661
 2937SOL    HW119740   9.126   5.287   4.901  1.1266  0.8811  0.0551
 2937SOL    HW219741   9.174   5.438   4.939 -0.4239  1.4629 -0.2679
 2938SOL     OW19742   9.509   7.176   1.686  0.2344 -0.0311 -0.3316
 2938SOL    HW119743   9.428   7.174   1.745  0.2919  1.4074 -0.1761
 2938SOL    HW219744   9.546   7.084   1.677 -1.3101 -0.6716 -0.2479
 2939SOL     OW19745   5.424   4.250   0.120  0.2417  0.5994  0.0658
 2939SOL    HW119746   5.466   4.206   0.040  0.8069 -1.3981  1.4034
 2939SOL    HW219747   5.439   4.348   0.116  1.6045  0.3507 -1.5087
 2940SOL     OW19748   9.438   0.090   1.240  0.2280 -0.0673 -0.3649
 2940SOL    HW119749   9.461   0.164   1.177 -1.8781  0.5089 -0.4958
 2940SOL    HW219750   9.339   0.088   1.254  0.3999 -2.0101  0.6987
 2941SOL     OW19751   0.830   1.327   3.634 -0.1703  0.5354  0.6233
 2941SOL    HW119752   0.772   1.262   3.585  2.8471 -3.4650  2.1081
 2941SOL    HW219753   0.884   1.381   3.569 -1.1583  0.0786 -0.5820
 2942SOL     OW19754   0.146   5.145   3.146 -0.3983 -0.0270 -0.4125
 2942SOL    HW119755   0.216   5.199   3.098 -0.0638  0.7149  0.8887
 2942SOL    HW219756   0.066   5.136   3.087  0.8586 -1.0692 -2.0153
 2943SOL     OW19757   1.535   4.586   1.580  0.5763  0.2370  0.2542
 2943SOL    HW119758   1.489   4.584   1.491 -1.8800 -0.9623  1.4932
 2943SOL    HW219759   1.625   4.543   1.572 -0.1302 -0.9811 -1.3685
 2944SOL     OW19760   9.764   5.927   4.650 -0.0909  0.7102  0.1558
 2944SOL    HW119761   9.782   5.992   4.577  1.6031  1.4563  1.2133
 2944SOL    HW219762   9.848   5.877   4.672 -0.2950  1.2464  2.2991
 2945SOL     OW19763   3.737   3.293   3.156 -0.5310 -0.3109  0.1919
 2945SOL    HW119764   3.662   3.230   3.138 -0.9453  0.9258 -2.5956
 2945SOL    HW219765   3.702   3.376   3.199 -0.8653  0.5078 -1.6379
 2946SOL     OW19766   0.308   8.618   0.575 -0.3532  0.4539  0.0376
 2946SOL    HW119767   0.394   8.665   0.596 -0.4061  0.3910  0.3801
 2946SOL    HW219768   0.239   8.644   0.641 -0.2411 -0.5287  0.5455
 2947SOL     OW19769   9.664   6.748   3.488 -0.4426  0.2936 -0.1292
 2947SOL    HW119770   9.749   6.764   3.439 -0.2271  1.0200  0.4710
 2947SOL    HW219771   9.667   6.658   3.532 -0.8966 -0.6478 -1.9561
 2948SOL     OW19772   1.030   3.891   3.146 -0.7739 -0.1299 -0.1380
 2948SOL    HW119773   0.948   3.887   3.203 -0.9529  0.3546 -0.3581
 2948SOL    HW219774   1.004   3.883   3.050 -0.4354 -1.3965 -0.1396
 2949SOL     OW19775   4.722   9.223   4.898  0.1402 -0.6351  0.0941
 2949SOL    HW119776   4.815   9.253   4.920 -0.6880  2.2817 -0.2135
 2949SOL    HW219777   4.706   9.234   4.800 -1.3174  1.2417  0.5182
 2950SOL     OW19778   3.780   3.315   2.591 -0.4227 -0.1400 -0.5113
 2950SOL    HW119779   3.741   3.342   2.503 -0.7399 -1.2323 -0.7141
 2950SOL    HW219780   3.870   3.275   2.577 -0.7837 -0.9899 -0.4177
 2951SOL     OW19781   9.805   3.638   1.900  0.2520  0.4567 -0.2033
 2951SOL    HW119782   9.784   3.628   1.997  0.2745  1.2535 -0.1123
 2951SOL    HW219783   9.883   3.699   1.889  0.7826 -0.2887 -0.6821
 2952SOL     OW19784   5.255   9.294   4.918  0.2201 -0.2049 -0.7827
 2952SOL    HW119785   5.257   9.350   5.001 -0.0768  0.3623 -1.1549
 2952SOL    HW219786   5.337   9.313   4.863 -0.3528  0.5803 -1.3733
 2953SOL     OW19787   4.081   5.722   0.796  0.2581  0.1988 -0.2737
 2953SOL    HW119788   4.167   5.674   0.780  0.0566  0.9937 -4.2744
 2953SOL    HW219789   4.098   5.818   0.815  0.3120  0.0620  0.3760
 2954SOL     OW19790   1.484   9.677   3.218  0.3406 -0.8916  0.6359
 2954SOL    HW119791   1.442   9.764   3.242  0.3441 -0.5286 -0.6128
 2954SOL    HW219792   1.427   9.602   3.252 -0.1677 -0.3950  0.8862
 2955SOL     OW19793   3.524   4.761   3.150 -0.5356 -0.5209 -0.0038
 2955SOL    HW119794   3.447   4.700   3.130  1.3114 -2.5606 -1.1712
 2955SOL    HW219795   3.570   4.785   3.064  3.1208 -3.4277  1.0014
 2956SOL     OW19796   9.977   1.201   2.422 -0.4147 -0.0937 -0.2143
 2956SOL    HW119797   9.924   1.272   2.375  1.4390  0.2156 -1.8480
 2956SOL    HW219798   9.923   1.117   2.426 -2.3233  1.1358  1.0527
 2957SOL     OW19799   2.709   6.346   2.779 -0.1888 -0.0649 -0.0393
 2957SOL    HW119800   2.659   6.409   2.720  0.5443  0.0194 -0.5858
 2957SOL    HW219801   2.657   6.263   2.791 -0.7391  0.2693 -0.0978
 2958SOL     OW19802   8.438   1.088   0.889 -0.5749  0.3521 -0.3325
 2958SOL    HW119803   8.469   1.101   0.795 -0.6235 -0.8195 -0.5149
 2958SOL    HW219804   8.438   1.176   0.936  0.2412  0.8196 -1.1824
 2959SOL     OW19805   3.960   7.616   1.866  0.2121  0.5432  0.2285
 2959SOL    HW119806   3.921   7.597   1.777  0.0150  0.8996  0.2361
 2959SOL    HW219807   3.908   7.569   1.937  1.9728 -1.9191 -0.0586
 2960SOL     OW19808   3.804   3.416   4.382 -0.3736 -0.3631 -0.0289
 2960SOL    HW119809   3.869   3.393   4.455  1.8346 -1.7749 -2.3560
 2960SOL    HW219810   3.762   3.504   4.402  0.1395 -0.7234  2.9511
 2961SOL     OW19811   4.800   2.485   0.608 -0.3315  0.1618  0.2028
 2961SOL    HW119812   4.891   2.507   0.643 -0.2083 -1.0189  0.6530
 2961SOL    HW219813   4.732   2.543   0.652  0.1069  0.4152  0.5471
 2962SOL     OW19814   9.895   5.305   4.229  0.0474  0.4375  0.6290
 2962SOL    HW119815   9.859   5.398   4.227 -0.8460  0.0891  0.0777
 2962SOL    HW219816   9.878   5.261   4.140  0.6261 -0.1875  0.8231
 2963SOL     OW19817   3.934   0.600   1.969 -0.5454 -0.4395  0.3625
 2963SOL    HW119818   3.972   0.517   1.928  0.7523  0.2498  0.1700
 2963SOL    HW219819   3.906   0.663   1.896 -1.1450 -0.5237  0.5155
 2964SOL     OW19820   8.398   1.620   4.958 -0.4982 -0.3567 -0.0226
 2964SOL    HW119821   8.476   1.683   4.959  0.4037 -1.4543 -0.0545
 2964SOL    HW219822   8.354   1.622   4.868  1.3119 -1.9106 -0.9883
 2965SOL     OW19823   0.801   3.302   2.346 -0.1783 -0.6056 -0.5017
 2965SOL    HW119824   0.775   3.389   2.302  0.4409 -0.3997 -0.4704
 2965SOL    HW219825   0.833   3.321   2.439  0.5270 -0.8003 -0.7051
 2966SOL     OW19826   2.633   6.454   2.488  0.1695 -0.6428 -0.2900
 2966SOL    HW119827   2.619   6.552   2.491 -0.7336 -0.8047  0.8418
 2966SOL    HW219828   2.549   6.409   2.459  0.2785 -1.1583  0.1786
 2967SOL     OW19829   0.577   2.829   5.614 -0.4660 -0.0845  0.2143
 2967SOL    HW119830   0.519   2.749   5.632 -1.3668  0.5672  0.2843
 2967SOL    HW219831   0.531   2.888   5.547 -0.3524  0.9417  1.0321
 2968SOL     OW19832   0.726   0.377   2.561 -0.2449 -0.3968  0.0823
 2968SOL    HW119833   0.704   0.380   2.463 -1.0701  1.1045  0.2996
 2968SOL    HW219834   0.688   0.457   2.606  1.5940 -0.2005  1.3462
 2969SOL     OW19835   6.852   1.397   0.297 -0.2528  0.2311 -0.2111
 2969SOL    HW119836   6.845   1.332   0.372  0.4160  1.7337  1.1931
 2969SOL    HW219837   6.785   1.470   0.310  2.2213  2.3868  0.8609
 2970SOL     OW19838   2.804   4.640   2.947 -0.3051 -0.3873  0.2617
 2970SOL    HW119839   2.885   4.662   2.893 -1.6739 -1.1128 -2.1650
 2970SOL    HW219840   2.809   4.686   3.035  1.9584  0.8925 -0.5018
 2971SOL     OW19841   8.085   9.111   4.493 -0.6228 -0.0113 -0.3250
 2971SOL    HW119842   8.155   9.134   4.425  0.0718 -0.1455  0.3456
 2971SOL    HW219843   8.097   9.017   4.523 -0.7734  0.1312  0.1812
 2972SOL     OW19844   9.251   3.562   1.016  0.8918  0.0648 -0.5972
 2972SOL    HW119845   9.239   3.484   0.955  0.8048  0.8453 -1.6035
 2972SOL    HW219846   9.181   3.632   0.996  0.8467  0.3230  0.4153
 2973SOL     OW19847   0.347   6.329   5.326  0.0566 -0.1889 -0.8014
 2973SOL    HW119848   0.307   6.290   5.244  0.4117 -0.7369 -0.7186
 2973SOL    HW219849   0.427   6.385   5.302  0.6130 -0.9627 -0.7653
 2974SOL     OW19850   9.337   9.277   3.446 -0.3099  0.6228 -0.2938
 2974SOL    HW119851   9.277   9.350   3.478 -1.3215 -0.9190  1.4675
 2974SOL    HW219852   9.328   9.198   3.507  1.3431 -0.6807 -1.6950
 2975SOL     OW19853   8.513   5.205   3.055 -0.2791  0.2081  0.0549
 2975SOL    HW119854   8.553   5.147   3.126 -0.6147 -0.0246  0.0549
 2975SOL    HW219855   8.572   5.285   3.040  0.9587 -0.8669 -0.9667
 2976SOL     OW19856   8.410   3.040   1.459  0.4367  0.3848  0.0519
 2976SOL    HW119857   8.385   2.950   1.424  0.5322 -0.4271  1.9878
 2976SOL    HW219858   8.343   3.107   1.428  0.0395 -0.4521 -0.9398
 2977SOL     OW19859   9.835   4.889   3.061 -0.3825  0.9135  0.1313
 2977SOL    HW119860   9.924   4.887   3.107 -0.8696 -0.5996  1.0510
 2977SOL    HW219861   9.839   4.830   2.980 -0.3893  1.2558 -0.1168
 2978SOL     OW19862   8.554   2.665   1.566  0.4368 -0.0213  0.2384
 2978SOL    HW119863   8.483   2.631   1.505 -0.2258  2.0535 -0.1916
 2978SOL    HW219864   8.640   2.675   1.516  0.6917 -1.2210  0.4199
 2979SOL     OW19865   8.375   2.885   4.387  0.3795 -0.0253  0.0930
 2979SOL    HW119866   8.456   2.838   4.423  1.1020  1.7857  0.9223
 2979SOL    HW219867   8.299   2.871   4.450  0.2345 -1.1223 -0.3120
 2980SOL     OW19868   0.705   7.299   3.841 -0.0416 -0.3328 -0.7013
 2980SOL    HW119869   0.681   7.392   3.867  1.5087 -0.2470  0.4620
 2980SOL    HW219870   0.625   7.240   3.851 -0.3318  0.3490  1.1327
 2981SOL     OW19871   3.739   7.768   2.194  0.1476 -0.0113 -0.4287
 2981SOL    HW119872   3.789   7.684   2.171  0.4989  0.9054 -3.2573
 2981SOL    HW219873   3.786   7.847   2.154 -1.9244  1.1835 -0.5764
 2982SOL     OW19874   6.077   1.768   2.000  1.1498 -0.0645  0.1950
 2982SOL    HW119875   6.071   1.670   1.984  1.8345  0.1604 -1.5568
 2982SOL    HW219876   6.006   1.796   2.065  0.0331 -1.4978 -0.3836
 2983SOL     OW19877   8.749   3.944   0.942  0.2937 -0.3304  0.1018
 2983SOL    HW119878   8.760   3.877   0.869  0.1980  0.8791 -1.0368
 2983SOL    HW219879   8.838   3.962   0.985  0.3901 -0.8537  0.1225
 2984SOL     OW19880   3.861   3.594   3.956 -0.2587 -0.2446  0.1677
 2984SOL    HW119881   3.891   3.553   4.042  0.6954 -0.1421 -0.1030
 2984SOL    HW219882   3.829   3.523   3.894 -0.6192 -0.3560  0.4864
 2985SOL     OW19883   6.018   8.078   1.691 -0.1279  0.3484  0.2309
 2985SOL    HW119884   5.954   8.096   1.766  0.8430  2.3855  0.6074
 2985SOL    HW219885   6.046   8.164   1.649  0.4434 -0.6855 -1.5702
 2986SOL     OW19886   4.451   6.940   4.645  0.6942  0.3797 -0.2189
 2986SOL    HW119887   4.537   6.921   4.597  0.9167 -0.6713  0.5618
 2986SOL    HW219888   4.470   6.989   4.729  0.6059 -0.4486  0.2920
 2987SOL     OW19889   5.823   1.387   3.835 -0.1021 -0.4004 -0.1385
 2987SOL    HW119890   5.858   1.320   3.901  0.8937 -0.5037 -0.7495
 2987SOL    HW219891   5.790   1.467   3.884 -0.7764 -1.1040  0.5700
 2988SOL     OW19892   9.791   7.617   3.484 -0.7239 -0.0776 -0.4811
 2988SOL    HW119893   9.715   7.640   3.545 -0.0249  1.4603 -0.1714
 2988SOL    HW219894   9.865   7.682   3.498 -0.8456  0.7744 -3.5487
 2989SOL     OW19895   0.797   5.919   5.351 -0.0704  0.3891 -0.0376
 2989SOL    HW119896   0.836   5.988   5.411  0.4232 -0.8297  1.0767
 2989SOL    HW219897   0.819   5.941   5.256  1.6865  0.7658  0.4384
 2990SOL     OW19898   0.233   1.810   2.434 -0.3409 -0.6087  0.7098
 2990SOL    HW119899   0.265   1.854   2.518 -0.9271  1.2616 -0.0361
 2990SOL    HW219900   0.169   1.870   2.386 -1.5017 -2.4550 -0.1192
 2991SOL     OW19901   3.486   1.761   3.764  0.5352 -0.0595 -0.1949
 2991SOL    HW119902   3.476   1.804   3.674  0.4744 -1.0061 -0.6500
 2991SOL    HW219903   3.499   1.662   3.752  0.3779 -0.2089  0.8443
 2992SOL     OW19904   7.802   7.408   2.835  0.1754  0.0222  0.0714
 2992SOL    HW119905   7.813   7.392   2.933 -1.1496  0.8305  0.3683
 2992SOL    HW219906   7.835   7.500   2.813 -1.3780  0.6185  0.1366
 2993SOL     OW19907   7.490   1.848   0.103 -0.2887  0.1297 -0.1382
 2993SOL    HW119908   7.576   1.809   0.072 -0.3987 -1.2162  1.1367
 2993SOL    HW219909   7.414   1.791   0.071 -0.7730  1.6360 -1.7612
 2994SOL     OW19910   3.674   8.825   2.449 -0.2573 -0.2703  0.5664
 2994SOL    HW119911   3.601   8.835   2.517 -0.8334 -1.0471  0.0675
 2994SOL    HW219912   3.635   8.824   2.357  0.4014 -0.4746  0.2849
 2995SOL     OW19913   9.900   4.672   2.023  0.2744 -0.3263 -0.1330
 2995SOL    HW119914   9.950   4.618   2.091  0.1296 -0.6990 -0.3222
 2995SOL    HW219915   9.964   4.726   1.970  0.4980 -0.9768 -0.5301
 2996SOL     OW19916   8.207   6.575   0.604 -0.5235  0.0818  0.1551
 2996SOL    HW119917   8.213   6.579   0.704  1.2691 -0.7217  0.0879
 2996SOL    HW219918   8.262   6.648   0.564 -1.1863  0.3641 -0.2582
 2997SOL     OW19919   0.812   2.303   2.424  0.5144  0.5891  0.1276
 2997SOL    HW119920   0.714   2.291   2.406  0.6010  0.7468 -0.4292
 2997SOL    HW219921   0.865   2.243   2.364  0.6915 -0.8973  1.7182
 2998SOL     OW19922   8.750   5.600   2.515 -0.4392 -0.1873 -0.3719
 2998SOL    HW119923   8.751   5.683   2.571 -0.8190 -0.3354 -0.1404
 2998SOL    HW219924   8.834   5.548   2.531 -1.7448 -1.6254  2.1885
 2999SOL     OW19925   3.755   3.018   3.430  0.3079  0.7419  0.5569
 2999SOL    HW119926   3.794   2.975   3.349  1.2616 -0.2914  1.5456
 2999SOL    HW219927   3.665   2.979   3.448  0.7739 -0.1956  0.9061
 3000SOL     OW19928   0.220   9.475   3.964  0.0311  0.6334  0.2353
 3000SOL    HW119929   0.296   9.507   3.908 -1.3550 -0.6313 -2.4495
 3000SOL    HW219930   0.199   9.380   3.942 -1.3179  0.4575  2.0882
 3001SOL     OW19931   3.348   7.167   1.710 -0.2649 -0.0725  0.0331
 3001SOL    HW119932   3.409   7.195   1.784 -0.5343 -0.2953  0.3436
 3001SOL    HW219933   3.271   7.230   1.705 -0.3328 -0.1536  0.0505
 3002SOL     OW19934   9.629   5.634   2.986  0.3123  0.3469  0.0475
 3002SOL    HW119935   9.572   5.716   2.989  1.5981  1.2511  0.5138
 3002SOL    HW219936   9.614   5.579   3.068  1.6480  1.6771  1.2325
 3003SOL     OW19937   9.830   1.719   0.353  0.1630 -0.4290 -0.5364
 3003SOL    HW119938   9.765   1.646   0.376  0.8197 -0.3002  1.8761
 3003SOL    HW219939   9.787   1.808   0.369  1.2059 -0.3434  2.0708
 3004SOL     OW19940   3.377   7.279   2.857  0.0371 -0.7487  0.1996
 3004SOL    HW119941   3.468   7.242   2.876 -0.1947 -0.4763  1.9147
 3004SOL    HW219942   3.308   7.225   2.906 -0.7895 -1.2885 -1.5200
 3005SOL     OW19943   2.679   4.299   6.398  0.1718 -0.1704 -0.6593
 3005SOL    HW119944   2.678   4.266   6.493 -1.6571  0.6235 -0.3654
 3005SOL    HW219945   2.659   4.223   6.336 -1.6563 -0.1253 -0.1614
 3006SOL     OW19946   0.364   5.685   6.550  0.3088  0.3638 -0.6264
 3006SOL    HW119947   0.339   5.693   6.454  0.6977  0.1719 -0.7450
 3006SOL    HW219948   0.416   5.600   6.564  1.5773  1.1533 -0.5273
 3007SOL     OW19949   7.774   6.216   3.013 -0.2942 -0.4326  0.2614
 3007SOL    HW119950   7.727   6.267   3.085 -1.9730  0.4164 -1.3945
 3007SOL    HW219951   7.725   6.132   2.992  0.0267 -0.5368 -0.0909
 3008SOL     OW19952   5.171   6.982   2.118  0.9411  0.1892 -0.4022
 3008SOL    HW119953   5.242   6.967   2.187  0.3442 -0.8914 -0.0045
 3008SOL    HW219954   5.120   7.065   2.140 -0.6288 -1.2596  1.7033
 3009SOL     OW19955   2.668   4.776   4.242 -0.1484 -0.4567 -0.0411
 3009SOL    HW119956   2.704   4.688   4.272  1.0947  0.5377  1.5045
 3009SOL    HW219957   2.581   4.794   4.287  0.3528 -0.2295  0.8677
 3010SOL     OW19958   4.049   7.382   2.670  0.3467  0.7215 -0.1064
 3010SOL    HW119959   3.977   7.380   2.600  3.3312 -0.4440 -3.2554
 3010SOL    HW219960   4.062   7.290   2.706  2.0085  0.4396 -1.4099
 3011SOL     OW19961   8.858   5.736   4.433 -0.1514 -0.9961 -0.2588
 3011SOL    HW119962   8.882   5.767   4.525 -0.0554  1.9992 -1.2310
 3011SOL    HW219963   8.940   5.705   4.386  0.3637  0.4993 -0.3922
 3012SOL     OW19964   8.715   1.716   3.460 -0.4880  0.0107  0.1616
 3012SOL    HW119965   8.656   1.786   3.501  2.9656  2.2460  1.5309
 3012SOL    HW219966   8.701   1.715   3.361 -2.8278  0.4278  0.4532
 3013SOL     OW19967   0.767   2.789   4.207 -0.6643 -0.0137  0.4388
 3013SOL    HW119968   0.707   2.765   4.284  0.6618  1.0360  1.8442
 3013SOL    HW219969   0.838   2.719   4.197 -0.0654  0.5084  1.0103
 3014SOL     OW19970   4.115   5.105   2.958 -0.2103  0.4427 -0.1143
 3014SOL    HW119971   4.191   5.120   3.022 -1.5294  2.7466  0.9599
 3014SOL    HW219972   4.151   5.102   2.864  1.3733  0.1441  0.4902
 3015SOL     OW19973   6.622   7.476   3.370  0.3545  0.0787  0.4411
 3015SOL    HW119974   6.630   7.426   3.456  0.3271 -1.1650 -0.2674
 3015SOL    HW219975   6.660   7.568   3.380 -0.6579  0.3320  2.1001
 3016SOL     OW19976   5.431   7.439   2.053 -0.3098  0.1092 -0.0193
 3016SOL    HW119977   5.408   7.385   1.972 -1.0486 -0.0974  0.3185
 3016SOL    HW219978   5.349   7.486   2.086  0.3228  1.4283 -0.2989
 3017SOL     OW19979   1.204   8.312   3.295  0.1330 -0.0670 -0.3482
 3017SOL    HW119980   1.300   8.286   3.282 -0.0749 -0.6242 -0.8400
 3017SOL    HW219981   1.180   8.383   3.229  0.5512  0.9913  0.6279
 3018SOL     OW19982   0.925   3.718   1.593  0.1119  0.4960  0.3814
 3018SOL    HW119983   1.006   3.718   1.534  1.1041  1.5628  1.7105
 3018SOL    HW219984   0.851   3.766   1.546  0.1799 -0.6570 -0.9301
 3019SOL     OW19985   4.895   0.479   1.218  0.0941  0.2876  0.3072
 3019SOL    HW119986   4.932   0.562   1.261  1.3690  0.1797 -0.5428
 3019SOL    HW219987   4.798   0.471   1.240 -0.1459  2.2038  0.1021
 3020SOL     OW19988   0.856   6.495   0.048  0.3446  0.0132  0.2761
 3020SOL    HW119989   0.803   6.580   0.047  0.0093 -0.1965 -0.2104
 3020SOL    HW219990   0.822   6.434  -0.024  0.6255 -0.5071  0.5826
 3021SOL     OW19991   9.521   3.816   5.272 -0.6354  0.1330  0.3221
 3021SOL    HW119992   9.458   3.893   5.287  1.5541  2.0747 -0.2491
 3021SOL    HW219993   9.475   3.747   5.215 -1.9014  1.9982 -0.9916
 3022SOL     OW19994   9.865   4.954   5.965  0.0117 -0.4540 -0.0688
 3022SOL    HW119995   9.930   5.019   5.927  0.1931 -0.6473 -0.0869
 3022SOL    HW219996   9.847   4.881   5.899 -0.5086 -0.2001 -0.2112
 3023SOL     OW19997   8.881   9.356   4.633 -0.7086 -0.5462 -0.0282
 3023SOL    HW119998   8.790   9.351   4.592 -0.3804  0.8350 -0.9688
 3023SOL    HW219999   8.943   9.296   4.583 -0.6240  0.1133 -0.7306
 3024SOL     OW20000   0.593   2.284   3.807  0.2643  0.1900 -0.0844
 3024SOL    HW120001   0.566   2.380   3.816 -0.9682 -0.1293 -0.2810
 3024SOL    HW220002   0.539   2.241   3.735  1.3868 -0.4455 -0.5552
 3025SOL     OW20003   0.386   6.047   5.667  0.3947 -0.0635 -0.1793
 3025SOL    HW120004   0.423   6.038   5.759  0.9000 -0.6628 -0.4382
 3025SOL    HW220005   0.455   6.083   5.605  0.7338 -1.6841 -0.7740
 3026SOL     OW20006   5.365   2.142   2.930  0.3398 -0.4921 -0.8433
 3026SOL    HW120007   5.267   2.121   2.921 -0.3280  1.5843  1.1120
 3026SOL    HW220008   5.393   2.199   2.853 -1.9203  5.2892  2.2874
 3027SOL     OW20009   3.964   6.435   3.814  0.1127 -0.2731 -0.4466
 3027SOL    HW120010   3.984   6.530   3.840 -0.5123  0.3374 -2.0552
 3027SOL    HW220011   4.011   6.414   3.728 -1.5704 -0.6368 -1.3236
 3028SOL     OW20012   6.983   2.356   2.231  1.1509 -0.1814 -0.4742
 3028SOL    HW120013   6.939   2.312   2.310  0.7107  1.2721  0.1111
 3028SOL    HW220014   6.950   2.450   2.223  1.8625 -0.0384 -1.8768
 3029SOL     OW20015   8.642   5.506   1.119 -0.4175 -0.2711 -0.5297
 3029SOL    HW120016   8.620   5.410   1.135  2.1621 -0.6641  0.9805
 3029SOL    HW220017   8.575   5.564   1.164 -1.6743 -1.3550 -0.9801
 3030SOL     OW20018   4.758   8.841   4.572 -0.6762  0.3318 -0.0544
 3030SOL    HW120019   4.851   8.814   4.547  0.0494  2.7316 -0.1426
 3030SOL    HW220020   4.763   8.913   4.642 -2.4999 -0.6017  1.0500
 3031SOL     OW20021   0.153   2.800   4.268 -0.6698 -0.1824 -0.1569
 3031SOL    HW120022   0.210   2.749   4.204 -0.5154 -1.0407  0.6506
 3031SOL    HW220023   0.211   2.860   4.325 -0.1919 -3.0197  2.4959
 3032SOL     OW20024   1.486   2.433   2.253  0.0852  0.0480 -0.1789
 3032SOL    HW120025   1.493   2.392   2.344  0.0997  2.8352  1.1290
 3032SOL    HW220026   1.407   2.395   2.206 -0.1917 -1.1010  1.1758
 3033SOL     OW20027   2.242   0.397   2.679 -0.0672 -0.2588  0.0298
 3033SOL    HW120028   2.202   0.306   2.666  0.6360 -0.7183  1.0083
 3033SOL    HW220029   2.309   0.394   2.754 -3.0279  1.9324  2.9631
 3034SOL     OW20030   1.124   7.795   5.944 -0.1941  0.5531  0.1858
 3034SOL    HW120031   1.124   7.723   5.874 -1.7746  0.8084 -0.0960
 3034SOL    HW220032   1.211   7.793   5.993  1.1060  0.6615 -2.0647
 3035SOL     OW20033   5.430   1.979   3.926 -0.3320 -0.0617 -0.4099
 3035SOL    HW120034   5.383   1.892   3.944 -0.8206  0.1138 -0.8214
 3035SOL    HW220035   5.378   2.054   3.966  0.2373  0.0199  0.1900
 3036SOL     OW20036   3.462   9.328   1.835  0.3841 -0.1552 -0.3342
 3036SOL    HW120037   3.504   9.312   1.746  0.1232  1.7146 -0.7956
 3036SOL    HW220038   3.516   9.395   1.886 -1.6412  1.7726 -0.6687
 3037SOL     OW20039   5.818   0.299   4.061  0.1824 -0.6026  0.0752
 3037SOL    HW120040   5.889   0.361   4.026 -0.1025 -0.4621 -0.2587
 3037SOL    HW220041   5.859   0.236   4.127  0.2234  0.7434  1.3709
 3038SOL     OW20042   9.234   6.415   1.880  0.4031 -0.4433 -0.1999
 3038SOL    HW120043   9.166   6.445   1.814  0.3783  0.4003  0.1998
 3038SOL    HW220044   9.226   6.317   1.894 -2.7869  0.0719  2.1186
 3039SOL     OW20045   2.183   1.315   2.683 -0.5027 -0.2102  0.1898
 3039SOL    HW120046   2.230   1.378   2.744  1.0366 -1.3090  0.1932
 3039SOL    HW220047   2.183   1.352   2.590 -1.4343  0.7259  0.5526
 3040SOL     OW20048   0.426   9.604   5.080 -0.0165  0.0378 -0.5037
 3040SOL    HW120049   0.337   9.648   5.089  1.1407  2.5710 -0.8947
 3040SOL    HW220050   0.449   9.596   4.983  0.3874 -0.1646 -0.3906
 3041SOL     OW20051   0.688   4.684   1.452  0.2624  0.0565  0.0625
 3041SOL    HW120052   0.768   4.651   1.402 -0.6932 -1.8613 -0.2751
 3041SOL    HW220053   0.717   4.736   1.533  1.8180  1.7353 -1.5419
 3042SOL     OW20054   6.652   0.831   3.535 -0.3253  0.7209  0.1768
 3042SOL    HW120055   6.649   0.749   3.478 -0.1302  1.0887 -0.3667
 3042SOL    HW220056   6.662   0.805   3.631 -2.1017  0.0284  0.2104
 3043SOL     OW20057   2.285   1.405   2.429  0.7841 -0.3726 -0.4025
 3043SOL    HW120058   2.284   1.388   2.331  2.1669 -0.2367 -0.4475
 3043SOL    HW220059   2.288   1.503   2.446 -1.2429 -0.3214 -0.1923
 3044SOL     OW20060   9.743   9.824   4.179 -0.0736 -0.1324 -0.2315
 3044SOL    HW120061   9.807   9.777   4.240  1.0313  1.2205 -0.3419
 3044SOL    HW220062   9.788   9.843   4.092 -0.8616  0.1911 -0.5698
 3045SOL     OW20063   5.690   1.315   1.661  0.1842  0.1385  0.5368
 3045SOL    HW120064   5.658   1.409   1.669 -1.4639 -0.2330 -1.3073
 3045SOL    HW220065   5.759   1.309   1.589  0.3498 -0.0660  0.7094
 3046SOL     OW20066   9.868   9.059   3.701 -0.4383 -0.4948  0.0753
 3046SOL    HW120067   9.898   9.012   3.784  0.5716 -0.1304 -0.0826
 3046SOL    HW220068   9.840   8.991   3.633  1.5650 -0.9195 -0.3651
 3047SOL     OW20069   2.317   5.119   6.723  0.0245 -0.4927 -0.7488
 3047SOL    HW120070   2.352   5.119   6.817 -1.2332 -0.8196 -0.2747
 3047SOL    HW220071   2.389   5.086   6.662  1.6942  2.0352 -0.2379
 3048SOL     OW20072   0.851   0.112   1.838 -0.1022 -0.1641  0.8610
 3048SOL    HW120073   0.802   0.069   1.913  1.6266 -1.1347  1.4596
 3048SOL    HW220074   0.819   0.074   1.751 -1.6383  0.4882  1.1299
 3049SOL     OW20075   6.553   8.347   4.908 -0.7794 -0.2897 -0.1105
 3049SOL    HW120076   6.468   8.337   4.858 -1.5954 -3.1723  1.7327
 3049SOL    HW220077   6.533   8.369   5.004  0.5417 -1.0031  0.3474
 3050SOL     OW20078   9.084   8.315   4.912  0.0200  0.5249  0.0777
 3050SOL    HW120079   9.176   8.321   4.874 -0.2422  1.6950 -0.3885
 3050SOL    HW220080   9.018   8.301   4.838 -0.1500 -0.6737  0.4412
 3051SOL     OW20081   3.086   4.889   4.232  0.4096  0.3117 -0.1934
 3051SOL    HW120082   3.153   4.952   4.192  0.7608  0.8063  1.1484
 3051SOL    HW220083   3.111   4.795   4.209 -0.5647  0.6732 -2.8876
 3052SOL     OW20084   2.951   7.702   3.045  0.0081  0.3698 -0.2171
 3052SOL    HW120085   2.864   7.684   2.999  0.8650  0.2660 -1.8289
 3052SOL    HW220086   2.947   7.792   3.089 -0.0622  1.4693 -2.4084
 3053SOL     OW20087   4.935   0.299   2.146 -0.3606 -0.1618 -0.7220
 3053SOL    HW120088   4.888   0.272   2.061 -1.4734  0.7200 -0.3997
 3053SOL    HW220089   5.011   0.360   2.124 -0.1344 -0.5900 -1.1459
 3054SOL     OW20090   9.052   0.834   5.063 -0.0795 -0.2035  0.2357
 3054SOL    HW120091   9.053   0.934   5.059 -1.3783 -0.2244 -1.1207
 3054SOL    HW220092   9.132   0.798   5.016  0.1051  0.1866  0.2499
 3055SOL     OW20093   6.935   9.794   5.131  0.1122 -0.1897  0.5792
 3055SOL    HW120094   6.881   9.836   5.204 -0.8492  1.3748 -1.0134
 3055SOL    HW220095   7.000   9.729   5.171 -0.4684  0.5736  2.8132
 3056SOL     OW20096   1.942   6.425   6.510 -0.0463 -0.0421 -0.2213
 3056SOL    HW120097   1.935   6.326   6.522  0.5358 -0.1281 -0.5894
 3056SOL    HW220098   2.036   6.454   6.524  0.1123  0.2397 -1.7965
 3057SOL     OW20099   3.731   2.642   4.322  0.0126  0.3032  0.0718
 3057SOL    HW120100   3.702   2.736   4.341  0.4202  0.0576  1.9698
 3057SOL    HW220101   3.656   2.579   4.340  0.4506  0.0555  1.0932
 3058SOL     OW20102   9.754   6.281   5.666  0.1111 -0.0280 -0.1372
 3058SOL    HW120103   9.840   6.279   5.615  0.1134  0.6378 -0.1565
 3058SOL    HW220104   9.708   6.368   5.652 -0.1369 -0.0345  0.5907
 3059SOL     OW20105   0.967   6.249   0.965  0.0586  0.0441  0.2787
 3059SOL    HW120106   0.944   6.233   1.062  0.0867  1.5363  0.5341
 3059SOL    HW220107   1.060   6.215   0.947 -0.4707 -1.5174  0.4297
 3060SOL     OW20108   8.174   1.162   3.391 -0.4944  0.0416 -0.1703
 3060SOL    HW120109   8.179   1.183   3.489  2.8888 -0.8098 -0.0806
 3060SOL    HW220110   8.165   1.248   3.340  0.3208  0.7262  0.7960
 3061SOL     OW20111   5.972   0.206   4.604 -0.5813  0.6599 -0.2473
 3061SOL    HW120112   5.945   0.146   4.529 -0.3296  0.5633 -0.2611
 3061SOL    HW220113   5.996   0.296   4.568  1.9629 -0.1114 -0.5882
 3062SOL     OW20114   9.630   7.823   4.913  0.5197  0.0299  0.2733
 3062SOL    HW120115   9.567   7.899   4.926 -0.8261 -0.4931 -2.8526
 3062SOL    HW220116   9.598   7.765   4.838  3.4652 -1.5696  0.1738
 3063SOL     OW20117   9.186   7.187   3.564  0.2556 -0.3565 -0.1325
 3063SOL    HW120118   9.125   7.120   3.608  1.0683 -0.7359  0.4281
 3063SOL    HW220119   9.165   7.278   3.599  2.9270 -0.9948  3.4202
 3064SOL     OW20120   1.719   2.229   4.058  0.4029 -0.3849 -0.2807
 3064SOL    HW120121   1.673   2.317   4.062 -0.5041 -0.7265 -2.3869
 3064SOL    HW220122   1.817   2.242   4.067  0.1594  0.6762  0.9533
 3065SOL     OW20123   3.929   3.107   4.039 -0.0619 -0.2158  0.0314
 3065SOL    HW120124   3.999   3.051   3.995 -1.3544 -0.4335 -1.8235
 3065SOL    HW220125   3.921   3.194   3.990  0.0122  0.4662  1.2053
 3066SOL     OW20126   8.568   4.494   1.570  0.3689 -0.0991 -0.0629
 3066SOL    HW120127   8.557   4.572   1.509  0.9996  0.4480  0.5010
 3066SOL    HW220128   8.509   4.507   1.651  0.1466 -0.4189 -0.1749
 3067SOL     OW20129   9.110   5.642   2.076 -0.4267 -0.3587  0.2517
 3067SOL    HW120130   9.020   5.642   2.120 -0.2623 -0.7913  0.5998
 3067SOL    HW220131   9.104   5.594   1.988 -0.9854  1.4225 -0.6881
 3068SOL     OW20132   2.203   8.150   0.875 -0.1886 -0.2789  0.3275
 3068SOL    HW120133   2.185   8.068   0.929  0.4336 -1.5214 -1.3161
 3068SOL    HW220134   2.300   8.154   0.852 -0.5865 -0.2775 -1.4717
 3069SOL     OW20135   9.405   2.284   4.052 -0.1560  0.3804 -0.0504
 3069SOL    HW120136   9.373   2.245   3.965 -0.7735 -1.8129  1.1182
 3069SOL    HW220137   9.335   2.269   4.122  0.8274  1.1197  1.0988
 3070SOL     OW20138   1.429   0.396   2.437 -0.1880 -0.6522 -0.1295
 3070SOL    HW120139   1.353   0.423   2.497  0.5425  0.4868  0.2911
 3070SOL    HW220140   1.394   0.383   2.344 -0.6231  1.4785 -0.2892
 3071SOL     OW20141   5.310   9.671   4.487 -0.0708 -0.2472 -0.2874
 3071SOL    HW120142   5.228   9.647   4.436 -0.2538 -1.1391  0.4094
 3071SOL    HW220143   5.348   9.756   4.451 -1.5189  0.3919 -0.3649
 3072SOL     OW20144   9.075   9.769   3.456  0.1389 -0.4080  0.5728
 3072SOL    HW120145   9.140   9.823   3.403 -0.8680  0.7164  0.4441
 3072SOL    HW220146   8.999   9.742   3.397 -0.4582 -0.0641  1.1795
 3073SOL     OW20147   8.607   9.912   1.644 -0.3622  0.1622 -0.1695
 3073SOL    HW120148   8.622   9.873   1.735  1.1291 -1.4255 -1.0941
 3073SOL    HW220149   8.686   9.894   1.585 -0.9562  1.8851 -1.5622
 3074SOL     OW20150   6.730   7.426   4.441  0.0357  0.1221  0.2166
 3074SOL    HW120151   6.707   7.508   4.388 -0.0506 -0.1587 -0.1769
 3074SOL    HW220152   6.828   7.410   4.437 -0.0977 -0.4872 -0.7078
 3075SOL     OW20153   7.537   0.511   2.102  0.4517 -0.1682 -0.2754
 3075SOL    HW120154   7.549   0.417   2.136 -0.3478 -0.5814 -1.1469
 3075SOL    HW220155   7.456   0.551   2.144  1.0847  0.3315  0.5011
 3076SOL     OW20156   6.959   7.760   3.415  0.1209 -0.4096  0.2461
 3076SOL    HW120157   6.997   7.669   3.396  1.7965 -0.0722  1.7628
 3076SOL    HW220158   7.022   7.830   3.379 -0.5268  0.1537  0.2062
 3077SOL     OW20159   1.850   9.154   1.072  0.2070  0.5989  0.3907
 3077SOL    HW120160   1.770   9.172   1.130  1.4371  1.5178  1.8627
 3077SOL    HW220161   1.826   9.088   1.001 -1.2475 -0.9253  2.2411
 3078SOL     OW20162   9.185   3.698   3.756 -0.4534 -0.0611 -0.3346
 3078SOL    HW120163   9.278   3.668   3.733 -0.6627  0.3190 -1.7477
 3078SOL    HW220164   9.185   3.797   3.773 -0.1515 -0.4663  2.2120
 3079SOL     OW20165   8.771   4.378   3.061 -0.1037 -0.2330  1.1396
 3079SOL    HW120166   8.839   4.305   3.048  1.2576  1.4777 -1.6538
 3079SOL    HW220167   8.681   4.344   3.036  0.7224 -0.6197 -1.4615
 3080SOL     OW20168   3.398   8.108   2.916 -0.2970  0.1933  0.0501
 3080SOL    HW120169   3.436   8.157   2.995 -0.9196 -0.7539  0.9488
 3080SOL    HW220170   3.470   8.053   2.873 -0.7707 -2.2931  2.2807
 3081SOL     OW20171   1.174   6.909   3.075  0.6158 -0.0743 -0.0319
 3081SOL    HW120172   1.176   7.002   3.110 -0.9333  0.7318 -2.0307
 3081SOL    HW220173   1.212   6.906   2.982  0.3150 -1.3763 -0.1338
 3082SOL     OW20174   7.739   9.954   5.488  0.3242 -0.8068  0.2183
 3082SOL    HW120175   7.745  10.023   5.561 -0.3745  0.0983 -0.5558
 3082SOL    HW220176   7.643   9.942   5.462  0.8517  1.9348 -3.3859
 3083SOL     OW20177   8.832   0.660   4.694  0.0224  0.4525 -0.5077
 3083SOL    HW120178   8.886   0.582   4.664 -0.7659 -0.3608  0.1863
 3083SOL    HW220179   8.891   0.725   4.743  0.5074 -0.1139 -0.3419
 3084SOL     OW20180   0.425   0.981   1.254  0.0178  0.3675 -0.4359
 3084SOL    HW120181   0.384   0.948   1.339 -0.7070  0.4158 -0.7716
 3084SOL    HW220182   0.388   0.931   1.177 -1.7873  2.5773 -1.0388
 3085SOL     OW20183   9.482   6.282   6.327 -0.0804 -0.1230  0.2914
 3085SOL    HW120184   9.546   6.346   6.285 -0.7055  0.9729  0.9770
 3085SOL    HW220185   9.510   6.263   6.421  1.0766 -2.2348 -0.4628
 3086SOL     OW20186   8.923   6.718   5.887 -0.7345 -0.1261  0.0297
 3086SOL    HW120187   8.855   6.790   5.874 -1.3115 -0.5823  0.4627
 3086SOL    HW220188   9.005   6.757   5.929 -1.9561 -0.1350  2.5077
 3087SOL     OW20189   1.657   5.833   6.244  0.2644 -0.5335 -0.0171
 3087SOL    HW120190   1.734   5.890   6.274  0.9775 -1.1664 -0.6394
 3087SOL    HW220191   1.606   5.882   6.173  1.3962 -1.0233 -1.1836
 3088SOL     OW20192   3.771   8.751   1.135  0.4385  0.0511  0.2330
 3088SOL    HW120193   3.855   8.803   1.149  0.2652  0.6069 -0.7163
 3088SOL    HW220194   3.755   8.690   1.213  1.1315  0.7507  0.9241
 3089SOL     OW20195   1.744   4.784   3.111 -0.6391 -0.1699 -0.2928
 3089SOL    HW120196   1.778   4.709   3.055 -1.4462 -0.7548 -0.0004
 3089SOL    HW220197   1.770   4.767   3.207  2.4993  1.8091 -0.7081
 3090SOL     OW20198   2.860   4.623   5.879  0.2732  0.2609  0.4550
 3090SOL    HW120199   2.794   4.649   5.949  0.5566  0.2981  0.7112
 3090SOL    HW220200   2.926   4.559   5.917  0.5098  0.3874  0.2619
 3091SOL     OW20201   5.150   9.430   2.168  0.3451  0.5249  0.4039
 3091SOL    HW120202   5.108   9.516   2.198  0.5229 -0.0292  2.3253
 3091SOL    HW220203   5.239   9.420   2.213 -0.1729 -1.2059  1.0691
 3092SOL     OW20204   2.274   3.243   6.130  0.1540  0.1355 -0.0165
 3092SOL    HW120205   2.338   3.315   6.157 -1.7215  1.2685  1.4978
 3092SOL    HW220206   2.205   3.230   6.202  0.2211 -2.9198 -0.4189
 3093SOL     OW20207   2.166   5.477   2.026 -0.2415 -0.2199 -0.8980
 3093SOL    HW120208   2.230   5.546   1.991  0.1696 -0.5616 -0.8314
 3093SOL    HW220209   2.082   5.479   1.973 -0.3923  0.6196 -0.6315
 3094SOL     OW20210   8.439   2.071   4.420  0.5124 -0.2523 -0.3059
 3094SOL    HW120211   8.360   2.010   4.415  0.2786  0.0775 -0.6790
 3094SOL    HW220212   8.494   2.048   4.501  0.9714 -1.6056 -0.9840
 3095SOL     OW20213   7.246   7.947   2.933  0.1526  0.4894 -0.4447
 3095SOL    HW120214   7.216   7.852   2.925 -0.3102  0.7250 -1.7714
 3095SOL    HW220215   7.344   7.952   2.915  0.5102  0.0563  1.2987
 3096SOL     OW20216   5.181   4.851   4.392  0.1926  0.3441 -0.0750
 3096SOL    HW120217   5.272   4.885   4.416  0.6390 -0.2333 -0.9091
 3096SOL    HW220218   5.140   4.807   4.471  1.8942 -2.1161 -0.5196
 3097SOL     OW20219   9.945   0.776   1.108 -0.2072  0.3888 -0.3353
 3097SOL    HW120220  10.006   0.807   1.181 -0.1645  0.5076 -0.4220
 3097SOL    HW220221   9.993   0.713   1.048  0.0141  0.9696 -0.7686
 3098SOL     OW20222   1.620   8.903   4.308  0.1103 -0.2113  0.2395
 3098SOL    HW120223   1.636   8.949   4.395  1.4165 -2.2333  1.0993
 3098SOL    HW220224   1.572   8.817   4.324  0.8089 -0.8387 -1.0000
 3099SOL     OW20225   2.950   1.054   1.217  0.1166 -0.5157 -0.3951
 3099SOL    HW120226   3.043   1.018   1.224  0.5739 -0.0103 -3.1931
 3099SOL    HW220227   2.952   1.146   1.178 -1.4888  0.0347  0.7447
 3100SOL     OW20228   6.651   1.993   2.444 -0.4296  0.2431  0.0046
 3100SOL    HW120229   6.640   1.964   2.349  1.7003 -3.4441  0.7612
 3100SOL    HW220230   6.564   2.030   2.477 -0.9548  2.4356 -3.5895
 3101SOL     OW20231   3.740   4.868   6.732 -0.4765  0.4920  0.0551
 3101SOL    HW120232   3.834   4.844   6.708 -0.5690 -0.6982  0.8487
 3101SOL    HW220233   3.740   4.950   6.789  0.1035  0.3388  0.2804
 3102SOL     OW20234   1.538   9.981   1.355 -0.1850 -0.6371  0.6881
 3102SOL    HW120235   1.480   9.914   1.402  0.6973 -1.3143  0.8245
 3102SOL    HW220236   1.572   9.941   1.270 -1.8682  0.6279 -0.5995
 3103SOL     OW20237   3.301   7.813   3.890 -0.3902 -0.1473  0.3111
 3103SOL    HW120238   3.214   7.862   3.888  0.4007  1.2646  0.0009
 3103SOL    HW220239   3.337   7.814   3.983 -0.1340  0.2933  0.2077
 3104SOL     OW20240   1.450   9.299   3.527 -0.3768  0.2203 -0.3520
 3104SOL    HW120241   1.398   9.379   3.556 -0.8109 -0.6180  1.2685
 3104SOL    HW220242   1.532   9.291   3.585 -0.6562 -0.8352 -0.0952
 3105SOL     OW20243   6.255   0.522   2.869 -0.2075 -0.2386  0.7062
 3105SOL    HW120244   6.237   0.619   2.886 -0.6526 -0.1259 -0.3629
 3105SOL    HW220245   6.169   0.473   2.859 -0.0020 -0.9087  2.0475
 3106SOL     OW20246   7.425   8.891   4.707  0.3225  0.4304 -0.1826
 3106SOL    HW120247   7.435   8.933   4.797  0.4653 -0.0328  0.0171
 3106SOL    HW220248   7.496   8.822   4.694 -0.5173 -0.4529 -0.1256
 3107SOL     OW20249   7.655   7.196   4.273  0.1559 -0.1351  0.2201
 3107SOL    HW120250   7.732   7.251   4.303  0.0227  0.5655 -0.6992
 3107SOL    HW220251   7.623   7.139   4.349  2.2586 -1.2467  0.3132
 3108SOL     OW20252   7.787   1.981   0.505  0.0455  0.6614 -0.4370
 3108SOL    HW120253   7.792   1.944   0.597  1.0703  1.3997 -0.1882
 3108SOL    HW220254   7.714   2.050   0.500  0.6778  1.3775  0.1025
 3109SOL     OW20255   4.179   9.728   1.600  0.3286 -0.0741  0.5415
 3109SOL    HW120256   4.254   9.795   1.606 -0.2647  0.6941 -0.4972
 3109SOL    HW220257   4.115   9.757   1.529 -1.3163 -0.3792  1.8850
 3110SOL     OW20258   2.757   6.379   1.889  0.2823  0.7446  0.8275
 3110SOL    HW120259   2.823   6.351   1.958 -1.4549  0.0533  2.2485
 3110SOL    HW220260   2.664   6.374   1.927 -0.6942  0.5390 -1.4941
 3111SOL     OW20261   8.345   4.224   0.454  0.2868  0.3164  0.2999
 3111SOL    HW120262   8.401   4.150   0.491  2.1795  1.8276  0.5759
 3111SOL    HW220263   8.404   4.289   0.405 -1.5873  0.6559 -1.5729
 3112SOL     OW20264   9.826   9.813   2.782  0.0858  0.3675 -0.8084
 3112SOL    HW120265   9.747   9.766   2.742  0.8661 -1.2366 -0.5095
 3112SOL    HW220266   9.896   9.825   2.711  1.1176 -1.6935 -0.1715
 3113SOL     OW20267   3.558   7.285   3.892  0.3164  0.2220  0.0129
 3113SOL    HW120268   3.501   7.304   3.971 -0.8956 -0.9197 -0.5721
 3113SOL    HW220269   3.654   7.278   3.921 -0.2146 -1.0788  1.5462
 3114SOL     OW20270   9.283   1.134   0.628 -0.2093  0.5126  0.3688
 3114SOL    HW120271   9.344   1.121   0.550  1.4181 -0.8175  1.7827
 3114SOL    HW220272   9.235   1.049   0.648  0.1535  0.5382  1.4111
 3115SOL     OW20273   4.768   4.701   4.534 -0.3003 -0.2030 -0.3449
 3115SOL    HW120274   4.681   4.693   4.582 -0.6450  0.9132 -0.7634
 3115SOL    HW220275   4.752   4.731   4.440  0.4309 -1.4782 -0.8941
 3116SOL     OW20276   0.537   2.645   4.716  0.6316 -0.8287 -0.4642
 3116SOL    HW120277   0.482   2.625   4.635 -0.8540  0.2555  0.2576
 3116SOL    HW220278   0.550   2.743   4.724 -0.1101 -0.8514  1.1761
 3117SOL     OW20279   7.527   7.595   4.994 -0.3495 -0.0689  0.0233
 3117SOL    HW120280   7.464   7.668   4.968  0.3855  0.6943  0.3734
 3117SOL    HW220281   7.595   7.631   5.057  0.9091 -0.7049 -0.9665
 3118SOL     OW20282   1.657   0.193   1.669 -0.2271  0.1480 -0.6204
 3118SOL    HW120283   1.572   0.162   1.711  0.7638 -0.3218  1.0505
 3118SOL    HW220284   1.662   0.293   1.673 -0.6434  0.1722 -0.6512
 3119SOL     OW20285   3.824   0.960   3.198 -0.1824  0.6323 -0.1834
 3119SOL    HW120286   3.919   0.977   3.226 -0.1891 -0.5856  0.6370
 3119SOL    HW220287   3.777   0.909   3.270 -1.8822  2.4050  0.0185
 3120SOL     OW20288   7.929   9.808   4.574 -0.6170 -0.1549 -0.2510
 3120SOL    HW120289   8.026   9.796   4.594 -1.0281  0.0236  1.9956
 3120SOL    HW220290   7.919   9.863   4.491  1.2102  0.6676  0.0320
 3121SOL     OW20291   1.078   3.296   2.289 -0.1828  0.2909  0.5261
 3121SOL    HW120292   1.018   3.282   2.369 -4.0058 -1.5212 -2.4862
 3121SOL    HW220293   1.106   3.207   2.254  0.8790  1.0624 -0.5905
 3122SOL     OW20294   3.965   2.574   1.329 -0.6852 -0.4007 -0.2093
 3122SOL    HW120295   3.929   2.659   1.291 -2.0771 -1.8749 -2.2556
 3122SOL    HW220296   4.060   2.588   1.356  0.0263  0.9942 -3.2477
 3123SOL     OW20297   5.061   5.329   1.261  0.1809  0.0357 -0.1860
 3123SOL    HW120298   5.097   5.420   1.241 -1.7248  0.6762 -0.8812
 3123SOL    HW220299   4.966   5.338   1.293  0.9367 -1.4915  2.6317
 3124SOL     OW20300   7.697   9.549   5.301  0.2478  0.3306 -0.2249
 3124SOL    HW120301   7.601   9.577   5.298 -0.2823 -1.5461 -1.9596
 3124SOL    HW220302   7.735   9.573   5.391 -1.6431  1.6736  0.2597
 3125SOL     OW20303   6.291   2.004   2.816  0.0457  0.3502  0.2887
 3125SOL    HW120304   6.390   1.990   2.805 -0.1007  0.5640 -1.3165
 3125SOL    HW220305   6.272   2.102   2.818 -0.4750  0.3539 -2.7529
 3126SOL     OW20306   1.759   0.857   3.687 -0.2519  0.2955 -0.5356
 3126SOL    HW120307   1.721   0.950   3.692  0.6376  0.6510 -0.2970
 3126SOL    HW220308   1.836   0.856   3.624  0.2721 -0.0923  0.0990
 3127SOL     OW20309   8.445   7.135   2.383 -0.5025  0.1411  0.0493
 3127SOL    HW120310   8.386   7.056   2.365 -3.0491  1.8927  0.4166
 3127SOL    HW220311   8.516   7.141   2.312 -1.3336 -1.4791 -0.9424
 3128SOL     OW20312   8.677   2.336   1.656  0.3841  0.4792 -0.3231
 3128SOL    HW120313   8.733   2.268   1.704  1.5934  0.5696 -1.5833
 3128SOL    HW220314   8.641   2.401   1.722  0.9275 -0.1738  0.6344
 3129SOL     OW20315   4.640   3.945   3.508  0.1412 -0.5249  0.1025
 3129SOL    HW120316   4.542   3.939   3.527 -0.4175  0.3724 -2.2416
 3129SOL    HW220317   4.682   4.012   3.570 -0.7598 -0.7530  0.9763
 3130SOL     OW20318   1.143   2.250   1.465  0.2334  0.0436  0.4046
 3130SOL    HW120319   1.200   2.189   1.410 -0.0848 -1.0283  1.2524
 3130SOL    HW220320   1.050   2.216   1.469 -0.1121  0.9542  0.3225
 3131SOL     OW20321   0.645   9.067   1.093 -0.4510  0.1319  0.2628
 3131SOL    HW120322   0.645   9.106   1.185 -0.8695 -0.2305  0.4141
 3131SOL    HW220323   0.722   9.105   1.041  0.1966 -0.1906  0.9827
 3132SOL     OW20324   3.272   2.088   4.510 -0.7635 -0.1083 -0.7506
 3132SOL    HW120325   3.204   2.121   4.575  0.2348  0.2435  0.1421
 3132SOL    HW220326   3.364   2.109   4.544 -0.1717 -1.4499 -1.4445
 3133SOL     OW20327   3.818   4.859   1.812  0.5074 -0.0346  0.5528
 3133SOL    HW120328   3.736   4.880   1.865  0.7141 -0.6046  1.1087
 3133SOL    HW220329   3.797   4.865   1.714 -0.4185 -1.0024  0.6826
 3134SOL     OW20330   5.386   9.948   3.977  0.1403  0.2627 -0.0551
 3134SOL    HW120331   5.418  10.021   4.037  2.0477 -1.6079  1.3234
 3134SOL    HW220332   5.291   9.926   3.999 -0.1309  1.6326  0.1937
 3135SOL     OW20333   0.492   0.655   1.496 -0.2651  0.3171  0.1979
 3135SOL    HW120334   0.421   0.601   1.450 -0.5609  0.6335  0.2809
 3135SOL    HW220335   0.541   0.596   1.561 -0.7620  0.2067  0.4795
 3136SOL     OW20336   3.517   0.192   2.164  0.3508 -0.0438  0.1884
 3136SOL    HW120337   3.447   0.206   2.235  1.2744  0.3439  1.0377
 3136SOL    HW220338   3.608   0.194   2.206  0.9457  0.9111 -1.1223
 3137SOL     OW20339   9.373   6.310   1.439 -0.4048 -0.4024 -0.2978
 3137SOL    HW120340   9.380   6.409   1.447 -0.1596 -0.4873  0.5426
 3137SOL    HW220341   9.428   6.267   1.510  0.4606 -1.1509 -1.4052
 3138SOL     OW20342   3.362   7.566   5.079  0.3904  0.4482 -0.2962
 3138SOL    HW120343   3.264   7.556   5.062  0.3877  2.9559 -2.0968
 3138SOL    HW220344   3.410   7.486   5.045 -1.0496 -1.0353  1.0410
 3139SOL     OW20345   2.933   6.739   4.794 -0.3974 -0.3331  0.5757
 3139SOL    HW120346   3.012   6.783   4.835  0.0012 -0.1069 -0.4060
 3139SOL    HW220347   2.962   6.658   4.742 -0.6242  0.5713 -0.9819
 3140SOL     OW20348   2.227   4.517   5.387  0.2452  0.2310  0.3567
 3140SOL    HW120349   2.135   4.557   5.386  0.4645  0.7442 -1.5118
 3140SOL    HW220350   2.294   4.587   5.411  0.4879  0.7324 -1.6432
 3141SOL     OW20351   0.201   2.383   4.902  0.4026 -0.0273  0.0367
 3141SOL    HW120352   0.131   2.313   4.917  1.1047 -0.7439 -0.0421
 3141SOL    HW220353   0.291   2.346   4.922  0.9971  0.1678 -2.1586
 3142SOL     OW20354   5.226   7.718   5.737 -0.1371 -0.0223 -0.0896
 3142SOL    HW120355   5.133   7.687   5.760 -0.6187  0.2055 -1.6640
 3142SOL    HW220356   5.283   7.640   5.714  0.0544 -0.1577  0.8202
 3143SOL     OW20357   3.895   1.982   3.283  0.3453 -0.8309 -0.0779
 3143SOL    HW120358   3.874   1.885   3.278 -0.9797 -0.5434 -0.4257
 3143SOL    HW220359   3.993   1.997   3.268  0.7325 -2.1919  1.0697
 3144SOL     OW20360   3.281   6.614   6.380  0.3548  0.3122 -0.3773
 3144SOL    HW120361   3.190   6.578   6.401  1.5340 -4.3007 -2.5334
 3144SOL    HW220362   3.316   6.665   6.459 -2.8065 -0.5223  1.6562
 3145SOL     OW20363   2.999   7.987   1.305 -0.3391 -0.6918  0.3875
 3145SOL    HW120364   3.096   7.962   1.303 -0.2144 -0.2592  0.9507
 3145SOL    HW220365   2.968   7.995   1.400 -0.3879  1.2218  0.2287
 3146SOL     OW20366   5.454   7.832   1.811  0.1257  0.4345  0.0435
 3146SOL    HW120367   5.469   7.733   1.818 -0.9891  0.2976  0.6239
 3146SOL    HW220368   5.523   7.880   1.865  1.4479  0.0396 -1.2473
 3147SOL     OW20369   9.311   3.730   1.428  0.5924 -0.2078  0.8597
 3147SOL    HW120370   9.227   3.675   1.425  1.4387 -1.4698 -1.1717
 3147SOL    HW220371   9.295   3.819   1.386  0.0411 -0.1125  1.2756
 3148SOL     OW20372   7.121   2.373   1.928  0.1997  0.2773 -0.0003
 3148SOL    HW120373   7.143   2.469   1.913 -1.3665  0.7856  0.7743
 3148SOL    HW220374   7.065   2.365   2.011  0.3359 -1.3071 -0.0479
 3149SOL     OW20375   2.081   4.159   6.577  0.0189  0.0867  0.0962
 3149SOL    HW120376   2.108   4.238   6.632 -2.2287  0.7322  0.3244
 3149SOL    HW220377   2.139   4.153   6.496  0.3665  1.8481  0.2008
 3150SOL     OW20378   9.218   5.489   3.619 -0.1990 -0.7925 -0.0414
 3150SOL    HW120379   9.314   5.497   3.590 -0.6081  1.5248 -0.8960
 3150SOL    HW220380   9.160   5.474   3.539 -0.6487 -1.1596  0.3555
 3151SOL     OW20381   1.470   6.032   5.102  0.2211 -0.1206 -0.4494
 3151SOL    HW120382   1.545   5.968   5.119  0.6224  0.3205 -0.5510
 3151SOL    HW220383   1.462   6.096   5.179  0.4246  0.2918 -0.7646
 3152SOL     OW20384   3.195   8.952   3.617  0.2728  0.0774 -0.0603
 3152SOL    HW120385   3.281   8.970   3.570 -0.6674  1.0592 -1.4068
 3152SOL    HW220386   3.122   9.008   3.578 -0.1732  2.3350  3.7550
 3153SOL     OW20387   3.595   0.696   2.468  0.8361 -0.4011 -0.0744
 3153SOL    HW120388   3.622   0.763   2.538 -0.2646 -0.6999  0.6476
 3153SOL    HW220389   3.539   0.742   2.398 -0.0633 -0.5839  0.5117
 3154SOL     OW20390   3.440   4.662   3.966  0.1274 -0.0901  0.6286
 3154SOL    HW120391   3.350   4.704   3.960 -0.6060 -1.4443  1.8259
 3154SOL    HW220392   3.436   4.569   3.930  0.9166 -0.3527  1.1939
 3155SOL     OW20393   9.668   7.169   6.728 -0.0221  0.1820  0.0927
 3155SOL    HW120394   9.644   7.143   6.822 -0.2461  2.0373  0.5728
 3155SOL    HW220395   9.765   7.193   6.724 -0.1134  0.5313 -0.0507
 3156SOL     OW20396   4.168   9.066   4.038  0.0049 -0.3688  0.0710
 3156SOL    HW120397   4.116   8.989   4.074  0.4959 -0.5237  0.4587
 3156SOL    HW220398   4.260   9.066   4.079 -0.4327  1.2046  1.0734
 3157SOL     OW20399   8.354   1.170   2.742 -0.1497 -0.4079 -0.3815
 3157SOL    HW120400   8.445   1.138   2.716  1.7310  0.9823  3.9478
 3157SOL    HW220401   8.299   1.093   2.774  1.3545 -0.5931  1.8634
 3158SOL     OW20402   7.993   1.878   2.972 -0.2713 -0.3582 -0.0829
 3158SOL    HW120403   8.035   1.793   3.004  0.4426  0.8819  2.4465
 3158SOL    HW220404   7.893   1.868   2.975 -0.1996 -0.8901  0.8398
 3159SOL     OW20405   9.647   9.055   1.669  0.1327  0.5741  0.0381
 3159SOL    HW120406   9.712   8.986   1.637  0.4646  0.2755  1.3378
 3159SOL    HW220407   9.697   9.135   1.702 -0.2363  1.2752 -1.0369
 3160SOL     OW20408   7.994   1.192   6.674 -0.2961 -0.3230  0.1407
 3160SOL    HW120409   7.986   1.137   6.757 -1.7575  0.3782  0.4859
 3160SOL    HW220410   7.909   1.242   6.660  0.1180 -0.0822 -1.5366
 3161SOL     OW20411   2.237   5.531   1.035 -0.2039  0.4445 -0.0436
 3161SOL    HW120412   2.337   5.531   1.044 -0.3233  1.3282  1.4807
 3161SOL    HW220413   2.198   5.602   1.094 -1.6214  1.3701 -2.0355
 3162SOL     OW20414   0.702   5.546   3.506  0.3081 -0.4738 -0.5787
 3162SOL    HW120415   0.667   5.469   3.453  1.6212 -0.7860 -1.0184
 3162SOL    HW220416   0.675   5.537   3.601 -1.5602 -0.2343 -1.0675
 3163SOL     OW20417   3.253   7.099   0.715 -0.5241 -0.3109 -0.3600
 3163SOL    HW120418   3.325   7.030   0.709 -1.8106 -1.5793 -1.5897
 3163SOL    HW220419   3.289   7.188   0.687  0.3603 -1.0771 -1.6745
 3164SOL     OW20420   8.759   5.528   3.430  0.0505 -0.4140 -0.3950
 3164SOL    HW120421   8.815   5.525   3.347 -0.3717  2.0640 -0.7910
 3164SOL    HW220422   8.816   5.549   3.509 -0.2737  2.2118 -0.8129
 3165SOL     OW20423   7.744   7.625   3.980  0.1770  0.1497 -0.2067
 3165SOL    HW120424   7.793   7.567   4.045 -1.3158 -0.7346  0.1375
 3165SOL    HW220425   7.657   7.583   3.955  0.8917  0.2799 -3.1198
 3166SOL     OW20426   2.979   8.738   3.939 -0.2102 -0.1989  0.2756
 3166SOL    HW120427   2.939   8.654   3.903 -0.7621  0.0480  0.3158
 3166SOL    HW220428   3.073   8.720   3.968 -0.5707 -0.9779  0.9680
 3167SOL     OW20429   7.260   0.893   2.928  0.2239 -0.5824  1.1707
 3167SOL    HW120430   7.256   0.992   2.941  1.4978 -0.5285  1.1893
 3167SOL    HW220431   7.255   0.847   3.016 -1.8702 -0.5979  1.0636
 3168SOL     OW20432   0.416   0.939   1.976 -0.2161 -0.1137 -0.9654
 3168SOL    HW120433   0.350   1.014   1.969  1.6930  1.8565  1.2378
 3168SOL    HW220434   0.481   0.945   1.900  1.0836  1.6637  0.2600
 3169SOL     OW20435   0.207   2.888   5.829  0.0665 -0.7374 -0.2540
 3169SOL    HW120436   0.250   2.964   5.879 -1.0365 -0.9326  1.0503
 3169SOL    HW220437   0.115   2.916   5.799 -0.3214 -1.5219  0.1779
 3170SOL     OW20438   3.801   6.673   3.342 -0.0626  0.6928  0.1607
 3170SOL    HW120439   3.813   6.574   3.335  1.1923  0.9399 -1.6145
 3170SOL    HW220440   3.824   6.703   3.435  0.0794 -0.6164  0.5571
 3171SOL     OW20441   0.409   9.074   3.881 -0.3694  0.0539  0.1793
 3171SOL    HW120442   0.321   9.112   3.912 -1.1183 -1.1048 -0.4987
 3171SOL    HW220443   0.436   9.120   3.796 -0.1359  0.6556  0.5717
 3172SOL     OW20444   5.298   9.305   4.554 -1.0084 -0.1813  0.3107
 3172SOL    HW120445   5.366   9.330   4.623  0.0451 -1.0242 -0.4127
 3172SOL    HW220446   5.210   9.288   4.598 -0.4947 -0.0927  1.3694
 3173SOL     OW20447   6.702   8.056   3.229  0.1813 -0.3889  0.2525
 3173SOL    HW120448   6.635   8.111   3.179  0.4077 -0.9182 -0.6331
 3173SOL    HW220449   6.660   7.970   3.257  0.0379 -0.0728  1.0407
 3174SOL     OW20450   8.844   4.553   5.702 -0.0144  0.3235  0.3789
 3174SOL    HW120451   8.830   4.474   5.762  0.5342  1.2326  1.7219
 3174SOL    HW220452   8.942   4.571   5.693 -0.1759  1.4981  0.9403
 3175SOL     OW20453   1.823   7.935   0.586  0.1323 -0.0803 -0.0962
 3175SOL    HW120454   1.817   7.874   0.507 -0.1561 -0.8302  0.4963
 3175SOL    HW220455   1.913   7.979   0.586  0.3946 -0.5977 -0.4671
 3176SOL     OW20456   0.756   4.013   6.571 -0.7242  0.7633 -0.3544
 3176SOL    HW120457   0.773   4.102   6.614 -0.0513  0.1152  0.7567
 3176SOL    HW220458   0.757   4.023   6.472  0.3399  1.8197 -0.2475
 3177SOL     OW20459   8.156   9.000   3.240  0.0746  0.3730  0.0887
 3177SOL    HW120460   8.194   8.989   3.148 -1.5069  0.6936 -0.6140
 3177SOL    HW220461   8.140   8.910   3.280  1.0903  0.2347  0.1926
 3178SOL     OW20462   0.492   8.092   3.782  0.1407  0.1145 -0.1934
 3178SOL    HW120463   0.466   8.005   3.823  2.0579  0.2558  1.3684
 3178SOL    HW220464   0.570   8.079   3.721  0.9545  0.8421  0.6675
 3179SOL     OW20465   2.265   6.212   0.850 -0.1170  0.0330  0.2504
 3179SOL    HW120466   2.318   6.156   0.786  0.2442 -0.7165  1.1984
 3179SOL    HW220467   2.246   6.301   0.808  0.2980 -0.3704 -0.8149
 3180SOL     OW20468   4.775   2.023   3.606 -0.4132  0.3493 -0.4572
 3180SOL    HW120469   4.869   1.989   3.602 -0.4260  0.2032  0.3190
 3180SOL    HW220470   4.714   1.950   3.638 -0.4293  1.0936  1.3097
 3181SOL     OW20471   2.922   6.030   0.005  0.3372 -0.3906  0.0835
 3181SOL    HW120472   2.959   5.985   0.086  1.8552  0.9472  0.1639
 3181SOL    HW220473   2.884   5.961  -0.057  0.6084 -1.5642  1.2107
 3182SOL     OW20474   0.533   9.678   3.194 -0.3515  0.1438 -0.5082
 3182SOL    HW120475   0.587   9.758   3.167  0.8221 -0.0697  1.1024
 3182SOL    HW220476   0.546   9.661   3.292 -3.0316 -0.1844 -0.1872
 3183SOL     OW20477   1.818   4.760   0.377 -0.8365  0.2268 -0.3810
 3183SOL    HW120478   1.772   4.833   0.326 -0.1333  1.3643  0.5895
 3183SOL    HW220479   1.841   4.686   0.314  2.1257  2.6120 -2.2600
 3184SOL     OW20480   9.169   4.716   1.731  0.2379  0.4638  1.1408
 3184SOL    HW120481   9.117   4.792   1.691  0.4846  0.0816  0.0842
 3184SOL    HW220482   9.247   4.753   1.781  2.0093  0.8131 -1.7536
 3185SOL     OW20483   0.757   8.190   1.940 -0.6020 -0.1152 -0.2680
 3185SOL    HW120484   0.693   8.193   2.017 -0.6853  0.9295 -0.3757
 3185SOL    HW220485   0.807   8.104   1.943 -0.5392 -0.0472  1.0097
 3186SOL     OW20486   8.683   2.135   1.215  0.2364  0.0896  0.2183
 3186SOL    HW120487   8.675   2.155   1.117 -2.8902 -0.5251  0.3062
 3186SOL    HW220488   8.714   2.041   1.227 -0.7839 -0.3098 -0.2003
 3187SOL     OW20489   3.660   1.271   1.880 -0.4236 -0.3456 -0.8538
 3187SOL    HW120490   3.729   1.218   1.830 -1.0032 -1.3011 -0.6495
 3187SOL    HW220491   3.607   1.210   1.938 -1.0638  0.4752 -0.5718
 3188SOL     OW20492   6.454   9.556   5.577 -0.2274  0.4185 -0.3994
 3188SOL    HW120493   6.441   9.462   5.547 -0.8686  1.2552 -2.8652
 3188SOL    HW220494   6.512   9.557   5.658 -0.1312 -2.0859 -0.3923
 3189SOL     OW20495   9.413   8.529   2.873 -0.0234  0.4382  0.2661
 3189SOL    HW120496   9.323   8.503   2.840 -0.2295 -1.0529  1.8819
 3189SOL    HW220497   9.405   8.607   2.936 -0.3309 -0.2996  1.1612
 3190SOL     OW20498   4.350   9.924   1.866 -0.1780  0.2609  0.8973
 3190SOL    HW120499   4.359   9.914   1.767  0.6903  0.1684  0.9775
 3190SOL    HW220500   4.407  10.000   1.897 -2.1924  1.7385  1.0426
 3191SOL     OW20501   9.927   2.153   2.718  0.2533  0.4598  0.2079
 3191SOL    HW120502   9.853   2.087   2.708 -0.2997  1.0417  0.4323
 3191SOL    HW220503  10.007   2.122   2.665 -0.8415  0.8364 -1.7250
 3192SOL     OW20504   9.263   4.324   2.760  0.4523 -0.0313 -0.2464
 3192SOL    HW120505   9.266   4.420   2.788 -2.5160 -0.1801  0.8236
 3192SOL    HW220506   9.200   4.314   2.684 -0.2714 -1.3134  0.5132
 3193SOL     OW20507   0.290   6.966   0.241  0.6316  0.0356 -0.5708
 3193SOL    HW120508   0.346   7.032   0.293 -1.0183 -1.0634  2.7126
 3193SOL    HW220509   0.323   6.874   0.259 -0.0089 -0.3768 -1.5058
 3194SOL     OW20510   1.582   8.272   5.549 -0.1333  0.1701  0.2990
 3194SOL    HW120511   1.537   8.259   5.638  0.6658  0.0645  0.7000
 3194SOL    HW220512   1.640   8.354   5.554 -1.9849  1.5941 -0.9114
 3195SOL     OW20513   2.114   3.827   5.733 -0.1688 -0.3133 -0.2871
 3195SOL    HW120514   2.064   3.776   5.803  0.6128 -0.3267  0.2683
 3195SOL    HW220515   2.051   3.855   5.661 -1.0995  0.1790  0.6928
 3196SOL     OW20516   1.338   9.396   4.089  0.2611  0.1509  0.0224
 3196SOL    HW120517   1.388   9.423   4.006  0.0114  0.5382 -0.0068
 3196SOL    HW220518   1.244   9.372   4.064  0.1161  0.5052  0.2233
 3197SOL     OW20519   0.665   2.080   3.969 -0.3033  0.5919  0.0991
 3197SOL    HW120520   0.573   2.054   3.998  0.4867 -1.7283  0.5959
 3197SOL    HW220521   0.659   2.150   3.898 -2.4562  0.2911 -0.0322
 3198SOL     OW20522   1.553   9.250   3.280 -0.3347  0.1632  0.2073
 3198SOL    HW120523   1.532   9.281   3.373  1.3678 -2.2281  1.4530
 3198SOL    HW220524   1.650   9.262   3.262 -0.0268 -2.4291 -0.0254
 3199SOL     OW20525   6.029   1.570   4.139  0.5656 -0.4945 -0.1678
 3199SOL    HW120526   5.957   1.639   4.147  0.9279 -0.3250  1.9106
 3199SOL    HW220527   6.040   1.545   4.043 -0.4619  1.3838 -0.8122
 3200SOL     OW20528   7.103   3.384   0.636 -0.2032 -0.3405 -0.6077
 3200SOL    HW120529   7.048   3.460   0.668  1.0906  0.5785 -0.5294
 3200SOL    HW220530   7.077   3.300   0.684  0.5783  0.6873  1.6663
 3201SOL     OW20531   1.858   6.331   1.097 -0.3445  0.0110  0.5533
 3201SOL    HW120532   1.929   6.397   1.121  1.3577 -1.6798  0.3393
 3201SOL    HW220533   1.817   6.295   1.181 -1.3834  1.4262  0.6661
 3202SOL     OW20534   7.635   0.194   2.210 -1.2333  0.3233 -0.0462
 3202SOL    HW120535   7.634   0.254   2.290 -1.5368  0.2422  0.0131
 3202SOL    HW220536   7.634   0.098   2.240 -0.6049  0.2831 -0.1383
 3203SOL     OW20537   4.744   2.692   2.598  0.0041 -0.5440 -0.1485
 3203SOL    HW120538   4.727   2.642   2.683 -0.5945  1.6440  1.0688
 3203SOL    HW220539   4.674   2.669   2.531 -1.2833 -0.0309  0.9939
 3204SOL     OW20540   7.597   1.511   4.289  0.6278 -0.3436  0.2394
 3204SOL    HW120541   7.540   1.431   4.310  0.1907 -0.0381  0.2230
 3204SOL    HW220542   7.596   1.574   4.366  0.1982  0.0955 -0.1190
 3205SOL     OW20543   6.142   1.242   3.189 -0.4523 -0.3348 -0.0260
 3205SOL    HW120544   6.073   1.175   3.161  0.5101 -1.0657 -0.7114
 3205SOL    HW220545   6.156   1.308   3.115 -0.8733  0.1892  0.3610
 3206SOL     OW20546   9.431   8.117   1.393  0.1897  0.0151  0.4632
 3206SOL    HW120547   9.425   8.214   1.372 -0.4275 -0.0826  0.2080
 3206SOL    HW220548   9.394   8.063   1.318 -1.3140 -0.3556  1.4581
 3207SOL     OW20549   1.859   5.785   0.430  0.0415  0.1090  0.4784
 3207SOL    HW120550   1.777   5.833   0.398 -0.8331 -0.5206  1.7360
 3207SOL    HW220551   1.852   5.688   0.405  0.6550  0.1565  0.1193
 3208SOL     OW20552   4.507   7.422   1.929 -0.1763  0.2148 -0.2321
 3208SOL    HW120553   4.534   7.378   2.014  0.0900  1.5299  0.3802
 3208SOL    HW220554   4.539   7.517   1.929 -1.0265  0.5146 -1.3699
 3209SOL     OW20555   0.540   7.315   2.646 -0.0835 -0.3725  0.3655
 3209SOL    HW120556   0.619   7.371   2.621 -0.4239  0.3667  0.9297
 3209SOL    HW220557   0.456   7.356   2.609 -0.2555 -0.8965  0.1728
 3210SOL     OW20558   0.019   6.737   5.396  0.3471 -0.5238 -0.1045
 3210SOL    HW120559   0.061   6.822   5.365  1.0118 -1.0472 -0.6558
 3210SOL    HW220560  -0.022   6.751   5.487  1.8265 -0.0482  0.4973
 3211SOL     OW20561   4.818   7.115   4.029  0.0184 -1.0864 -0.1378
 3211SOL    HW120562   4.823   7.016   4.030 -1.5583 -1.1788 -0.2423
 3211SOL    HW220563   4.780   7.146   3.942  1.6032 -0.3224 -0.5783
 3212SOL     OW20564   9.805   4.990   1.065 -0.2073 -0.4001 -0.6381
 3212SOL    HW120565   9.891   5.027   1.099 -0.0741  0.6546 -2.0430
 3212SOL    HW220566   9.756   4.945   1.139  0.6974  0.6230  0.6022
 3213SOL     OW20567   1.322   6.358   1.176 -0.0074  0.7778 -0.3801
 3213SOL    HW120568   1.251   6.298   1.140  0.7977 -0.3977 -0.0164
 3213SOL    HW220569   1.294   6.453   1.162 -1.5534  0.3375 -0.4361
 3214SOL     OW20570   1.878   7.489   0.323  0.0476 -0.3612 -0.1719
 3214SOL    HW120571   1.973   7.480   0.293  0.5734  0.4590  1.2313
 3214SOL    HW220572   1.855   7.586   0.334 -0.2661 -0.6272  1.6364
 3215SOL     OW20573   1.777   8.522   4.963  0.0976  0.3719 -0.0469
 3215SOL    HW120574   1.782   8.619   4.986 -1.0076  0.1170  1.2982
 3215SOL    HW220575   1.849   8.500   4.897 -1.0834  2.5813 -2.1579
 3216SOL     OW20576   2.673   5.746   4.750  0.1171 -0.9877 -0.0543
 3216SOL    HW120577   2.702   5.808   4.677  0.6266 -0.1862  0.8164
 3216SOL    HW220578   2.621   5.671   4.711 -2.0648  0.9241 -0.9246
 3217SOL     OW20579   0.005   7.541   0.383  0.3270  0.6246  0.6707
 3217SOL    HW120580   0.009   7.614   0.314  3.0750 -2.0728 -2.1626
 3217SOL    HW220581   0.096   7.530   0.423  0.4732 -2.6154 -0.4620
 3218SOL     OW20582   2.543   4.939   2.230  0.3790  0.1827  0.1664
 3218SOL    HW120583   2.564   4.842   2.221  0.5174  0.1087  1.1942
 3218SOL    HW220584   2.534   4.962   2.327  1.1241  1.3575 -0.0372
 3219SOL     OW20585   1.150   3.240   6.572 -0.2946  0.0455 -0.4410
 3219SOL    HW120586   1.160   3.261   6.475 -1.7549  2.0601 -0.1856
 3219SOL    HW220587   1.062   3.195   6.587  1.1656 -2.9283 -0.4259
 3220SOL     OW20588   9.071   0.690   2.789 -0.5875 -0.3272  0.1924
 3220SOL    HW120589   9.023   0.736   2.714  0.3348 -0.0444 -0.2302
 3220SOL    HW220590   9.107   0.603   2.756 -0.1618 -0.1939  0.3053
 3221SOL     OW20591   1.613   6.030   2.337 -0.0811  1.5671 -0.3318
 3221SOL    HW120592   1.563   5.977   2.269  0.4539 -0.8103  1.0743
 3221SOL    HW220593   1.626   5.974   2.419  1.6996  3.4296  0.6796
 3222SOL     OW20594   3.955   5.235   1.721  0.0211  0.1466 -0.1112
 3222SOL    HW120595   4.017   5.288   1.662  1.8499  0.2404  1.8538
 3222SOL    HW220596   4.008   5.178   1.782 -1.8669 -0.1264  1.3147
 3223SOL     OW20597   4.639   3.653   2.971 -0.2632  0.4154 -0.3808
 3223SOL    HW120598   4.681   3.744   2.968  1.6718 -0.4469 -0.1440
 3223SOL    HW220599   4.676   3.602   3.048 -1.2321 -0.6502 -0.6065
 3224SOL     OW20600   3.850   4.889   3.218  1.1878 -0.4469  0.4589
 3224SOL    HW120601   3.820   4.980   3.248  1.9787 -0.1328  0.3164
 3224SOL    HW220602   3.818   4.873   3.125  0.6327 -0.5123  0.6604
 3225SOL     OW20603   1.455   9.392   1.877 -0.0015 -0.1732  0.8893
 3225SOL    HW120604   1.538   9.393   1.821  0.8381 -0.5341  2.1188
 3225SOL    HW220605   1.430   9.298   1.896 -0.0082 -0.0380  1.5365
 3226SOL     OW20606   0.042   8.428   4.900  0.3624  0.2941 -0.1344
 3226SOL    HW120607  -0.009   8.456   4.982 -2.0199  0.1498 -1.5248
 3226SOL    HW220608   0.005   8.342   4.865  1.8421 -0.0256 -0.9636
 3227SOL     OW20609   3.181   8.882   3.195 -0.2067  0.0040 -0.2498
 3227SOL    HW120610   3.122   8.873   3.275 -0.7125  0.3444 -0.5812
 3227SOL    HW220611   3.132   8.930   3.122  0.0406 -0.8321 -0.9796
 3228SOL     OW20612   4.068   0.639   4.135  0.0428 -0.2644 -0.4475
 3228SOL    HW120613   4.086   0.737   4.123 -1.0692 -0.1710 -1.4774
 3228SOL    HW220614   4.049   0.599   4.045  0.5569 -1.4436 -0.0324
 3229SOL     OW20615   0.335   6.105   1.817  0.0228  0.0602  0.1408
 3229SOL    HW120616   0.278   6.081   1.738 -2.9730  0.4351  2.0933
 3229SOL    HW220617   0.378   6.023   1.853 -0.7244 -0.5268 -0.2858
 3230SOL     OW20618   8.819   0.949   0.458 -0.1227  0.3170  0.1442
 3230SOL    HW120619   8.827   1.042   0.421  1.3952  0.5959  1.1285
 3230SOL    HW220620   8.867   0.885   0.398  0.7160  0.4946  0.6202
 3231SOL     OW20621   4.377   8.385   2.944  0.0550 -0.0018 -0.0163
 3231SOL    HW120622   4.401   8.470   2.896  1.7651 -0.4712 -0.0405
 3231SOL    HW220623   4.446   8.367   3.014  0.1664 -1.8302 -0.5873
 3232SOL     OW20624   4.255   2.143   2.850  0.1829 -0.2164  0.3307
 3232SOL    HW120625   4.325   2.173   2.914  1.4873 -1.6570 -0.4009
 3232SOL    HW220626   4.198   2.073   2.894  0.0100  0.0142  0.4784
 3233SOL     OW20627   9.501   6.484   3.541  0.2155 -0.6811 -0.4966
 3233SOL    HW120628   9.402   6.496   3.532 -0.0660 -1.4777  1.2109
 3233SOL    HW220629   9.538   6.445   3.457 -1.0254 -0.9703 -0.9187
 3234SOL     OW20630   3.843   3.536   5.122  0.4578 -0.3107 -0.2550
 3234SOL    HW120631   3.823   3.454   5.177  0.9269 -0.7224 -0.6873
 3234SOL    HW220632   3.769   3.550   5.056 -0.2651  0.3704  0.6894
 3235SOL     OW20633   7.933   1.492   4.440 -0.1214  0.1015 -0.0026
 3235SOL    HW120634   7.916   1.496   4.342  1.2051  2.3217 -0.1661
 3235SOL    HW220635   7.887   1.568   4.485  1.9360  0.9652  0.6797
 3236SOL     OW20636   1.373   6.975   6.620  0.6303 -0.5417  0.4726
 3236SOL    HW120637   1.390   7.015   6.710 -1.5616  0.0571  0.6445
 3236SOL    HW220638   1.333   6.884   6.631 -0.3958 -0.1420  0.1314
 3237SOL     OW20639   3.332   0.504   0.902 -0.3744 -0.1840 -0.5949
 3237SOL    HW120640   3.355   0.469   0.993 -0.5144  0.5232 -0.2819
 3237SOL    HW220641   3.233   0.505   0.892 -0.3657 -0.0577 -0.6696
 3238SOL     OW20642   7.796   2.767   2.968 -0.1025  0.2738 -0.1433
 3238SOL    HW120643   7.804   2.767   3.067 -0.1625  2.1897 -0.1287
 3238SOL    HW220644   7.834   2.852   2.931  0.7668 -0.8079 -1.8348
 3239SOL     OW20645   8.843   1.422   6.637 -0.2370  0.3547 -0.4541
 3239SOL    HW120646   8.821   1.335   6.681  0.3489 -0.1324 -1.1158
 3239SOL    HW220647   8.942   1.436   6.636 -0.3344  1.0984 -0.2225
 3240SOL     OW20648   5.743   0.015   1.713  0.1345  0.1623 -0.0367
 3240SOL    HW120649   5.782  -0.016   1.626 -2.5615  1.5241 -1.7702
 3240SOL    HW220650   5.684  -0.056   1.750 -0.1004  0.2731 -0.1989
 3241SOL     OW20651   3.085   7.274   4.120 -0.2833  0.0425  0.3250
 3241SOL    HW120652   3.023   7.196   4.126  0.7553 -0.7884  0.3518
 3241SOL    HW220653   3.092   7.303   4.024  1.1723 -1.4194 -0.0364
 3242SOL     OW20654   1.145   3.663   1.442 -0.2998 -0.1834 -0.2215
 3242SOL    HW120655   1.199   3.726   1.386  0.1819 -0.4363 -0.0467
 3242SOL    HW220656   1.205   3.592   1.480 -0.4963  0.3588  1.1410
 3243SOL     OW20657   1.816   7.529   3.042  0.4364  0.1512  0.4281
 3243SOL    HW120658   1.719   7.548   3.057  0.4278  0.5080 -0.0763
 3243SOL    HW220659   1.826   7.457   2.972  0.5839  1.7391 -1.2111
 3244SOL     OW20660   9.881   0.116   1.239  0.6067 -0.3739 -0.8024
 3244SOL    HW120661   9.921   0.030   1.208 -0.2483 -0.8549 -0.5843
 3244SOL    HW220662   9.830   0.158   1.164 -0.9734 -1.2477 -0.2357
 3245SOL     OW20663   5.005   2.689   2.589 -0.3220 -0.5070  0.2026
 3245SOL    HW120664   5.037   2.751   2.518 -0.4772 -1.9068 -1.1284
 3245SOL    HW220665   4.905   2.688   2.589 -0.3205 -0.9654  0.0167
 3246SOL     OW20666   5.429   4.988   1.016 -0.0372 -0.3677 -0.3167
 3246SOL    HW120667   5.357   5.052   1.045 -0.4009 -1.2410  0.7164
 3246SOL    HW220668   5.411   4.960   0.921 -2.7606 -2.8204  0.8232
 3247SOL     OW20669   5.740   1.725   4.515  0.5052  0.9338  0.0805
 3247SOL    HW120670   5.726   1.736   4.614  1.1953 -1.6356  0.5059
 3247SOL    HW220671   5.815   1.784   4.486  0.2603  1.7556  1.0995
 3248SOL     OW20672   0.290   1.695   4.810  0.1314  0.3283  0.0971
 3248SOL    HW120673   0.369   1.717   4.754 -0.2603 -2.1062 -1.4771
 3248SOL    HW220674   0.237   1.778   4.827  2.3803  1.7805  0.2403
 3249SOL     OW20675   6.040   7.328   2.375  0.0001 -0.2757  0.7600
 3249SOL    HW120676   6.099   7.282   2.309 -0.5277 -0.0260  0.1031
 3249SOL    HW220677   6.095   7.388   2.433  0.3549  0.1639 -0.0225
 3250SOL     OW20678   0.149   1.215   4.880 -0.1998  0.1006  0.1311
 3250SOL    HW120679   0.208   1.294   4.894 -0.3829  0.4730 -1.1048
 3250SOL    HW220680   0.053   1.244   4.883 -0.2669 -0.0712 -0.3002
 3251SOL     OW20681   4.531   1.657   4.449  0.5201  0.1002  0.3176
 3251SOL    HW120682   4.560   1.723   4.379  1.1912 -1.3593 -0.8204
 3251SOL    HW220683   4.545   1.564   4.414 -1.4848 -0.6527  1.4483
 3252SOL     OW20684   2.924   5.947   0.276 -0.5399 -0.7016  0.1069
 3252SOL    HW120685   3.008   5.902   0.308  0.1245 -0.2795 -1.0145
 3252SOL    HW220686   2.927   6.043   0.302 -0.5779 -0.6374 -0.1304
 3253SOL     OW20687   1.426   6.075   3.018  0.4288 -0.1401  0.1915
 3253SOL    HW120688   1.508   6.023   3.040 -0.8307 -1.2954  2.2979
 3253SOL    HW220689   1.451   6.167   2.990  2.3380  0.1546  2.7476
 3254SOL     OW20690   5.639   2.334   3.255 -0.1981  0.3542  0.5123
 3254SOL    HW120691   5.642   2.326   3.355 -1.7563 -1.5980  0.4307
 3254SOL    HW220692   5.545   2.325   3.223  0.3155  0.6960 -1.1687
 3255SOL     OW20693   0.282   2.952   1.245  0.0892 -0.7978 -0.2863
 3255SOL    HW120694   0.313   2.976   1.337 -0.4258 -0.1732 -0.2656
 3255SOL    HW220695   0.239   3.033   1.203  0.2426 -1.1049 -1.0360
 3256SOL     OW20696   9.640   1.650   4.016  0.4826  0.0668 -0.9185
 3256SOL    HW120697   9.597   1.741   4.020  0.9834  0.2657 -0.0193
 3256SOL    HW220698   9.733   1.655   4.052 -0.0206 -1.1082  0.6100
 3257SOL     OW20699   3.814   0.278   1.351  0.6093 -0.1753  0.2117
 3257SOL    HW120700   3.813   0.266   1.450  2.0166 -0.4928  0.1919
 3257SOL    HW220701   3.720   0.289   1.318  0.0079 -1.6366  1.3875
 3258SOL     OW20702   9.785   3.092   2.898  0.3488 -0.0330  0.7625
 3258SOL    HW120703   9.842   3.173   2.902  0.5935 -0.0187 -2.1185
 3258SOL    HW220704   9.761   3.072   2.803 -2.2420 -1.5747  1.6788
 3259SOL     OW20705   3.956   9.722   1.384 -0.5574  0.0960 -0.6457
 3259SOL    HW120706   3.910   9.646   1.431  0.2803  0.0903  0.1809
 3259SOL    HW220707   3.933   9.720   1.287  0.6453 -2.1317 -0.9281
 3260SOL     OW20708   7.000   0.720   4.972  0.1971 -0.5141 -0.5997
 3260SOL    HW120709   7.070   0.701   4.903  1.3039 -1.9469  0.8688
 3260SOL    HW220710   6.951   0.636   4.994 -1.3324  0.2843 -0.8850
 3261SOL     OW20711   1.232   8.571   4.253  0.3985  0.3489  0.0878
 3261SOL    HW120712   1.231   8.629   4.171  0.2765  0.3914  0.1188
 3261SOL    HW220713   1.141   8.570   4.294  0.8208  1.5711  1.0978
 3262SOL     OW20714   4.162   1.733   3.489  0.2772  0.5303 -0.4331
 3262SOL    HW120715   4.079   1.780   3.517  1.8298  2.0640  1.8221
 3262SOL    HW220716   4.171   1.736   3.390 -2.7234 -0.3520 -0.7509
 3263SOL     OW20717   8.874   6.530   0.765 -0.2637 -0.3615  0.2098
 3263SOL    HW120718   8.794   6.494   0.814  0.3320 -0.9251  0.7800
 3263SOL    HW220719   8.880   6.488   0.675  0.4778 -1.7719  0.9037
 3264SOL     OW20720   2.125   7.575   5.544  0.3307  0.1749  0.3351
 3264SOL    HW120721   2.183   7.505   5.504  2.1754  1.4792  0.6821
 3264SOL    HW220722   2.119   7.653   5.483 -3.4459 -1.0438 -1.0342
 3265SOL     OW20723   7.547   6.555   4.349 -0.6703  0.2903 -0.5137
 3265SOL    HW120724   7.501   6.550   4.260 -1.9481  0.7463  0.1047
 3265SOL    HW220725   7.578   6.649   4.364 -0.8864  0.3224 -0.2677
 3266SOL     OW20726   7.220   6.797   2.807  0.3506  0.3304  0.4784
 3266SOL    HW120727   7.255   6.775   2.898  0.1437 -0.5118  0.3568
 3266SOL    HW220728   7.148   6.865   2.814  0.6886  0.6446  0.8991
 3267SOL     OW20729   3.520   3.442   0.283 -0.0195 -0.1338  0.1340
 3267SOL    HW120730   3.463   3.463   0.204 -1.7835  0.3377  1.4990
 3267SOL    HW220731   3.546   3.345   0.281  0.9911  0.1561 -1.6540
 3268SOL     OW20732   9.362   1.732   4.816  0.4390 -0.0491 -0.2129
 3268SOL    HW120733   9.390   1.792   4.741  0.1432  0.9786  0.4925
 3268SOL    HW220734   9.313   1.785   4.884 -0.4807 -1.2456  0.0655
 3269SOL     OW20735   9.099   9.975   3.639 -0.2785 -0.2549  0.3188
 3269SOL    HW120736   9.124  10.062   3.596 -0.3515 -0.3934 -0.0057
 3269SOL    HW220737   9.080   9.907   3.568 -0.3311 -0.5053  0.5714
 3270SOL     OW20738   8.407   7.703   4.504  0.4807 -0.2159  0.4419
 3270SOL    HW120739   8.428   7.789   4.550  2.6580  0.2361 -1.2938
 3270SOL    HW220740   8.419   7.715   4.405 -0.6203 -2.1259  0.0512
 3271SOL     OW20741   9.802   5.638   5.982 -0.5322 -0.3036  0.2436
 3271SOL    HW120742   9.741   5.718   5.988 -1.7018 -1.0145 -1.8242
 3271SOL    HW220743   9.874   5.655   5.915 -0.6296 -0.8755 -0.0123
 3272SOL     OW20744   6.734   4.440   0.950 -0.5834  0.1812  0.3269
 3272SOL    HW120745   6.788   4.511   0.904 -0.4026 -0.3809 -0.3457
 3272SOL    HW220746   6.637   4.456   0.933 -0.5728  0.5406  0.5858
 3273SOL     OW20747   7.331   8.500   4.762 -0.0338  0.2850  0.0609
 3273SOL    HW120748   7.411   8.538   4.716  0.6383  0.8011  1.6308
 3273SOL    HW220749   7.248   8.529   4.713  0.6685  0.6850 -0.9179
 3274SOL     OW20750   1.293   8.873   1.248 -0.6817 -0.3579 -0.8553
 3274SOL    HW120751   1.258   8.814   1.321  2.0981  0.6169  1.3639
 3274SOL    HW220752   1.363   8.824   1.196 -0.3936  0.0087 -0.8155
 3275SOL     OW20753   8.448   4.993   2.289 -0.6599 -0.1388  0.6881
 3275SOL    HW120754   8.482   4.908   2.331  0.5274  0.3748  0.7984
 3275SOL    HW220755   8.424   5.057   2.362 -0.7459 -0.0712  0.5983
 3276SOL     OW20756   2.422   8.707   3.047 -0.3286 -0.0251  0.4346
 3276SOL    HW120757   2.457   8.675   2.959  0.6005  3.5736 -0.5621
 3276SOL    HW220758   2.497   8.713   3.113 -0.3806  0.6315  0.4397
 3277SOL     OW20759   5.307   0.189   0.501 -0.3159  0.0335 -0.3349
 3277SOL    HW120760   5.374   0.115   0.513 -0.5720  0.0872  1.5868
 3277SOL    HW220761   5.223   0.151   0.463  0.5859 -0.1341 -2.2168
 3278SOL     OW20762   5.782   8.062   5.161 -0.2279 -0.0868 -0.0360
 3278SOL    HW120763   5.786   7.977   5.108 -1.2927 -0.2658  0.1774
 3278SOL    HW220764   5.691   8.102   5.155 -0.2274  0.1335  1.3104
 3279SOL     OW20765   3.228   1.894   1.373 -0.1801  0.0030  0.0656
 3279SOL    HW120766   3.205   1.948   1.455 -1.8192 -0.7391  0.1123
 3279SOL    HW220767   3.298   1.826   1.396  0.8783  1.1694  0.3410
 3280SOL     OW20768   3.484   5.539   3.554 -0.1736  0.1285 -0.0428
 3280SOL    HW120769   3.426   5.546   3.635 -1.3769  0.2162 -0.9060
 3280SOL    HW220770   3.442   5.590   3.479  1.0144  0.1781 -0.6797
 3281SOL     OW20771   9.693   7.083   5.410  0.1638 -0.6454  0.5215
 3281SOL    HW120772   9.713   7.082   5.508 -2.0646 -0.6228  1.0007
 3281SOL    HW220773   9.680   6.990   5.377  2.7654 -0.7988 -0.1842
 3282SOL     OW20774   2.070   4.738   3.100  0.3032  0.2048 -0.5339
 3282SOL    HW120775   2.081   4.698   3.190  1.4051 -0.6469 -1.0464
 3282SOL    HW220776   2.056   4.837   3.109 -2.5568 -0.2610  0.7371
 3283SOL     OW20777   9.512   3.065   3.360 -0.1843 -0.0406  0.2501
 3283SOL    HW120778   9.480   3.038   3.269 -1.2351  1.6464  0.0964
 3283SOL    HW220779   9.500   2.989   3.424  1.4817 -1.5854 -1.2169
 3284SOL     OW20780   0.056   9.150   1.609 -0.3197  0.1274 -0.1986
 3284SOL    HW120781  -0.012   9.223   1.602  2.4040  2.7476 -0.3372
 3284SOL    HW220782   0.131   9.179   1.668  0.1863 -3.1365  0.8776
 3285SOL     OW20783   2.346   3.274   2.668  0.2839 -0.2536 -0.3735
 3285SOL    HW120784   2.354   3.292   2.570  0.7545  0.5205 -0.1966
 3285SOL    HW220785   2.314   3.357   2.715 -1.1650 -0.9886 -0.0337
 3286SOL     OW20786   8.002   1.401   4.930 -0.1868 -0.2533 -0.3735
 3286SOL    HW120787   8.097   1.391   4.959 -0.8835  0.1506  2.2547
 3286SOL    HW220788   7.985   1.344   4.850  2.9579  1.8401 -2.6710
 3287SOL     OW20789   0.946   7.372   5.893  0.0104 -0.2763  0.2102
 3287SOL    HW120790   0.890   7.292   5.872  1.7556 -1.4572 -0.0285
 3287SOL    HW220791   0.918   7.410   5.981  0.1784 -2.0930  1.0745
 3288SOL     OW20792   1.907   7.761   0.368 -0.5800  0.1885 -0.6604
 3288SOL    HW120793   1.985   7.735   0.423 -1.5257 -2.2281 -0.3853
 3288SOL    HW220794   1.938   7.804   0.283  0.9505  1.1609  0.3815
 3289SOL     OW20795   4.879   7.407   3.767 -0.0508 -0.1900 -0.3559
 3289SOL    HW120796   4.941   7.426   3.843  0.1618 -0.0486 -0.5633
 3289SOL    HW220797   4.930   7.406   3.681 -0.1589 -1.1735 -0.4077
 3290SOL     OW20798   4.428   0.119   2.763  0.4044  0.8266  0.2672
 3290SOL    HW120799   4.474   0.032   2.782 -1.6892 -0.3538  0.1804
 3290SOL    HW220800   4.475   0.167   2.690  0.6651 -1.0261 -0.8293
 3291SOL     OW20801   0.444   7.083   1.163  1.1098  0.2524  0.1685
 3291SOL    HW120802   0.513   7.016   1.192 -0.1134 -1.3285 -0.4474
 3291SOL    HW220803   0.450   7.095   1.064  1.0983  0.8047  0.2356
 3292SOL     OW20804   1.131   3.306   6.290  0.2694  0.4903 -0.0542
 3292SOL    HW120805   1.217   3.355   6.308  0.4004  0.0746  0.4321
 3292SOL    HW220806   1.121   3.295   6.191  0.3811  1.2446 -0.1596
 3293SOL     OW20807   9.649   3.243   1.194 -0.5647  0.1667 -0.2800
 3293SOL    HW120808   9.638   3.338   1.165 -1.8772 -0.3141 -1.3976
 3293SOL    HW220809   9.628   3.236   1.292 -1.9465  0.7683 -0.5258
 3294SOL     OW20810   3.014   1.206   1.862 -0.4014 -0.6911 -0.4476
 3294SOL    HW120811   3.036   1.294   1.821 -2.3866  0.1325  0.2104
 3294SOL    HW220812   3.073   1.135   1.822  0.3356  0.7044 -1.9012
 3295SOL     OW20813   4.981   3.439   3.959 -0.3476 -0.1113  0.0011
 3295SOL    HW120814   4.889   3.444   3.998 -0.2018 -2.0286  0.6007
 3295SOL    HW220815   5.048   3.470   4.027 -0.2508 -1.8953  0.7451
 3296SOL     OW20816   9.432   2.510   5.034 -0.2662  0.2702 -0.5254
 3296SOL    HW120817   9.462   2.452   5.109  0.4820 -0.2926 -1.2534
 3296SOL    HW220818   9.462   2.604   5.050  0.0943  0.1050 -0.2408
 3297SOL     OW20819   0.500   6.463   4.945  0.4829  0.2822 -0.2252
 3297SOL    HW120820   0.479   6.383   4.889  1.1271 -0.6012  0.7492
 3297SOL    HW220821   0.555   6.528   4.892  1.3918 -0.7024 -0.5132
 3298SOL     OW20822   9.050   0.611   0.418 -0.3645 -0.0233  0.3617
 3298SOL    HW120823   9.089   0.663   0.495  1.4988 -0.4182 -0.2955
 3298SOL    HW220824   8.988   0.670   0.366  2.0754  1.7360 -0.6486
 3299SOL     OW20825   3.948   4.924   4.086 -0.1528 -0.1819  0.3154
 3299SOL    HW120826   3.850   4.930   4.102 -0.2698 -0.6210 -0.2549
 3299SOL    HW220827   3.967   4.858   4.013  0.7611 -2.2865  2.3862
 3300SOL     OW20828   9.031   7.467   1.912  0.5812 -0.3211 -0.0580
 3300SOL    HW120829   8.966   7.541   1.892  0.7744  0.0951  0.8459
 3300SOL    HW220830   9.105   7.469   1.845  0.7876  0.5473  0.1911
 3301SOL     OW20831   5.506   0.903   0.873 -0.0840 -0.2575 -0.4406
 3301SOL    HW120832   5.530   0.832   0.807 -1.4222  0.6093 -1.8976
 3301SOL    HW220833   5.550   0.989   0.846 -0.2247 -0.0161  0.0924
 3302SOL     OW20834   3.455   1.416   3.043  0.0192  0.3580  0.3330
 3302SOL    HW120835   3.456   1.335   2.985 -0.1323  0.2071  0.5381
 3302SOL    HW220836   3.402   1.488   2.999 -0.1279  0.2308  0.3017
 3303SOL     OW20837   0.072   6.399   4.695  0.1234  0.7267  0.3101
 3303SOL    HW120838   0.037   6.317   4.648  0.3624 -0.8114  2.7262
 3303SOL    HW220839   0.172   6.397   4.694  0.1480  1.6667 -0.7020
 3304SOL     OW20840   4.587   4.461   1.388  0.4348  0.3403 -0.1858
 3304SOL    HW120841   4.522   4.502   1.323 -0.8587  0.3140  1.0764
 3304SOL    HW220842   4.596   4.363   1.368 -0.0939  0.2964 -0.2149
 3305SOL     OW20843   2.230   7.082   0.840  0.1111 -0.3902 -0.3338
 3305SOL    HW120844   2.321   7.121   0.854  0.3133 -0.5639 -1.1232
 3305SOL    HW220845   2.173   7.102   0.919  1.0714 -0.9534  0.5215
 3306SOL     OW20846   1.419   0.243   3.753  0.7357 -0.4822  0.3225
 3306SOL    HW120847   1.355   0.302   3.803  1.5775  0.4400  0.3250
 3306SOL    HW220848   1.367   0.173   3.702 -0.1470 -1.2847  2.2685
 3307SOL     OW20849   3.155   6.345   0.558 -0.1183  0.2461 -0.1502
 3307SOL    HW120850   3.191   6.318   0.469  0.4258  1.1718 -0.2135
 3307SOL    HW220851   3.108   6.267   0.600  0.1539 -0.3658 -0.9733
 3308SOL     OW20852   7.356   1.269   6.153 -0.0340 -0.0846  0.0976
 3308SOL    HW120853   7.381   1.178   6.185 -0.5176 -0.5946 -0.9701
 3308SOL    HW220854   7.262   1.268   6.120  0.4945  0.3991 -1.4593
 3309SOL     OW20855   6.668   1.288   1.995 -0.1839  0.5672  0.2690
 3309SOL    HW120856   6.695   1.247   2.082 -0.9599  0.7291  0.5850
 3309SOL    HW220857   6.570   1.309   1.996  0.0068  1.5176 -0.2646
 3310SOL     OW20858   9.600   3.784   4.332  0.2615 -0.1616  0.3577
 3310SOL    HW120859   9.572   3.802   4.426  3.0294 -0.6398  1.3301
 3310SOL    HW220860   9.637   3.692   4.325  1.6790  0.4687 -0.7869
 3311SOL     OW20861   4.140   2.022   3.190 -0.5771 -0.1306  0.0407
 3311SOL    HW120862   4.234   1.997   3.215 -0.4609  1.2061  1.0160
 3311SOL    HW220863   4.118   1.985   3.100 -0.3195 -3.4729  1.2909
 3312SOL     OW20864   8.896   0.690   0.965 -0.3314 -0.0109 -1.1325
 3312SOL    HW120865   8.846   0.726   0.886 -2.5487  1.3263  0.8405
 3312SOL    HW220866   8.832   0.666   1.038  1.7437 -0.3319  0.6540
 3313SOL     OW20867   0.832   5.765   0.445  0.3882  0.0538 -0.1575
 3313SOL    HW120868   0.918   5.785   0.492  0.4396  2.1325 -1.1030
 3313SOL    HW220869   0.755   5.799   0.499  0.2319 -0.6351  0.0602
 3314SOL     OW20870   3.037   7.185   1.326 -0.2994  0.1803 -0.4160
 3314SOL    HW120871   2.975   7.168   1.250 -1.6357  3.0895 -0.0617
 3314SOL    HW220872   3.096   7.106   1.341 -1.7883 -1.4021 -2.7968
 3315SOL     OW20873   8.715   6.499   4.957  0.2691  0.0679  0.2533
 3315SOL    HW120874   8.726   6.447   4.872  0.5404 -0.2024  0.4526
 3315SOL    HW220875   8.798   6.551   4.976  0.1704  0.2067  0.2993
 3316SOL     OW20876   5.914   9.863   3.348 -0.1223 -0.2855 -0.0053
 3316SOL    HW120877   5.845   9.851   3.419  0.3265 -2.0049  0.1624
 3316SOL    HW220878   5.870   9.892   3.263 -0.9083 -0.2715  0.4031
 3317SOL     OW20879   8.914   5.530   3.182  0.7544 -0.2125  0.4752
 3317SOL    HW120880   8.968   5.611   3.158  0.8511 -0.4944 -0.2598
 3317SOL    HW220881   8.969   5.448   3.166  0.6292 -0.4329  1.1526
 3318SOL     OW20882   3.979   7.077   2.338 -0.4698 -0.3233  0.1290
 3318SOL    HW120883   4.025   7.005   2.286  0.4030  2.2632 -2.9042
 3318SOL    HW220884   3.880   7.067   2.329 -0.3370 -0.1788 -1.7665
 3319SOL     OW20885   4.693   3.862   1.429 -0.2289  0.0876  0.1466
 3319SOL    HW120886   4.703   3.943   1.487 -0.2140  0.3780 -0.2571
 3319SOL    HW220887   4.763   3.795   1.452  0.9143  0.9494 -0.7693
 3320SOL     OW20888   3.239   4.710   6.456 -0.3255 -0.7119  0.3036
 3320SOL    HW120889   3.154   4.762   6.465 -0.1056 -0.1520 -0.7058
 3320SOL    HW220890   3.218   4.613   6.449 -0.9699 -0.4914 -1.0221
 3321SOL     OW20891   7.167   0.704   4.752 -0.6764 -0.0275  0.2447
 3321SOL    HW120892   7.131   0.733   4.664 -1.0128 -0.0059  0.3865
 3321SOL    HW220893   7.192   0.607   4.747  1.6980  0.6013 -0.6170
 3322SOL     OW20894   2.952   6.481   5.497 -0.3099 -0.6141  0.5988
 3322SOL    HW120895   2.865   6.518   5.464 -0.0450 -1.0360 -0.5970
 3322SOL    HW220896   2.987   6.538   5.571 -1.9757 -0.8705  1.5914
 3323SOL     OW20897   0.916   1.909   2.866  0.6531 -0.0448 -0.1931
 3323SOL    HW120898   0.834   1.880   2.817 -0.7198 -1.2742  2.7165
 3323SOL    HW220899   0.984   1.836   2.863  0.6215 -0.0671 -0.3703
 3324SOL     OW20900   9.576   7.401   4.527 -0.0044 -0.1489 -0.0836
 3324SOL    HW120901   9.505   7.413   4.458 -0.4625 -1.2540  0.1904
 3324SOL    HW220902   9.666   7.419   4.485 -0.2030 -1.6228 -1.2049
 3325SOL     OW20903   9.805   6.682   2.222 -0.2486 -0.4261 -0.1747
 3325SOL    HW120904   9.821   6.775   2.255 -0.3819 -1.1994  2.1166
 3325SOL    HW220905   9.837   6.675   2.127  0.9183  1.6071  0.0322
 3326SOL     OW20906   1.951   4.816   2.649  0.5103  0.5479 -0.6508
 3326SOL    HW120907   2.041   4.797   2.689  0.6811  2.7883  0.1119
 3326SOL    HW220908   1.891   4.738   2.663  1.5445  0.0523  1.2090
 3327SOL     OW20909   0.220   2.985   0.399  0.3200  0.1179  0.4315
 3327SOL    HW120910   0.320   2.984   0.401  0.3330 -0.6130 -0.3165
 3327SOL    HW220911   0.186   2.892   0.395 -0.4239  0.3342  1.5162
 3328SOL     OW20912   4.708   1.752   2.520 -0.4249  0.0383 -0.5675
 3328SOL    HW120913   4.705   1.833   2.460  1.1385 -0.9153 -1.9581
 3328SOL    HW220914   4.682   1.779   2.612 -1.2305  1.8762 -1.2919
 3329SOL     OW20915   1.394   6.575   4.019 -0.2060  0.0657  0.2702
 3329SOL    HW120916   1.402   6.597   3.922  1.0774 -0.1181  0.3236
 3329SOL    HW220917   1.323   6.507   4.032 -0.8349  0.5711 -0.4619
 3330SOL     OW20918   6.259   1.378   1.421  0.3223 -0.1140 -0.1412
 3330SOL    HW120919   6.171   1.342   1.389  0.5091 -0.4575 -0.2738
 3330SOL    HW220920   6.332   1.313   1.398  0.7542  0.6424 -0.9509
 3331SOL     OW20921   8.739   9.295   5.140  0.2669  0.1454  0.5934
 3331SOL    HW120922   8.767   9.217   5.196 -2.8636 -0.4424  1.3959
 3331SOL    HW220923   8.766   9.279   5.045 -0.9031 -2.2184  0.6429
 3332SOL     OW20924   8.851   8.991   2.814 -0.5291 -0.2083  0.4713
 3332SOL    HW120925   8.873   9.088   2.816  1.4502 -0.6526  1.3528
 3332SOL    HW220926   8.801   8.969   2.730  0.4373  1.2494 -0.4987
 3333SOL     OW20927   3.098   6.411   0.246 -0.1343 -0.1016 -0.0915
 3333SOL    HW120928   3.007   6.404   0.207 -0.0930  0.2366 -0.2576
 3333SOL    HW220929   3.137   6.501   0.223 -0.0010 -0.0082  0.4943
 3334SOL     OW20930   8.595   2.679   4.430  0.5111 -0.3412  0.2018
 3334SOL    HW120931   8.609   2.672   4.331 -0.0129  0.0802  0.0984
 3334SOL    HW220932   8.537   2.604   4.460  1.1614 -0.8190  0.2896
 3335SOL     OW20933   9.892   8.712   3.764 -0.1247  0.0377 -0.0233
 3335SOL    HW120934   9.899   8.612   3.772  0.8789  0.1218  0.2515
 3335SOL    HW220935   9.958   8.744   3.695 -1.0100  0.4319 -0.6939
 3336SOL     OW20936   8.377   6.902   1.808  0.5795 -0.1404  0.4370
 3336SOL    HW120937   8.351   6.987   1.854  0.5776 -0.0627  0.2939
 3336SOL    HW220938   8.326   6.894   1.722  0.6427 -0.2435  0.4090
 3337SOL     OW20939   1.714   5.952   3.124  0.1648 -0.6044  0.0126
 3337SOL    HW120940   1.663   5.948   3.210 -1.3269  0.7425 -0.7805
 3337SOL    HW220941   1.812   5.941   3.143  0.0060  1.1413  2.0679
 3338SOL     OW20942   9.731   5.702   0.943  0.4565  0.0042  0.2775
 3338SOL    HW120943   9.669   5.646   0.889  0.1808  0.4078  0.1786
 3338SOL    HW220944   9.679   5.768   0.997  0.6857 -0.7575  1.4550
 3339SOL     OW20945   8.707   7.271   5.282 -0.2859  0.2000 -0.0155
 3339SOL    HW120946   8.726   7.190   5.227 -1.7890 -1.1312  1.3639
 3339SOL    HW220947   8.620   7.311   5.253 -0.3846  0.3187  0.4339
 3340SOL     OW20948   5.860   7.765   4.257 -0.1971  0.1762 -0.2469
 3340SOL    HW120949   5.880   7.702   4.332  1.9509  1.0674 -0.0495
 3340SOL    HW220950   5.782   7.823   4.282 -0.1332 -0.2096  0.8735
 3341SOL     OW20951   8.262   3.546   2.723  0.2611 -0.5021  0.1502
 3341SOL    HW120952   8.334   3.601   2.681  0.7677 -1.7619 -0.6546
 3341SOL    HW220953   8.173   3.580   2.692  0.4791  1.0014  1.0799
 3342SOL     OW20954   4.084   8.425   4.632 -0.3753 -0.1046 -0.6710
 3342SOL    HW120955   4.074   8.524   4.631  0.2182 -0.0371 -0.4188
 3342SOL    HW220956   4.169   8.400   4.584  1.4197 -0.2404  2.4591
 3343SOL     OW20957   3.942   3.423   2.910 -0.3261  0.3144  0.1207
 3343SOL    HW120958   3.879   3.496   2.935 -0.1823  0.5491 -0.2089
 3343SOL    HW220959   4.012   3.458   2.849  1.3206  0.5375  2.0791
 3344SOL     OW20960   4.739   0.654   0.591 -0.0471 -0.4133  0.2684
 3344SOL    HW120961   4.693   0.623   0.674  0.7386 -0.7352  0.5853
 3344SOL    HW220962   4.822   0.600   0.576 -1.6081 -2.2489 -2.2115
 3345SOL     OW20963   9.355   9.865   3.728 -0.2978 -0.0130  0.6174
 3345SOL    HW120964   9.293   9.901   3.658 -1.8811 -1.7122  1.1264
 3345SOL    HW220965   9.313   9.876   3.818  0.3266 -0.8241  1.0091
 3346SOL     OW20966   4.924   3.783   4.520 -0.0892  0.1947 -0.0679
 3346SOL    HW120967   4.907   3.882   4.521 -1.9399 -0.1003 -0.3846
 3346SOL    HW220968   4.983   3.759   4.597  0.2067  1.5248  0.1376
 3347SOL     OW20969   6.763   6.635   4.162  0.1545 -0.6492 -0.0147
 3347SOL    HW120970   6.720   6.630   4.251 -0.1320 -0.4644 -0.1416
 3347SOL    HW220971   6.777   6.543   4.125 -1.6030 -0.6586 -0.6762
 3348SOL     OW20972   8.833   9.475   5.301  0.4829 -0.2684  0.2555
 3348SOL    HW120973   8.774   9.422   5.241 -1.0754  1.7045 -0.0215
 3348SOL    HW220974   8.827   9.439   5.394  2.3397 -2.8741 -0.6048
 3349SOL     OW20975   9.815   3.003   1.362  0.1746 -0.2462 -0.1351
 3349SOL    HW120976   9.725   3.046   1.359 -0.2638 -1.0835  0.8118
 3349SOL    HW220977   9.885   3.072   1.378 -0.2296  0.4956 -1.4818
 3350SOL     OW20978   2.722   8.690   1.208 -0.1245 -0.3122 -0.3422
 3350SOL    HW120979   2.770   8.629   1.271  0.0360  0.0634 -0.0988
 3350SOL    HW220980   2.659   8.748   1.260  1.0455  0.9860 -0.3597
 3351SOL     OW20981   1.483   2.834   1.663 -0.3375  0.0700 -0.0385
 3351SOL    HW120982   1.414   2.763   1.650  0.9356 -0.9208 -1.6387
 3351SOL    HW220983   1.438   2.921   1.683 -1.9223 -1.1546  1.9204
 3352SOL     OW20984   3.042   5.095   4.719  0.2514 -0.1473 -0.2297
 3352SOL    HW120985   3.086   5.035   4.785  0.9359 -0.1724 -0.7118
 3352SOL    HW220986   2.948   5.064   4.703  0.1606 -0.2879  0.5378
 3353SOL     OW20987   8.791   7.026   1.970  0.0809 -0.4444  0.2731
 3353SOL    HW120988   8.859   6.964   2.010 -0.9533 -0.6636  1.7094
 3353SOL    HW220989   8.699   6.996   1.995 -0.4520  1.4908  0.7214
 3354SOL     OW20990   4.437   4.282   2.927 -0.5313 -0.3460 -0.3414
 3354SOL    HW120991   4.520   4.323   2.891  0.4765 -0.5462  1.7150
 3354SOL    HW220992   4.459   4.220   3.001 -2.3385 -2.0791 -1.2002
 3355SOL     OW20993   4.166   0.853   3.167  0.1354 -0.4889  0.2026
 3355SOL    HW120994   4.138   0.875   3.074  0.1010 -0.7068  0.1618
 3355SOL    HW220995   4.112   0.906   3.232  1.0244  0.6163  0.0635
 3356SOL     OW20996   9.741   5.664   2.635 -0.2507 -0.6824  0.5232
 3356SOL    HW120997   9.785   5.628   2.718  2.2866  0.5649 -0.2445
 3356SOL    HW220998   9.763   5.761   2.625  1.4894 -1.3467 -2.8290
 3357SOL     OW20999   3.988   0.763   1.179  0.4138 -0.8928  0.4169
 3357SOL    HW121000   3.943   0.839   1.225 -0.4088 -0.6378 -0.7880
 3357SOL    HW221001   3.949   0.676   1.211  1.4559 -0.8270  1.9005
 3358SOL     OW21002   0.188   7.069   6.745  0.0176  0.1020  0.2662
 3358SOL    HW121003   0.236   7.028   6.823  0.4661 -0.5699 -0.3533
 3358SOL    HW221004   0.234   7.154   6.718 -0.0570  0.2624  0.6499
 3359SOL     OW21005   0.865   1.099   1.885 -0.3957 -0.4568 -0.1441
 3359SOL    HW121006   0.939   1.093   1.952  0.2560 -1.1732 -0.9283
 3359SOL    HW221007   0.901   1.083   1.793 -1.8069 -2.4221 -0.3765
 3360SOL     OW21008   4.007   6.938   2.574 -0.2353 -0.1509  0.2775
 3360SOL    HW121009   4.017   6.989   2.489  1.2876 -1.6053 -0.4285
 3360SOL    HW221010   4.091   6.889   2.595 -1.2581 -1.4214  1.5834
 3361SOL     OW21011   3.068   5.367   2.316 -0.6047 -0.3224 -0.0134
 3361SOL    HW121012   3.026   5.295   2.259 -1.0844 -0.3765  0.4084
 3361SOL    HW221013   3.152   5.398   2.272 -1.2048 -0.0450 -0.9903
 3362SOL     OW21014   9.369   5.533   5.254 -0.5329 -0.3032 -0.5428
 3362SOL    HW121015   9.462   5.564   5.234 -0.5376  0.4001  0.5005
 3362SOL    HW221016   9.305   5.606   5.233 -0.6115  0.1474  1.2098
 3363SOL     OW21017   9.893   2.050   1.555  0.2658 -0.3654  0.2231
 3363SOL    HW121018   9.978   1.999   1.572  1.1245  0.5892 -1.1695
 3363SOL    HW221019   9.868   2.042   1.459 -0.4200  0.5900  0.3159
 3364SOL     OW21020   8.357   9.572   5.539  0.5577 -0.1273  0.0896
 3364SOL    HW121021   8.418   9.649   5.555  1.9920 -1.0184 -0.8796
 3364SOL    HW221022   8.285   9.599   5.475  1.3406  0.2735 -0.6295
 3365SOL     OW21023   0.110   8.424   2.402 -0.2353  0.4189 -0.3545
 3365SOL    HW121024   0.121   8.505   2.459 -0.9530 -0.9490  1.7713
 3365SOL    HW221025   0.189   8.364   2.413 -0.9628 -0.4468  0.1866
 3366SOL     OW21026   8.499   1.267   5.089  0.2339 -0.4143 -0.0410
 3366SOL    HW121027   8.407   1.260   5.127  0.3642 -0.4758  0.2573
 3366SOL    HW221028   8.563   1.216   5.146  0.4624 -0.3330 -0.2238
 3367SOL     OW21029   9.891   3.884   2.199  0.1612  0.1590  0.2672
 3367SOL    HW121030   9.812   3.824   2.189  0.6247 -0.4282  0.0984
 3367SOL    HW221031   9.864   3.979   2.181  0.0368 -0.3345 -2.2549
 3368SOL     OW21032   9.802   6.605   5.024  0.3650 -0.2221 -0.6290
 3368SOL    HW121033   9.783   6.701   5.006 -0.4907 -0.1657  0.4810
 3368SOL    HW221034   9.774   6.549   4.946 -4.0803 -0.0996  0.7632
 3369SOL     OW21035   4.412   8.447   3.656  0.2388 -0.4723  0.5050
 3369SOL    HW121036   4.479   8.482   3.722 -0.0873  1.4897 -0.1636
 3369SOL    HW221037   4.340   8.515   3.643 -1.1565 -1.9777  0.1660
 3370SOL     OW21038   6.658   8.298   4.073 -0.0960 -0.3911  0.1292
 3370SOL    HW121039   6.687   8.213   4.116 -0.2694 -0.3853  0.2582
 3370SOL    HW221040   6.559   8.307   4.082 -0.1123 -0.3123 -0.1301
 3371SOL     OW21041   0.332   9.473   1.323 -0.3242  0.1548  0.1310
 3371SOL    HW121042   0.399   9.534   1.281 -0.8151 -0.7678 -2.0582
 3371SOL    HW221043   0.252   9.464   1.263 -0.7004 -1.8361  0.8844
 3372SOL     OW21044   8.466   3.212   2.150  0.0169 -0.4842  0.3281
 3372SOL    HW121045   8.467   3.308   2.124  0.5125 -0.0345  1.9049
 3372SOL    HW221046   8.376   3.173   2.132 -0.3695  0.4459  0.2453
 3373SOL     OW21047   4.173   3.439   2.759  0.4766  0.2426  0.1610
 3373SOL    HW121048   4.251   3.472   2.811  0.3014 -0.9061  1.2074
 3373SOL    HW221049   4.172   3.339   2.760 -1.9573  0.2195  1.6943
 3374SOL     OW21050   4.675   4.131   2.232  0.2164 -0.1941 -0.2017
 3374SOL    HW121051   4.591   4.172   2.270  0.7719  0.3485  0.4559
 3374SOL    HW221052   4.754   4.170   2.278  0.7653 -1.9442  0.3516
 3375SOL     OW21053   9.919   1.541   3.339  0.0934 -0.7333  0.1133
 3375SOL    HW121054   9.861   1.573   3.264  1.9981 -2.1527 -2.0442
 3375SOL    HW221055   9.954   1.450   3.317 -0.1426 -1.6421  3.2326
 3376SOL     OW21056   6.295   8.706   4.836  0.3131  0.2222  0.0483
 3376SOL    HW121057   6.358   8.741   4.766  0.1363 -0.7920 -0.6359
 3376SOL    HW221058   6.285   8.773   4.909 -0.4373  1.8138 -1.4925
 3377SOL     OW21059   1.839   7.431   3.823 -0.0782  0.0788 -0.0624
 3377SOL    HW121060   1.752   7.477   3.810 -0.6983 -1.0417  0.0293
 3377SOL    HW221061   1.894   7.481   3.890 -1.4956 -0.3085  1.4326
 3378SOL     OW21062   9.477   1.510   1.747 -0.5426 -0.0150  0.3689
 3378SOL    HW121063   9.477   1.608   1.765 -1.1357  0.0002  0.2886
 3378SOL    HW221064   9.388   1.483   1.711 -0.4777 -0.6350  0.6725
 3379SOL     OW21065   2.654   6.369   6.081  0.3519  0.0459 -0.5349
 3379SOL    HW121066   2.698   6.458   6.063 -0.7447  0.3534 -1.7681
 3379SOL    HW221067   2.690   6.302   6.016  0.6395 -0.2433 -0.0784
 3380SOL     OW21068   8.809   0.827   4.461 -1.1944  0.5973  0.7308
 3380SOL    HW121069   8.799   0.757   4.532 -1.9938  0.1607  0.2000
 3380SOL    HW221070   8.731   0.822   4.398 -0.3239  0.7477 -0.3839
 3381SOL     OW21071   8.201   5.008   4.235 -0.2422  0.4328  0.1012
 3381SOL    HW121072   8.287   5.057   4.218 -0.6152  0.9937 -0.1815
 3381SOL    HW221073   8.215   4.941   4.308  0.3029  0.8760  0.4059
 3382SOL     OW21074   4.301   7.027   3.219  0.2629  0.0015  1.0148
 3382SOL    HW121075   4.322   7.090   3.294 -0.9921  2.2289 -0.4182
 3382SOL    HW221076   4.213   6.983   3.237 -0.0038  0.4811  0.9016
 3383SOL     OW21077   2.663   5.043   0.358 -0.5303 -0.0767 -0.2314
 3383SOL    HW121078   2.650   4.964   0.299 -1.6642  1.2910 -1.8794
 3383SOL    HW221079   2.645   5.017   0.453  0.9727 -2.2182 -0.5030
 3384SOL     OW21080   7.578   0.734   5.924  0.2363  0.0037 -0.1377
 3384SOL    HW121081   7.591   0.671   5.847 -0.0454 -2.1949  1.5714
 3384SOL    HW221082   7.667   0.770   5.953  0.2974  1.2968 -1.8074
 3385SOL     OW21083   2.028   9.623   2.263 -0.1593  0.3117 -0.0995
 3385SOL    HW121084   2.035   9.577   2.174  0.2350  0.5298 -0.1811
 3385SOL    HW221085   2.066   9.715   2.256  0.2933  0.1627  0.4143
 3386SOL     OW21086   3.177   7.360   5.219  0.0175 -0.3774 -0.1519
 3386SOL    HW121087   3.240   7.285   5.195 -0.2898 -0.8712  0.5662
 3386SOL    HW221088   3.148   7.407   5.136  2.3322  0.6720 -0.4163
 3387SOL     OW21089   3.915   2.116   3.578  0.2721 -0.5902 -0.3214
 3387SOL    HW121090   3.944   2.022   3.559  0.4028 -0.5386 -0.3798
 3387SOL    HW221091   3.881   2.158   3.495  0.8290 -0.3691 -0.4360
 3388SOL     OW21092   7.501   2.644   2.689  0.0899  0.2486 -0.3340
 3388SOL    HW121093   7.546   2.605   2.609  0.1867  0.1126 -0.2147
 3388SOL    HW221094   7.553   2.723   2.722  1.5352 -1.3003  1.1898
 3389SOL     OW21095   0.464   5.655   5.247  0.7463  0.4888  0.2788
 3389SOL    HW121096   0.380   5.648   5.193  1.0710  0.5662 -0.2290
 3389SOL    HW221097   0.478   5.750   5.276  0.6210  0.4625  0.4333
 3390SOL     OW21098   3.156   0.741   2.572  0.0546 -0.4407 -0.0112
 3390SOL    HW121099   3.151   0.817   2.507 -0.3085 -0.9943 -0.6390
 3390SOL    HW221100   3.190   0.775   2.660 -0.9145  0.6258 -0.0243
 3391SOL     OW21101   4.819   9.562   2.182  0.3670 -0.0504 -0.1761
 3391SOL    HW121102   4.775   9.528   2.265  1.1922 -0.8965 -0.0768
 3391SOL    HW221103   4.775   9.522   2.102  1.1141 -1.1241 -0.0686
 3392SOL     OW21104   9.707   0.467   4.119  0.1858 -0.1598 -0.0860
 3392SOL    HW121105   9.787   0.472   4.179  0.0233  2.0347 -0.0318
 3392SOL    HW221106   9.654   0.551   4.126 -0.8831 -0.6545 -1.8620
 3393SOL     OW21107   7.936   3.791   3.612 -0.1806  0.1754 -0.2341
 3393SOL    HW121108   7.998   3.845   3.669  0.2797 -2.7352  2.1289
 3393SOL    HW221109   7.988   3.724   3.560 -1.0303 -0.0312 -0.8336
 3394SOL     OW21110   9.235   2.213   4.244 -0.5001 -0.1702 -0.1235
 3394SOL    HW121111   9.244   2.159   4.327 -1.8468 -2.2834 -1.3018
 3394SOL    HW221112   9.237   2.310   4.266  2.1651 -0.6716  2.0285
 3395SOL     OW21113   0.372   5.005   6.389 -0.3837  0.2366 -0.0763
 3395SOL    HW121114   0.418   4.981   6.304 -0.0968 -3.6140  1.0974
 3395SOL    HW221115   0.291   4.948   6.401  0.2912 -0.2026  2.8299
 3396SOL     OW21116   4.292   2.598   2.921 -0.3301  0.6139 -0.0838
 3396SOL    HW121117   4.265   2.555   3.008  1.3869 -0.9779 -0.3034
 3396SOL    HW221118   4.321   2.692   2.938 -1.9626  0.9767  0.7616
 3397SOL     OW21119   3.335   6.637   4.382  0.9612  0.4243  0.3032
 3397SOL    HW121120   3.310   6.628   4.478  2.1861  2.2006  0.8369
 3397SOL    HW221121   3.341   6.547   4.340  0.2518 -0.3620  1.8467
 3398SOL     OW21122   1.203   3.381   0.427  0.4189 -0.7713  0.3611
 3398SOL    HW121123   1.147   3.359   0.347 -0.7438  2.1936  0.2649
 3398SOL    HW221124   1.151   3.361   0.510  0.0311 -0.0924  0.2927
 3399SOL     OW21125   3.308   0.183   3.981  0.2345  0.1123 -0.2136
 3399SOL    HW121126   3.255   0.168   4.064 -0.0245 -0.2936 -0.4527
 3399SOL    HW221127   3.386   0.120   3.979  0.0379 -0.1267 -0.4503
 3400SOL     OW21128   5.128   4.346   1.102  0.2114  0.1409 -0.1064
 3400SOL    HW121129   5.083   4.394   1.177 -0.1619  0.2024 -0.3677
 3400SOL    HW221130   5.059   4.306   1.042  0.5260 -0.9083  0.2247
 3401SOL     OW21131   3.256   1.143   1.592  0.2944  0.0671  0.1607
 3401SOL    HW121132   3.254   1.045   1.615 -1.3665  0.5145  1.9975
 3401SOL    HW221133   3.183   1.164   1.528  0.0225  0.2916  0.5435
 3402SOL     OW21134   8.430   9.993   2.256  0.3587 -0.5329  0.5462
 3402SOL    HW121135   8.366   9.918   2.273  0.2713 -0.5297  0.2510
 3402SOL    HW221136   8.519   9.956   2.231 -0.2075 -0.5682 -1.5415
 3403SOL     OW21137   8.390   2.239   4.220  0.0110 -0.3480 -0.3097
 3403SOL    HW121138   8.418   2.181   4.296 -3.1061 -1.8961 -0.2550
 3403SOL    HW221139   8.317   2.301   4.250  0.5140  0.8032 -1.3934
 3404SOL     OW21140   7.756   1.506   5.753  0.1047  0.1458  0.2615
 3404SOL    HW121141   7.851   1.489   5.781  0.6072  0.5485 -1.1641
 3404SOL    HW221142   7.729   1.437   5.686 -0.1346  0.8818 -0.4058
 3405SOL     OW21143   8.818   2.497   4.230  0.2776  0.2132  0.5545
 3405SOL    HW121144   8.790   2.415   4.280  1.1213  0.5383  1.6023
 3405SOL    HW221145   8.738   2.542   4.192 -0.2046 -1.0590  0.0223
 3406SOL     OW21146   8.732   4.646   2.791 -0.0061  0.1967 -0.0280
 3406SOL    HW121147   8.720   4.737   2.751  1.8446  0.5297  0.1557
 3406SOL    HW221148   8.719   4.652   2.890 -2.5838 -0.2666 -0.2870
 3407SOL     OW21149   3.733   9.290   3.420  0.1925 -0.0348  0.0995
 3407SOL    HW121150   3.737   9.190   3.422 -0.8362 -0.1885 -2.8740
 3407SOL    HW221151   3.823   9.326   3.395 -0.1811 -0.3784 -1.7945
 3408SOL     OW21152   3.901   5.489   0.131 -0.5298 -0.0884  0.1314
 3408SOL    HW121153   3.862   5.451   0.047 -1.6566  0.0199  0.5938
 3408SOL    HW221154   3.909   5.417   0.199 -3.0524  0.5302  1.1483
 3409SOL     OW21155   3.141   3.180   4.525  0.0757  0.1510 -0.0414
 3409SOL    HW121156   3.077   3.136   4.462  1.0681  0.1453 -1.0633
 3409SOL    HW221157   3.210   3.229   4.473  0.5065  0.7383  1.0659
 3410SOL     OW21158   2.723   4.724   4.881 -0.4961 -0.8374  0.8617
 3410SOL    HW121159   2.664   4.645   4.895 -1.4965 -0.2412  0.1015
 3410SOL    HW221160   2.692   4.800   4.939  0.6476 -1.0751  1.8250
 3411SOL     OW21161   8.809   8.855   3.057  0.3505 -0.5787  0.1721
 3411SOL    HW121162   8.886   8.888   3.111 -0.3135 -1.3098  1.5661
 3411SOL    HW221163   8.798   8.913   2.976  1.0850  0.7630  1.0262
 3412SOL     OW21164   2.553   4.549   1.929  0.3781 -0.0654  0.2631
 3412SOL    HW121165   2.553   4.641   1.891  0.7792 -0.3936 -0.5197
 3412SOL    HW221166   2.643   4.507   1.918  0.1415 -0.6295  0.4379
 3413SOL     OW21167   9.835   1.445   4.470  0.2543  0.6314  0.3064
 3413SOL    HW121168   9.884   1.412   4.389  0.4865  1.4279  0.1140
 3413SOL    HW221169   9.872   1.533   4.497 -0.0131  0.4991  1.1212
 3414SOL     OW21170   7.212   1.459   2.020 -0.1099 -0.3708 -0.2080
 3414SOL    HW121171   7.257   1.391   1.963  0.1707 -0.1624 -0.2357
 3414SOL    HW221172   7.114   1.455   2.005 -0.0070 -0.0388 -1.0103
 3415SOL     OW21173   8.151   3.262   1.702 -0.3920 -1.1957  0.2222
 3415SOL    HW121174   8.168   3.169   1.736 -0.8221 -0.6168  2.0656
 3415SOL    HW221175   8.133   3.323   1.779  1.4689  0.7839 -0.8524
 3416SOL     OW21176   6.162   9.802   2.422  0.0134 -0.3978  0.0098
 3416SOL    HW121177   6.086   9.738   2.407 -0.5490  0.2856 -0.0617
 3416SOL    HW221178   6.141   9.890   2.380  0.4775  0.0605  0.7164
 3417SOL     OW21179   8.628   5.134   1.898  0.6711 -0.9440  0.1511
 3417SOL    HW121180   8.597   5.085   1.817  0.3003 -2.7146  1.3351
 3417SOL    HW221181   8.717   5.176   1.881 -0.6582  1.0816 -2.0788
 3418SOL     OW21182   3.290   3.627   0.998 -0.5283 -0.0912 -0.1152
 3418SOL    HW121183   3.317   3.615   0.903 -1.6463 -2.5951 -0.1872
 3418SOL    HW221184   3.192   3.647   1.002 -0.5412 -0.2634  0.4965
 3419SOL     OW21185   0.130   7.259   4.377 -0.0670  0.2075  0.2531
 3419SOL    HW121186   0.119   7.234   4.473 -0.7503 -1.9216 -0.3522
 3419SOL    HW221187   0.227   7.277   4.358 -0.0869  1.9138  1.6035
 3420SOL     OW21188   9.052   7.612   2.266  0.3416 -0.2301  0.2314
 3420SOL    HW121189   8.964   7.637   2.225  0.3306  0.1858  0.5038
 3420SOL    HW221190   9.119   7.594   2.194  0.2852  0.3610  0.0266
 3421SOL     OW21191   5.967   1.035   3.111 -0.0959  0.5294  0.0846
 3421SOL    HW121192   5.874   1.005   3.135 -0.8876  3.0015  0.2607
 3421SOL    HW221193   6.029   0.956   3.114 -2.4449 -1.4569 -1.4970
 3422SOL     OW21194   8.970   3.895   5.616  0.7318 -0.5585  0.2762
 3422SOL    HW121195   9.035   3.865   5.547  2.2570  0.0445  1.4149
 3422SOL    HW221196   9.016   3.901   5.705 -0.4533  1.4876  0.7883
 3423SOL     OW21197   6.490   0.337   4.060 -0.0182 -0.6513 -0.0504
 3423SOL    HW121198   6.444   0.323   4.148 -0.8974  0.2854 -0.3410
 3423SOL    HW221199   6.580   0.294   4.061 -0.0879 -0.7730  1.2550
 3424SOL     OW21200   9.344   3.951   3.880  0.1957  0.2545  0.3640
 3424SOL    HW121201   9.363   3.997   3.967  1.6718  0.3212  0.0135
 3424SOL    HW221202   9.335   4.019   3.807  0.9343  0.0804  0.1076
 3425SOL     OW21203   4.278   3.629   3.937  0.0950  0.5356  0.0438
 3425SOL    HW121204   4.196   3.647   3.882 -0.7152 -1.4810  0.5198
 3425SOL    HW221205   4.253   3.569   4.014  1.5900  1.7015  1.4687
 3426SOL     OW21206   8.970   1.741   4.237  0.1472  0.2346  0.2552
 3426SOL    HW121207   8.874   1.737   4.264  0.0561 -0.0863 -0.1075
 3426SOL    HW221208   8.983   1.814   4.170 -0.1819 -0.8406 -1.0092
 3427SOL     OW21209   4.110   4.885   0.931  0.1798 -0.2374  0.2048
 3427SOL    HW121210   4.091   4.978   0.961  0.6169 -0.2292  0.4562
 3427SOL    HW221211   4.112   4.824   1.010 -1.2173 -0.6634 -0.0563
 3428SOL     OW21212   6.094   0.528   5.324  0.1329 -0.0110 -0.2906
 3428SOL    HW121213   6.193   0.541   5.330  0.1823  0.5628 -1.9551
 3428SOL    HW221214   6.071   0.485   5.236 -1.1146  0.2478 -0.1025
 3429SOL     OW21215   1.218   0.405   4.307  0.4071 -0.2594  0.0395
 3429SOL    HW121216   1.226   0.305   4.301 -0.5710 -0.2987 -0.8789
 3429SOL    HW221217   1.290   0.448   4.253  1.0764 -0.4618  0.7671
 3430SOL     OW21218   7.068   9.640   5.299  0.1959 -0.0649 -0.4757
 3430SOL    HW121219   7.001   9.566   5.299 -0.8956  0.9040 -0.0910
 3430SOL    HW221220   7.046   9.705   5.372 -0.6720  2.2075 -2.6563
 3431SOL     OW21221   8.747   7.083   3.473 -0.0006 -0.0472 -0.2511
 3431SOL    HW121222   8.777   7.175   3.498 -0.2117 -0.3717  1.2631
 3431SOL    HW221223   8.653   7.086   3.439 -0.8746  0.0229  2.0480
 3432SOL     OW21224   8.632   5.892   1.346 -0.5226  0.3351 -0.2920
 3432SOL    HW121225   8.607   5.834   1.424 -0.9641  0.0722 -0.6270
 3432SOL    HW221226   8.729   5.880   1.325  0.3051  2.5540  2.0332
 3433SOL     OW21227   1.822   9.590   4.661  0.6333 -0.0358  0.0288
 3433SOL    HW121228   1.843   9.597   4.759 -1.1455 -1.4490  0.5238
 3433SOL    HW221229   1.830   9.681   4.620 -0.2368  0.9035  1.8360
 3434SOL     OW21230   1.896   7.956   5.831 -0.4777  0.2996  0.4129
 3434SOL    HW121231   1.846   7.870   5.845 -1.5196  0.3779 -2.4632
 3434SOL    HW221232   1.851   8.029   5.883  0.3897 -0.8394  2.8479
 3435SOL     OW21233   7.584   9.419   5.768 -0.3851  0.6514 -0.3554
 3435SOL    HW121234   7.629   9.441   5.854  0.6645 -1.2663 -0.3723
 3435SOL    HW221235   7.487   9.442   5.773 -0.1833  1.1754  1.0928
 3436SOL     OW21236   3.500   0.966   2.611  0.6434 -0.2656 -0.4536
 3436SOL    HW121237   3.569   0.954   2.683 -1.4792 -2.5217  1.3317
 3436SOL    HW221238   3.428   1.027   2.644  0.4812  0.0115 -1.3148
 3437SOL     OW21239   0.960   8.777   1.075  0.4149  0.2707  0.1114
 3437SOL    HW121240   0.989   8.728   1.157  0.8267 -1.3697 -0.9770
 3437SOL    HW221241   0.927   8.711   1.008  2.9019  1.2524 -2.1834
 3438SOL     OW21242   0.187   6.243   3.876  0.2240 -0.5402  0.5674
 3438SOL    HW121243   0.124   6.215   3.948  0.1700 -3.0083 -0.4161
 3438SOL    HW221244   0.142   6.238   3.788  1.3291 -0.8523  0.0054
 3439SOL     OW21245   4.290   2.377   4.240 -0.4100  0.4867 -0.3031
 3439SOL    HW121246   4.301   2.391   4.142 -1.6016  0.3906 -0.4687
 3439SOL    HW221247   4.330   2.454   4.290  0.6160  0.3090 -0.8378
 3440SOL     OW21248   5.610   8.745   2.559  0.6163  0.1080  0.1446
 3440SOL    HW121249   5.687   8.788   2.511 -0.8300  0.8998 -1.5500
 3440SOL    HW221250   5.532   8.807   2.558  0.2992 -0.1819  2.9239
 3441SOL     OW21251   4.407   1.196   1.277  0.3860  0.7484 -0.6902
 3441SOL    HW121252   4.469   1.240   1.342  1.0861  0.4548 -1.1619
 3441SOL    HW221253   4.416   1.239   1.187 -0.2825  0.8770 -0.7013
 3442SOL     OW21254   0.682   7.558   5.986  0.3084  0.9349 -0.0612
 3442SOL    HW121255   0.701   7.473   6.036 -0.2281  0.9316  0.1448
 3442SOL    HW221256   0.757   7.623   6.001  0.1423  0.9445  0.7801
 3443SOL     OW21257   9.935   3.696   1.058 -0.2994  0.3794  0.1403
 3443SOL    HW121258   9.909   3.668   1.150 -2.0148  1.5496  0.0347
 3443SOL    HW221259   9.854   3.693   0.998  0.9580 -1.2024 -1.5566
 3444SOL     OW21260   6.661   7.304   5.166 -0.1334  0.4046 -0.0423
 3444SOL    HW121261   6.733   7.298   5.235  0.3818 -0.3547 -0.6378
 3444SOL    HW221262   6.574   7.327   5.210  0.4515  1.2377  0.6892
 3445SOL     OW21263   7.748   5.972   4.625  0.5767  0.0611  0.8740
 3445SOL    HW121264   7.669   5.995   4.568  0.3127 -2.9162 -0.0436
 3445SOL    HW221265   7.719   5.961   4.719  0.0752 -0.1113  0.7010
 3446SOL     OW21266   6.484   8.533   3.780  0.1480  0.0348  1.2758
 3446SOL    HW121267   6.582   8.523   3.799  0.2813  0.4694  0.8313
 3446SOL    HW221268   6.463   8.630   3.768 -0.7271  0.1650  3.4973
 3447SOL     OW21269   3.430   6.296   2.865  1.0178  0.5321  0.2253
 3447SOL    HW121270   3.446   6.391   2.838  2.3383  0.7659  1.7456
 3447SOL    HW221271   3.451   6.285   2.962  1.4735 -1.4537 -0.0770
 3448SOL     OW21272   3.117   6.988   2.710 -0.4776 -0.1043  0.0472
 3448SOL    HW121273   3.088   6.893   2.722  0.8424 -0.3056  1.9455
 3448SOL    HW221274   3.125   7.031   2.800 -2.9168  2.4095 -0.8592
 3449SOL     OW21275   9.699   6.617   3.136  0.2786  0.4060 -0.3335
 3449SOL    HW121276   9.643   6.677   3.193 -1.3996 -1.1792 -0.2389
 3449SOL    HW221277   9.772   6.670   3.093  1.3408  1.7225  2.9160
 3450SOL     OW21278   0.216   2.765   2.037  0.1128  0.0604 -0.2844
 3450SOL    HW121279   0.298   2.822   2.031  1.6884 -2.0349  0.7692
 3450SOL    HW221280   0.192   2.730   1.946  2.7356 -2.5107 -0.0352
 3451SOL     OW21281   0.497   6.531   2.689 -0.0274  0.4088  0.5228
 3451SOL    HW121282   0.529   6.470   2.762 -1.5170 -2.5887 -1.2652
 3451SOL    HW221283   0.545   6.510   2.604 -0.7819  1.5407 -0.1909
 3452SOL     OW21284   2.412   6.527   3.347 -0.2410  0.4561  0.3832
 3452SOL    HW121285   2.509   6.553   3.347 -0.3298  0.8075  2.0383
 3452SOL    HW221286   2.370   6.554   3.433 -1.3146 -1.5790  0.5274
 3453SOL     OW21287   4.305   4.241   0.656 -0.0021 -0.2196 -0.4899
 3453SOL    HW121288   4.398   4.215   0.633  0.2269  0.8852 -0.8452
 3453SOL    HW221289   4.291   4.338   0.636 -1.0386 -0.2218  0.1457
 3454SOL     OW21290   4.604   3.715   6.530 -0.2133 -0.3100 -0.0194
 3454SOL    HW121291   4.624   3.755   6.440 -0.7768 -0.4360 -0.2010
 3454SOL    HW221292   4.661   3.634   6.543 -1.9455 -1.8028 -1.3574
 3455SOL     OW21293   9.863   9.003   0.782  0.5584  0.5249 -0.1543
 3455SOL    HW121294   9.809   9.007   0.698  2.7395 -0.1033 -1.6207
 3455SOL    HW221295   9.858   8.910   0.820  0.8869  0.3732 -0.4798
 3456SOL     OW21296   8.146   2.542   1.653 -0.1560  0.0063 -0.9764
 3456SOL    HW121297   8.202   2.529   1.735 -0.9371  1.0223 -0.2673
 3456SOL    HW221298   8.194   2.505   1.573  0.0717 -2.1220  0.1154
 3457SOL     OW21299   6.493   8.156   3.489 -0.6776 -0.2460  0.0750
 3457SOL    HW121300   6.566   8.089   3.481  0.9628  1.5650 -0.3964
 3457SOL    HW221301   6.422   8.137   3.421  1.0731  0.0942 -1.8839
 3458SOL     OW21302   6.147   0.448   4.003  0.2646 -0.0267 -0.2415
 3458SOL    HW121303   6.194   0.388   3.938  1.8307  0.9173  0.0026
 3458SOL    HW221304   6.193   0.443   4.092 -1.1843 -0.4438  0.4998
 3459SOL     OW21305   4.053   1.002   3.362  0.0747 -0.8054  0.2604
 3459SOL    HW121306   4.084   1.093   3.333 -1.5117 -0.4536 -0.3550
 3459SOL    HW221307   4.040   1.000   3.461  0.0703 -0.3501  0.2677
 3460SOL     OW21308   3.162   1.292   1.267  0.0343  0.1599 -0.4662
 3460SOL    HW121309   3.108   1.279   1.350  1.2103 -1.6366  0.0332
 3460SOL    HW221310   3.218   1.211   1.250  2.0183  1.6787 -1.3785
 3461SOL     OW21311   9.611   1.392   2.552 -0.3339  0.3680  0.1220
 3461SOL    HW121312   9.705   1.425   2.559 -0.7805  1.8562 -0.6811
 3461SOL    HW221313   9.580   1.359   2.641  0.5868  0.8870  0.6427
 3462SOL     OW21314   0.155   2.544   0.467  0.2388 -0.4009  0.0403
 3462SOL    HW121315   0.146   2.623   0.407  0.3041  0.4008  1.0723
 3462SOL    HW221316   0.073   2.536   0.524 -0.0307 -1.4387 -0.4751
 3463SOL     OW21317   4.284   7.802   2.882 -0.1273  0.1299  0.2472
 3463SOL    HW121318   4.380   7.779   2.903  0.1627  1.0453 -0.0629
 3463SOL    HW221319   4.232   7.717   2.868  0.1909 -0.4478  2.3355
 3464SOL     OW21320   3.879   5.194   6.636 -0.3507 -0.1024 -0.0599
 3464SOL    HW121321   3.893   5.110   6.584  2.2161  0.3775 -0.1983
 3464SOL    HW221322   3.935   5.192   6.719  0.4158  1.8242 -0.4920
 3465SOL     OW21323   3.406   3.502   0.060 -0.0479  0.0384 -0.1528
 3465SOL    HW121324   3.325   3.549   0.025  0.8446  0.7258 -1.3002
 3465SOL    HW221325   3.487   3.558   0.043  0.9668 -1.6822 -1.0770
 3466SOL     OW21326   3.494   6.977   0.688 -0.4476  0.1560  0.0931
 3466SOL    HW121327   3.588   6.946   0.703 -0.4154  0.3064  0.1985
 3466SOL    HW221328   3.474   6.977   0.590  0.2269  1.7933 -0.0533
 3467SOL     OW21329   7.485   7.415   4.234  0.2640 -0.8462 -0.3540
 3467SOL    HW121330   7.546   7.336   4.243  0.7630 -0.7202 -2.4076
 3467SOL    HW221331   7.498   7.475   4.313  0.9449 -2.0715  0.4995
 3468SOL     OW21332   7.624   9.872   5.035 -0.4935  0.2112  0.0598
 3468SOL    HW121333   7.620   9.967   5.067 -0.0799  0.5563 -0.9063
 3468SOL    HW221334   7.716   9.852   5.001 -1.5657  0.6393 -3.2672
 3469SOL     OW21335   4.296   9.320   3.245 -0.2100 -0.3635 -0.1096
 3469SOL    HW121336   4.350   9.237   3.231 -0.1435 -0.2611 -0.4774
 3469SOL    HW221337   4.331   9.370   3.324 -0.7779 -1.1070  0.6156
 3470SOL     OW21338   1.971   5.431   5.674 -1.0369 -0.2733  0.0431
 3470SOL    HW121339   1.984   5.530   5.672 -0.5647 -0.3370 -0.1049
 3470SOL    HW221340   1.920   5.402   5.592  1.8226 -0.5686 -1.7054
 3471SOL     OW21341   9.956   3.153   6.407  0.1945  0.0084 -0.0642
 3471SOL    HW121342   9.858   3.147   6.391  0.3188 -0.7611 -0.5707
 3471SOL    HW221343   9.987   3.072   6.456  0.9364 -0.8503 -1.8801
 3472SOL     OW21344   2.060   7.242   4.474  0.3704  0.9636 -0.0363
 3472SOL    HW121345   2.087   7.332   4.437  1.3800  1.0635  0.9292
 3472SOL    HW221346   1.983   7.207   4.421 -0.8140  2.9414  0.3026
 3473SOL     OW21347   3.743   6.689   4.432  0.2735  0.0632 -0.1738
 3473SOL    HW121348   3.765   6.627   4.507  0.1559 -1.2795 -1.2244
 3473SOL    HW221349   3.671   6.648   4.376  0.3663  1.0509 -1.0196
 3474SOL     OW21350   0.855   5.645   6.678  0.3378 -0.4208  0.4638
 3474SOL    HW121351   0.868   5.687   6.768  2.0718  0.3541 -0.1276
 3474SOL    HW221352   0.822   5.714   6.613  0.1144 -0.7313  0.2438
 3475SOL     OW21353   1.077   2.751   2.330  0.7472  0.1116 -0.5497
 3475SOL    HW121354   1.173   2.757   2.304  0.4740  0.1703 -1.5667
 3475SOL    HW221355   1.059   2.814   2.406  0.5048  3.5977 -3.3768
 3476SOL     OW21356   5.092   4.701   1.708 -0.6874  0.0476 -0.4715
 3476SOL    HW121357   5.070   4.732   1.615 -1.9744 -2.1114 -0.9191
 3476SOL    HW221358   5.187   4.722   1.728 -0.4875  0.8774 -2.1446
 3477SOL     OW21359   4.235   6.987   2.960 -0.2577 -0.3835 -0.2430
 3477SOL    HW121360   4.323   6.996   2.915 -0.8213 -0.1058 -1.2974
 3477SOL    HW221361   4.246   7.006   3.058  0.1616  3.7800 -0.9823
 3478SOL     OW21362   7.920   9.235   3.647 -0.5066 -0.2565 -0.1196
 3478SOL    HW121363   7.995   9.171   3.661 -0.4994 -0.3013 -0.3524
 3478SOL    HW221364   7.860   9.235   3.727  0.5199  0.8263  0.6702
 3479SOL     OW21365   0.573   8.445   3.326  0.4746 -0.4958 -0.8441
 3479SOL    HW121366   0.655   8.491   3.360  0.7849 -1.7160  0.0644
 3479SOL    HW221367   0.599   8.361   3.279 -0.0210  0.6846 -3.3272
 3480SOL     OW21368   5.620   9.116   3.264  0.3327 -0.2203 -0.4699
 3480SOL    HW121369   5.615   9.025   3.306  0.2591 -0.1947 -0.4250
 3480SOL    HW221370   5.640   9.107   3.166  1.9086 -0.2281 -0.1529
 3481SOL     OW21371   5.227   5.565   2.088 -0.3937 -0.6613  0.3595
 3481SOL    HW121372   5.251   5.640   2.150 -0.8849 -0.1529 -0.0651
 3481SOL    HW221373   5.142   5.523   2.118 -0.9691 -0.0014 -0.3359
 3482SOL     OW21374   2.893   3.838   2.868  0.2224  0.4951  0.1210
 3482SOL    HW121375   2.796   3.862   2.863 -0.0017 -0.5421 -0.6202
 3482SOL    HW221376   2.944   3.890   2.800 -0.0897 -0.2825 -0.7127
 3483SOL     OW21377   9.072   2.348   3.794 -0.2509  0.2239 -0.6803
 3483SOL    HW121378   9.062   2.401   3.879  1.6282  0.9170 -0.8646
 3483SOL    HW221379   9.009   2.384   3.725 -0.1041  1.2365 -0.3061
 3484SOL     OW21380   6.030   2.537   3.695 -0.3057  0.2797  0.2331
 3484SOL    HW121381   5.936   2.553   3.668 -1.0538 -2.7506  0.7941
 3484SOL    HW221382   6.033   2.495   3.786  1.6935  2.0941  1.0515
 3485SOL     OW21383   2.134   0.538   1.955  0.1741  0.1688 -0.0862
 3485SOL    HW121384   2.044   0.518   1.917  0.8099 -2.1541 -0.4765
 3485SOL    HW221385   2.163   0.630   1.928 -0.9334 -0.0904 -2.1990
 3486SOL     OW21386   0.298   4.252   5.946 -0.3472  0.1060  0.4203
 3486SOL    HW121387   0.346   4.220   6.028  1.0849  0.3443 -0.3100
 3486SOL    HW221388   0.217   4.304   5.974  0.4886  0.7592  1.7110
 3487SOL     OW21389   9.553   5.734   0.276 -0.1798 -0.4281 -0.8123
 3487SOL    HW121390   9.552   5.676   0.195 -1.0332  0.2217 -1.2669
 3487SOL    HW221391   9.482   5.705   0.339  0.8464 -1.2914 -0.0308
 3488SOL     OW21392   1.525   8.744   4.788 -0.3706 -0.6380 -0.7907
 3488SOL    HW121393   1.623   8.744   4.767 -0.3719 -1.7326 -0.8320
 3488SOL    HW221394   1.475   8.790   4.714  0.1782  0.6489 -0.3775
 3489SOL     OW21395   7.808   0.998   1.356  0.0180 -0.1304 -0.0532
 3489SOL    HW121396   7.770   0.940   1.427 -0.4850 -0.2871 -0.4436
 3489SOL    HW221397   7.761   1.086   1.356  0.6854  0.2271  0.4474
 3490SOL     OW21398   3.784   5.588   3.550 -0.5032  0.7005 -0.5626
 3490SOL    HW121399   3.797   5.498   3.593 -0.6414  1.6421  1.5024
 3490SOL    HW221400   3.686   5.603   3.533 -0.4271  0.2298 -1.4679
 3491SOL     OW21401   5.451   0.552   3.566  0.3825  0.2547 -0.3015
 3491SOL    HW121402   5.452   0.642   3.522 -3.6003 -0.4567 -2.1124
 3491SOL    HW221403   5.451   0.481   3.495 -0.3970 -1.0679  0.9932
 3492SOL     OW21404   0.744   5.226   6.528  0.1513 -0.5010 -0.0968
 3492SOL    HW121405   0.742   5.290   6.452 -0.0313 -0.6697 -0.2329
 3492SOL    HW221406   0.780   5.138   6.497 -0.1374 -0.6387 -0.0413
 3493SOL     OW21407   0.015   3.418   6.014  0.2260  0.9183 -0.0842
 3493SOL    HW121408   0.081   3.458   6.078 -0.1597 -0.0872  0.9510
 3493SOL    HW221409  -0.073   3.465   6.025 -0.6715 -1.2287  2.2604
 3494SOL     OW21410   9.069   6.647   1.455  0.3252  0.0529  0.0167
 3494SOL    HW121411   9.015   6.725   1.487 -0.6904 -0.2335 -0.9731
 3494SOL    HW221412   9.122   6.675   1.375  0.8908  0.0604  0.3932
 3495SOL     OW21413   8.294   2.837   2.536  0.7327 -0.2626  0.7833
 3495SOL    HW121414   8.314   2.928   2.572 -1.2222  0.4233  0.2033
 3495SOL    HW221415   8.355   2.817   2.459 -0.1717  1.4128 -0.4013
 3496SOL     OW21416   7.027   9.732   3.793  0.1171  0.0389 -0.6002
 3496SOL    HW121417   6.929   9.747   3.788  0.1192  0.0076 -0.7227
 3496SOL    HW221418   7.069   9.804   3.849 -0.1600 -0.7282  0.6251
 3497SOL     OW21419   3.597   8.985   3.270 -0.4392 -0.1042  0.9556
 3497SOL    HW121420   3.644   8.951   3.352  0.4407  2.7307  1.6737
 3497SOL    HW221421   3.658   9.045   3.219 -1.9923  0.5154 -0.2148
 3498SOL     OW21422   9.288   7.673   3.193 -0.9484  0.4152 -0.5488
 3498SOL    HW121423   9.258   7.669   3.098 -0.6704  1.6062 -0.6914
 3498SOL    HW221424   9.346   7.593   3.213 -2.0612 -0.5192 -0.9985
 3499SOL     OW21425   9.216   5.117   1.027 -0.5806 -0.3376  0.2280
 3499SOL    HW121426   9.146   5.082   1.088 -2.2327  0.8628 -0.9296
 3499SOL    HW221427   9.219   5.061   0.944  1.1461 -1.5203  1.0619
 3500SOL     OW21428   3.696   1.383   1.582 -0.1002  0.4753  0.3579
 3500SOL    HW121429   3.740   1.323   1.647  0.3948  0.4796  0.0264
 3500SOL    HW221430   3.599   1.359   1.575  0.1629 -0.5266 -0.0388
 3501SOL     OW21431   2.671   9.967   2.136  0.1071  0.2486 -0.0829
 3501SOL    HW121432   2.590   9.928   2.179  0.5316  1.0066  1.4455
 3501SOL    HW221433   2.664   9.958   2.037 -1.2308 -0.8653  0.1023
 3502SOL     OW21434   4.337   4.082   1.634 -0.0475  0.0101 -0.2903
 3502SOL    HW121435   4.239   4.090   1.651 -0.0328  0.6922 -0.4976
 3502SOL    HW221436   4.386   4.145   1.695  0.1307  1.1131 -1.5489
 3503SOL     OW21437   7.386   0.453   2.381  0.2864 -0.4927 -0.0878
 3503SOL    HW121438   7.323   0.439   2.457  0.9282 -1.2824  0.3171
 3503SOL    HW221439   7.343   0.510   2.311 -0.3434  0.1716  0.8284
 3504SOL     OW21440   9.476   4.562   5.892 -0.5068  0.0377  0.5290
 3504SOL    HW121441   9.524   4.643   5.926 -2.3870  0.4084  2.4028
 3504SOL    HW221442   9.469   4.567   5.793  2.1841  0.5860  0.3086
 3505SOL     OW21443   3.529   4.432   3.846  0.2669  0.0504 -0.4332
 3505SOL    HW121444   3.512   4.337   3.873 -0.1993 -0.3440 -2.0682
 3505SOL    HW221445   3.615   4.463   3.885  0.3705 -1.0137  0.1936
 3506SOL     OW21446   2.943   4.140   6.085  0.4334  0.5033 -0.3760
 3506SOL    HW121447   2.868   4.126   6.020  0.8019 -4.6817  0.0559
 3506SOL    HW221448   3.029   4.141   6.035  0.5950 -1.9277 -0.2412
 3507SOL     OW21449   7.733   0.902   5.385  0.3079 -0.4860 -0.6119
 3507SOL    HW121450   7.795   0.843   5.438 -2.2907 -0.8750  2.1387
 3507SOL    HW221451   7.693   0.849   5.310  0.5303 -1.2652 -0.1908
 3508SOL     OW21452   3.966   8.475   1.272  0.4359 -0.6946  0.0709
 3508SOL    HW121453   3.873   8.509   1.279  0.4995 -0.2843 -0.9173
 3508SOL    HW221454   4.015   8.493   1.357 -0.6959 -1.8899  0.9952
 3509SOL     OW21455   2.296   6.222   5.419  0.0448  0.7523 -0.9320
 3509SOL    HW121456   2.209   6.177   5.400  0.2001  0.8586 -1.9553
 3509SOL    HW221457   2.304   6.304   5.362  0.1237  1.6216  0.3079
 3510SOL     OW21458   5.794   0.132   0.495 -0.0855 -0.0945 -0.4198
 3510SOL    HW121459   5.810   0.154   0.591 -0.7885 -0.5619 -0.1899
 3510SOL    HW221460   5.876   0.153   0.442 -0.4641  2.3190 -0.1048
 3511SOL     OW21461   7.120   0.212   3.814  0.2012 -0.5243 -0.0328
 3511SOL    HW121462   7.084   0.209   3.720 -4.1358 -1.2557  1.5459
 3511SOL    HW221463   7.126   0.119   3.849 -0.3979 -0.1065  1.1898
 3512SOL     OW21464   9.502   6.374   5.189  0.0692  0.1349  0.0620
 3512SOL    HW121465   9.551   6.384   5.276 -1.1972  0.4457  0.7508
 3512SOL    HW221466   9.564   6.337   5.120  1.3044  0.6161  0.8937
 3513SOL     OW21467   0.750   8.118   4.078 -0.4150 -0.1215  0.5431
 3513SOL    HW121468   0.814   8.193   4.061  0.4136 -0.4220  2.2284
 3513SOL    HW221469   0.686   8.145   4.150 -1.4983 -0.2408 -0.3640
 3514SOL     OW21470   6.824   7.980   2.741  0.6028 -0.2203 -0.1483
 3514SOL    HW121471   6.786   7.914   2.805  0.5196  0.1168  0.1525
 3514SOL    HW221472   6.815   7.945   2.647  0.8139 -0.7509  0.0332
 3515SOL     OW21473   2.468   8.132   6.000 -0.8079  0.2731 -0.4127
 3515SOL    HW121474   2.561   8.123   6.037 -2.0057  3.2883  3.6470
 3515SOL    HW221475   2.416   8.050   6.023 -0.4556  0.5537  1.5294
 3516SOL     OW21476   1.413   8.204   1.784  0.4920 -0.4109 -0.1221
 3516SOL    HW121477   1.506   8.231   1.758  0.1514 -0.7788 -1.8040
 3516SOL    HW221478   1.371   8.153   1.709 -0.9955 -0.4442  0.7109
 3517SOL     OW21479   1.478   0.393   1.554  0.3510  0.3028  0.4288
 3517SOL    HW121480   1.550   0.366   1.490  0.6424  1.5757  0.2042
 3517SOL    HW221481   1.389   0.363   1.519  0.4094  1.7542 -1.0443
 3518SOL     OW21482   1.687   1.682   2.680  0.2604 -0.1825  0.3665
 3518SOL    HW121483   1.701   1.653   2.774  0.9859 -1.7787 -0.2150
 3518SOL    HW221484   1.729   1.771   2.665  0.9695 -0.3612  1.3017
 3519SOL     OW21485   3.096   4.357   1.138  0.1350 -0.2624  0.3420
 3519SOL    HW121486   3.077   4.454   1.126 -1.3193 -0.7047 -1.0731
 3519SOL    HW221487   3.116   4.338   1.234 -1.6925  1.0765  0.9961
 3520SOL     OW21488   2.142   1.756   4.815  0.0332 -0.5307 -0.4099
 3520SOL    HW121489   2.095   1.668   4.802  2.8944 -2.1035 -0.6458
 3520SOL    HW221490   2.153   1.802   4.727  0.7362 -1.1488 -0.6520
 3521SOL     OW21491   8.866   1.537   0.631  0.2378  0.0934  0.7786
 3521SOL    HW121492   8.778   1.491   0.621 -0.3542  1.0813  1.3574
 3521SOL    HW221493   8.923   1.486   0.695  0.0597 -0.5074  0.4676
 3522SOL     OW21494   3.849   5.022   6.299  0.3679  0.2545 -0.4396
 3522SOL    HW121495   3.830   5.119   6.289 -2.3579 -0.4037 -2.1979
 3522SOL    HW221496   3.850   4.978   6.208 -0.1083 -1.6132  0.4187
 3523SOL     OW21497   4.492   5.542   2.012  0.6782  0.4333  0.2133
 3523SOL    HW121498   4.403   5.511   1.979  1.5175 -1.8183 -0.0424
 3523SOL    HW221499   4.497   5.532   2.111 -0.1413  2.7196  0.5155
 3524SOL     OW21500   3.582   2.992   1.541 -0.5351  0.0486  0.0787
 3524SOL    HW121501   3.540   2.903   1.560 -0.8514 -0.1727 -1.6072
 3524SOL    HW221502   3.523   3.044   1.479  0.3724  0.8330 -0.1294
 3525SOL     OW21503   1.005   0.282   2.898  0.5659  0.3355 -0.1885
 3525SOL    HW121504   1.040   0.240   2.982  3.6168  1.6821 -0.7165
 3525SOL    HW221505   1.011   0.216   2.823 -0.2395 -0.1904  0.1951
 3526SOL     OW21506   8.246   9.224   0.372  0.7912  0.2756 -0.6036
 3526SOL    HW121507   8.223   9.164   0.448 -0.3448  0.4825 -0.7750
 3526SOL    HW221508   8.306   9.297   0.404 -0.6486  1.0599  0.3742
 3527SOL     OW21509   1.179   5.953   5.056 -0.6458  0.6905 -0.1079
 3527SOL    HW121510   1.158   5.982   5.150  0.4150  0.1204  0.3163
 3527SOL    HW221511   1.278   5.950   5.044 -0.7574 -0.9549 -0.7080
 3528SOL     OW21512   6.795   2.452   2.784 -0.4613  0.1348 -0.2347
 3528SOL    HW121513   6.835   2.495   2.865  0.0291 -0.3154 -0.2286
 3528SOL    HW221514   6.856   2.464   2.706 -0.9244  0.5512 -0.5363
 3529SOL     OW21515   8.316   4.052   1.187 -0.2202  0.1897  0.4872
 3529SOL    HW121516   8.385   3.995   1.141  0.5945  2.1596 -0.8044
 3529SOL    HW221517   8.358   4.138   1.215 -1.6310  0.4878  1.7235
 3530SOL     OW21518   7.902   6.598   2.584  0.0980  0.4008  0.1423
 3530SOL    HW121519   7.932   6.526   2.521 -2.2872 -0.0331 -0.5249
 3530SOL    HW221520   7.865   6.557   2.667  1.2209  0.9403  0.9308
 3531SOL     OW21521   3.795   8.902   4.598  0.1152 -0.1086  0.0021
 3531SOL    HW121522   3.858   8.891   4.674  1.1176  1.5410 -0.5531
 3531SOL    HW221523   3.809   8.991   4.556 -2.6209  0.3115 -0.1265
 3532SOL     OW21524   2.804   8.090   0.778 -0.0205  0.2981 -0.3240
 3532SOL    HW121525   2.827   8.186   0.763  0.9948  0.2077  0.6263
 3532SOL    HW221526   2.846   8.059   0.863 -1.1563 -0.7145 -0.1237
 3533SOL     OW21527   7.049   8.945   3.190  0.2633 -0.3259 -0.1333
 3533SOL    HW121528   7.077   9.013   3.257 -1.2873 -0.8339  1.0593
 3533SOL    HW221529   7.047   8.854   3.233 -2.1344 -0.4463 -0.4525
 3534SOL     OW21530   9.339   8.319   4.766  0.2426  0.1959  0.2900
 3534SOL    HW121531   9.349   8.231   4.721 -1.1032  0.0936  0.1901
 3534SOL    HW221532   9.363   8.392   4.702  2.2874 -0.1131  0.6569
 3535SOL     OW21533   1.642   2.162   2.154 -0.4225 -0.2485 -0.1032
 3535SOL    HW121534   1.579   2.126   2.222 -1.4519 -0.0994 -0.9742
 3535SOL    HW221535   1.624   2.259   2.139  1.0885  0.2006  0.8267
 3536SOL     OW21536   9.196   4.457   4.060 -0.2408  0.0545  0.0895
 3536SOL    HW121537   9.165   4.379   4.006 -2.1725 -0.5731  2.0375
 3536SOL    HW221538   9.160   4.542   4.020 -2.3132 -0.4692  0.8025
 3537SOL     OW21539   0.247   2.229   0.687  0.0059  0.0002 -0.1829
 3537SOL    HW121540   0.232   2.179   0.601 -0.4284  1.2585 -0.8520
 3537SOL    HW221541   0.275   2.323   0.667  0.0568  0.2607  1.0575
 3538SOL     OW21542   9.788   7.300   1.210  0.1498  0.1586 -0.5649
 3538SOL    HW121543   9.743   7.229   1.265  0.1077  1.5465  1.2191
 3538SOL    HW221544   9.829   7.258   1.129 -1.7682 -1.5803 -0.6803
 3539SOL     OW21545   1.508   2.744   1.942  0.1560 -0.0039 -0.1275
 3539SOL    HW121546   1.475   2.790   1.859  2.7056  1.3972 -0.4086
 3539SOL    HW221547   1.567   2.667   1.916 -0.1197 -0.3872  0.3783
 3540SOL     OW21548   9.361   7.369   3.282  0.5375  0.2818 -0.1793
 3540SOL    HW121549   9.285   7.370   3.218  1.8141  0.7646 -1.7120
 3540SOL    HW221550   9.365   7.280   3.327 -0.6939  0.1250 -0.3680
 3541SOL     OW21551   0.203   6.190   0.289  0.7221  0.0338  0.4441
 3541SOL    HW121552   0.147   6.158   0.212  1.6876 -0.1411 -0.1927
 3541SOL    HW221553   0.263   6.264   0.257  1.2263 -0.1407  1.0032
 3542SOL     OW21554   7.995   4.385   1.784  0.8357 -0.1737 -0.6398
 3542SOL    HW121555   7.978   4.286   1.785 -1.9845  0.2380 -1.7274
 3542SOL    HW221556   8.057   4.407   1.709 -0.4630 -0.9067 -1.9772
 3543SOL     OW21557   7.910   1.809   2.003 -0.0824  0.2675 -0.1758
 3543SOL    HW121558   7.992   1.800   2.060 -0.8872 -0.1890  0.9239
 3543SOL    HW221559   7.936   1.848   1.914  1.5885 -1.5233 -0.5203
 3544SOL     OW21560   3.744   0.179   4.042 -0.1574  0.0500 -0.2240
 3544SOL    HW121561   3.687   0.204   3.964  2.2646 -0.4675 -2.2236
 3544SOL    HW221562   3.780   0.087   4.030  1.1739  0.3835  0.9395
 3545SOL     OW21563   4.478   8.618   2.404 -0.0136  0.0959  0.4469
 3545SOL    HW121564   4.482   8.520   2.384 -1.0493  0.7139 -3.2003
 3545SOL    HW221565   4.569   8.658   2.396 -0.1018 -0.0270 -1.3057
 3546SOL     OW21566   8.728   2.623   1.988  0.1980  0.4268 -0.1001
 3546SOL    HW121567   8.749   2.717   1.964 -0.3754  0.3763 -0.8033
 3546SOL    HW221568   8.672   2.581   1.916  0.4502 -0.4494  0.1998
 3547SOL     OW21569   2.446   1.220   1.568  0.6824  0.5961  0.1459
 3547SOL    HW121570   2.376   1.249   1.503 -1.4863  0.0671  2.1569
 3547SOL    HW221571   2.442   1.278   1.650  2.0999  0.0732  0.6079
 3548SOL     OW21572   0.532   7.758   3.651  0.6583 -0.1960 -0.5855
 3548SOL    HW121573   0.526   7.676   3.594  2.7342  0.7653 -2.3133
 3548SOL    HW221574   0.538   7.839   3.592  1.3581  0.9628  1.0138
 3549SOL     OW21575   9.662   6.424   4.062 -0.2613 -0.0669 -0.2892
 3549SOL    HW121576   9.649   6.486   3.984  0.3365  1.5247  0.8465
 3549SOL    HW221577   9.756   6.431   4.094  0.8368 -4.2274 -2.3356
 3550SOL     OW21578   1.497   2.790   0.991  0.2774  0.2457 -0.1427
 3550SOL    HW121579   1.546   2.721   1.045  0.4985 -0.7333 -1.5440
 3550SOL    HW221580   1.434   2.840   1.050  2.3497  0.9627  1.5301
 3551SOL     OW21581   7.844   0.235   4.442 -0.8285 -0.6880  0.2419
 3551SOL    HW121582   7.839   0.179   4.524 -1.9269  1.2539  1.5519
 3551SOL    HW221583   7.755   0.279   4.426 -0.9551 -1.8595 -2.5964
 3552SOL     OW21584   9.947   8.977   0.482 -0.2077  0.3545  0.2569
 3552SOL    HW121585   9.946   8.885   0.443 -2.0348  0.0803  0.9132
 3552SOL    HW221586  10.042   9.005   0.498  0.4599 -0.5133 -1.9975
 3553SOL     OW21587   9.996   6.932   1.201 -0.4221 -0.0823  0.4592
 3553SOL    HW121588  10.059   7.010   1.202 -0.5213  0.0125 -0.1862
 3553SOL    HW221589  10.039   6.854   1.246 -0.6478  0.5964  1.8513
 3554SOL     OW21590   8.923   0.889   3.411 -0.3892 -0.1907 -0.2844
 3554SOL    HW121591   8.939   0.977   3.366 -0.9526 -0.3083 -0.7235
 3554SOL    HW221592   8.967   0.888   3.500  0.6138  0.1047 -0.7735
 3555SOL     OW21593   5.059   1.161   3.361  0.1180  0.6488 -0.3549
 3555SOL    HW121594   5.025   1.199   3.447  1.1820 -0.1918  0.4427
 3555SOL    HW221595   5.133   1.097   3.379 -0.5705 -0.5932 -1.8155
 3556SOL     OW21596   0.282   4.274   1.534 -0.1775  0.3384  0.4729
 3556SOL    HW121597   0.220   4.307   1.463  1.1280  2.5901  0.3595
 3556SOL    HW221598   0.373   4.262   1.495 -0.1954 -1.7068  0.9712
 3557SOL     OW21599   4.458   1.579   2.113  0.5875 -0.9838 -0.3550
 3557SOL    HW121600   4.403   1.572   2.030  0.0470  0.3639 -0.1313
 3557SOL    HW221601   4.549   1.612   2.091 -0.1099  1.0950 -0.2338
 3558SOL     OW21602   1.207   7.739   5.047  1.0139 -0.0960  0.3299
 3558SOL    HW121603   1.301   7.720   5.074  0.7790  0.3440  1.5013
 3558SOL    HW221604   1.187   7.836   5.063  0.4851 -0.1021 -0.2783
 3559SOL     OW21605   6.110   9.407   4.605 -0.0875  0.2550  0.6832
 3559SOL    HW121606   6.150   9.465   4.535 -0.0030  0.8474  1.2185
 3559SOL    HW221607   6.011   9.421   4.608 -0.1495 -0.1150  0.3663
 3560SOL     OW21608   2.752   6.515   0.726  0.0666  0.2429 -0.3145
 3560SOL    HW121609   2.657   6.527   0.696  0.1848 -0.2381 -0.9047
 3560SOL    HW221610   2.776   6.587   0.790 -0.4131  0.9115 -0.8704
 3561SOL     OW21611   2.070   7.991   1.394 -0.5352  0.1600 -0.4558
 3561SOL    HW121612   2.003   7.958   1.327  0.1670 -0.8042 -0.6989
 3561SOL    HW221613   2.023   8.042   1.466 -1.4184  0.3332 -1.1378
 3562SOL     OW21614   1.769   1.365   1.337 -0.7308 -0.2232 -0.0609
 3562SOL    HW121615   1.679   1.319   1.337  0.0174 -1.7602  0.9199
 3562SOL    HW221616   1.841   1.296   1.331  0.4019  0.9692 -0.3148
 3563SOL     OW21617   1.921   7.834   1.842 -0.2697  0.0463  0.4092
 3563SOL    HW121618   1.832   7.878   1.847 -1.5606 -2.3314 -0.8212
 3563SOL    HW221619   1.925   7.758   1.907  0.8204  0.0557  0.3727
 3564SOL     OW21620   3.070   8.174   2.531  0.5194 -0.3611 -0.4528
 3564SOL    HW121621   3.096   8.125   2.615 -2.5654  0.8949  1.3071
 3564SOL    HW221622   2.975   8.153   2.509  0.1242  2.3823 -1.4337
 3565SOL     OW21623   4.314   8.761   1.503  0.0086  0.2540 -0.1186
 3565SOL    HW121624   4.324   8.726   1.410 -2.2010  1.1056 -0.7035
 3565SOL    HW221625   4.352   8.853   1.508  1.8649 -0.5056  0.3346
 3566SOL     OW21626   7.749   0.136   5.695 -0.5034  0.6811  0.3124
 3566SOL    HW121627   7.843   0.156   5.723  0.1750  1.2409 -2.2139
 3566SOL    HW221628   7.693   0.218   5.704 -0.3019  0.8473  0.0582
 3567SOL     OW21629   7.348   4.403   0.605 -0.0766 -0.0715 -0.1420
 3567SOL    HW121630   7.320   4.453   0.686  0.3355 -1.1405  0.6774
 3567SOL    HW221631   7.371   4.309   0.630  1.4864 -0.0089 -1.2577
 3568SOL     OW21632   0.109   5.136   4.630 -0.3687  0.3869  1.2801
 3568SOL    HW121633   0.022   5.144   4.581 -0.3709  1.7031  1.4863
 3568SOL    HW221634   0.097   5.163   4.725  0.2908  0.6993  1.2827
 3569SOL     OW21635   3.115   7.004   3.243 -0.3318 -0.7813 -0.1979
 3569SOL    HW121636   3.108   6.960   3.332 -2.1497  0.0661  0.1043
 3569SOL    HW221637   3.083   7.098   3.249  0.0708 -0.5321 -1.6228
 3570SOL     OW21638   3.917   3.167   4.327  0.7439  0.1635  0.0307
 3570SOL    HW121639   3.928   3.121   4.239  1.7411  1.1410 -0.3607
 3570SOL    HW221640   3.893   3.263   4.312 -0.0934  0.0905  0.8350
 3571SOL     OW21641   2.780   4.504   2.161  0.6557  0.3420  0.5092
 3571SOL    HW121642   2.844   4.490   2.236  0.7796 -1.4964  0.0602
 3571SOL    HW221643   2.830   4.509   2.074  0.0960 -2.9065 -0.0574
 3572SOL     OW21644   9.049   1.197   3.692  0.1644 -0.3446  0.0471
 3572SOL    HW121645   8.959   1.205   3.649 -0.6681 -0.0048  1.8240
 3572SOL    HW221646   9.071   1.282   3.739  0.5535 -1.1268  1.2847
 3573SOL     OW21647   1.882   4.750   4.415  0.2668  0.1432  0.2664
 3573SOL    HW121648   1.942   4.801   4.476 -0.8013  0.1795  1.2926
 3573SOL    HW221649   1.826   4.814   4.361  1.6280  0.1293 -1.2078
 3574SOL     OW21650   1.943   7.306   1.520 -0.1300 -0.2426 -0.3637
 3574SOL    HW121651   1.996   7.390   1.530  0.2889 -0.6114  0.5037
 3574SOL    HW221652   1.934   7.284   1.423  1.0731 -0.0394 -0.5259
 3575SOL     OW21653   2.521   6.790   1.450  0.1190  0.3699 -0.3828
 3575SOL    HW121654   2.428   6.824   1.440  0.3651  1.1839  0.0794
 3575SOL    HW221655   2.563   6.830   1.532  0.5378 -0.7442 -0.0406
 3576SOL     OW21656   7.214   7.239   4.452  0.1171 -0.6092 -0.0488
 3576SOL    HW121657   7.302   7.285   4.464 -1.0931  1.8557 -0.4157
 3576SOL    HW221658   7.218   7.181   4.371  1.3815 -0.4909 -0.0844
 3577SOL     OW21659   8.842   3.613   5.608  0.3622 -0.6208  0.3810
 3577SOL    HW121660   8.917   3.562   5.567  1.8752  2.2462 -0.5785
 3577SOL    HW221661   8.879   3.689   5.663 -1.8061  0.7649  0.0086
 3578SOL     OW21662   1.399   6.196   2.367  0.1402 -0.1730 -0.1532
 3578SOL    HW121663   1.401   6.169   2.464 -2.7857  1.5628  0.4678
 3578SOL    HW221664   1.462   6.139   2.315  1.8097 -1.1242  2.7822
 3579SOL     OW21665   8.278   3.084   0.862  0.0052  0.2338 -0.2559
 3579SOL    HW121666   8.350   3.020   0.836  1.2648  1.2627  0.6577
 3579SOL    HW221667   8.292   3.172   0.816  0.0998  0.8579  0.9365
 3580SOL     OW21668   7.727   9.741   1.512  0.1568  0.3667  0.2776
 3580SOL    HW121669   7.797   9.677   1.480 -1.2407 -1.1470  0.1619
 3580SOL    HW221670   7.699   9.801   1.438  1.3564  1.0061  0.3379
 3581SOL     OW21671   6.608   9.060   3.668  0.4518 -0.5640  0.8379
 3581SOL    HW121672   6.640   8.970   3.697 -1.8124 -1.5352  0.4125
 3581SOL    HW221673   6.608   9.123   3.746 -0.0772 -1.5548  1.6454
 3582SOL     OW21674   2.955   7.538   0.971  0.1570 -0.1713  0.3487
 3582SOL    HW121675   2.979   7.504   1.061  0.9278  0.6422  0.4664
 3582SOL    HW221676   2.910   7.627   0.980  1.9747  0.8335 -0.1373
 3583SOL     OW21677   2.434   8.082   5.455  0.2824  0.3406  0.2888
 3583SOL    HW121678   2.489   8.076   5.538  0.5911  0.4575  0.0890
 3583SOL    HW221679   2.346   8.125   5.477  0.0703 -0.2986  0.7021
 3584SOL     OW21680   6.568   8.033   4.806  0.2013  0.2497 -0.4088
 3584SOL    HW121681   6.620   7.970   4.863 -0.0593  0.5864  0.2048
 3584SOL    HW221682   6.577   8.126   4.842 -3.4099 -0.0817  1.6517
 3585SOL     OW21683   4.520   6.739   1.862  0.0981 -0.2358  0.2956
 3585SOL    HW121684   4.535   6.733   1.764 -1.5767 -1.8228  0.1136
 3585SOL    HW221685   4.454   6.812   1.882  1.6794  1.1902  0.4010
 3586SOL     OW21686   1.773   2.251   3.396  0.1568  0.5468 -0.1704
 3586SOL    HW121687   1.739   2.193   3.471  0.3016  0.5006 -0.1392
 3586SOL    HW221688   1.725   2.339   3.397  1.2572  1.1431  0.9423
 3587SOL     OW21689   2.474   7.368   1.847  0.4213 -0.0651 -0.0428
 3587SOL    HW121690   2.401   7.338   1.786  0.3833 -0.3546  0.1437
 3587SOL    HW221691   2.520   7.447   1.807 -1.0861  1.1858  0.6304
 3588SOL     OW21692   2.519   3.726   6.577  0.3718  0.1341 -0.4493
 3588SOL    HW121693   2.441   3.780   6.545  0.9564  0.2450 -1.7276
 3588SOL    HW221694   2.519   3.724   6.677 -2.1359 -1.1649 -0.4499
 3589SOL     OW21695   6.567   8.080   4.459  0.0701  0.7791 -0.2560
 3589SOL    HW121696   6.646   8.116   4.507  1.8587 -2.7158 -0.3876
 3589SOL    HW221697   6.583   8.084   4.360  0.5510 -0.8611 -0.2552
 3590SOL     OW21698   8.041   0.927   3.384  0.4393  0.1729 -0.0114
 3590SOL    HW121699   7.968   0.913   3.316  0.4895 -0.0324 -0.0225
 3590SOL    HW221700   8.065   1.024   3.386 -1.9021  0.7556  2.1136
 3591SOL     OW21701   4.722   4.523   4.098  0.0622 -0.1800  0.0560
 3591SOL    HW121702   4.704   4.494   4.192  1.4198 -1.0089  0.0716
 3591SOL    HW221703   4.812   4.565   4.093 -0.1615  0.2027 -0.8106
 3592SOL     OW21704   3.705   1.232   3.413 -0.4305 -0.6364  0.2604
 3592SOL    HW121705   3.800   1.262   3.406 -0.7481  0.3113  0.0385
 3592SOL    HW221706   3.703   1.136   3.444  0.5602 -0.2493  1.5896
 3593SOL     OW21707   7.515   0.427   3.248 -0.3304 -0.4054  0.3870
 3593SOL    HW121708   7.440   0.376   3.290 -1.0984  0.2613 -0.1525
 3593SOL    HW221709   7.598   0.370   3.248 -2.0140 -3.0677 -3.3584
 3594SOL     OW21710   9.127   0.977   4.194 -0.5349  0.1474 -0.3546
 3594SOL    HW121711   9.139   0.933   4.283 -0.6330  3.8219  1.6036
 3594SOL    HW221712   9.216   1.005   4.158 -0.6174 -0.0910 -0.7425
 3595SOL     OW21713   2.341   2.234   1.328 -0.7932  0.1894 -0.4052
 3595SOL    HW121714   2.402   2.269   1.399  0.4662  0.1611 -1.4713
 3595SOL    HW221715   2.367   2.273   1.240 -1.0042 -1.4518 -1.1979
 3596SOL     OW21716   5.449   2.616   3.041 -0.0626  0.9486 -0.0158
 3596SOL    HW121717   5.468   2.593   2.945 -0.3480  2.2783 -0.3912
 3596SOL    HW221718   5.397   2.541   3.083  1.1207 -0.1865 -0.5480
 3597SOL     OW21719   9.287   6.944   2.924  0.3248 -0.5142  0.0597
 3597SOL    HW121720   9.306   7.023   2.866  0.6495 -0.1926  0.5987
 3597SOL    HW221721   9.205   6.962   2.979 -0.1546 -0.9366 -0.5053
 3598SOL     OW21722   4.537   2.525   1.285 -0.0234 -0.2623 -0.0967
 3598SOL    HW121723   4.611   2.468   1.321  0.1683 -0.6649 -1.1297
 3598SOL    HW221724   4.563   2.562   1.196  0.5044  2.7136  1.2221
 3599SOL     OW21725   0.487   2.090   3.618  0.2346  0.0328  0.5538
 3599SOL    HW121726   0.495   2.072   3.520 -1.6397 -1.7426  0.6905
 3599SOL    HW221727   0.392   2.076   3.647 -0.2500  5.0448  1.7709
 3600SOL     OW21728   0.517   9.971   3.120  0.3638 -0.2907  0.0113
 3600SOL    HW121729   0.577  10.027   3.177  1.0166 -0.3687 -0.5887
 3600SOL    HW221730   0.564   9.949   3.034 -0.4310 -0.5662 -0.3534
 3601SOL     OW21731   9.958   2.229   4.650  0.0427 -0.2270 -0.1281
 3601SOL    HW121732   9.892   2.166   4.609 -0.3912  0.8449 -1.1280
 3601SOL    HW221733  10.024   2.257   4.581  0.3498  0.2503  0.3584
 3602SOL     OW21734   1.715   8.205   3.139  0.3801  0.1395 -0.3024
 3602SOL    HW121735   1.740   8.110   3.155  0.6827  0.4075  0.9066
 3602SOL    HW221736   1.717   8.225   3.041  0.1473 -1.1330 -0.5695
 3603SOL     OW21737   0.127   0.872   1.701 -0.4428 -0.1434 -0.0560
 3603SOL    HW121738   0.098   0.779   1.726 -0.0540 -0.1691  0.3009
 3603SOL    HW221739   0.127   0.930   1.782  0.9100 -0.2479  0.0270
 3604SOL     OW21740   8.052   1.096   5.593 -0.0562 -0.1406  0.5322
 3604SOL    HW121741   8.065   1.015   5.536 -0.5323 -1.3081  2.0538
 3604SOL    HW221742   7.955   1.107   5.614  0.1035  0.3408  1.0379
 3605SOL     OW21743   0.094   6.870   3.150 -0.1682 -0.4392 -0.2634
 3605SOL    HW121744   0.170   6.806   3.148 -0.4362 -0.7483 -1.0447
 3605SOL    HW221745   0.121   6.957   3.109 -0.1221 -0.4230 -0.1975
 3606SOL     OW21746   9.481   2.562   4.324 -0.8013 -0.0496  0.2617
 3606SOL    HW121747   9.560   2.606   4.367 -1.3343  0.8307  0.3293
 3606SOL    HW221748   9.514   2.493   4.259  0.0124 -1.1306  1.7699
 3607SOL     OW21749   8.400   7.630   4.811 -0.4511  0.0704  0.4586
 3607SOL    HW121750   8.367   7.683   4.733  0.9111 -0.4516 -0.5053
 3607SOL    HW221751   8.376   7.534   4.798  0.2943 -0.1105  0.3814
 3608SOL     OW21752   2.343   6.077   6.550 -0.6188 -0.1812 -0.3474
 3608SOL    HW121753   2.262   6.025   6.575  1.2965 -2.7563  0.8357
 3608SOL    HW221754   2.358   6.151   6.616 -2.2772  0.6647 -0.9071
 3609SOL     OW21755   5.355   1.474   1.753  0.4845 -0.1930  0.3401
 3609SOL    HW121756   5.373   1.513   1.663  1.7829  2.2429  1.5853
 3609SOL    HW221757   5.258   1.482   1.775  0.2739 -0.2263 -0.5655
 3610SOL     OW21758   8.060   8.668   4.315 -0.6223  0.6707 -0.3896
 3610SOL    HW121759   8.137   8.724   4.345 -0.5440  0.2887  0.1292
 3610SOL    HW221760   7.985   8.727   4.286 -0.9052  1.0620  1.0876
 3611SOL     OW21761   9.668   3.864   3.234  0.5053 -0.0670  0.6247
 3611SOL    HW121762   9.651   3.811   3.317 -0.0492  1.5544  1.5561
 3611SOL    HW221763   9.758   3.841   3.198 -0.1576 -2.4459  0.3943
 3612SOL     OW21764   0.436   4.706   4.290 -0.3070 -0.3614 -0.0916
 3612SOL    HW121765   0.435   4.653   4.205  1.6079  0.1444 -0.4403
 3612SOL    HW221766   0.467   4.648   4.365  1.8769  0.2526 -0.4894
 3613SOL     OW21767   9.718   5.380   0.199  0.0638  0.1066  0.0598
 3613SOL    HW121768   9.741   5.449   0.267  0.2118 -0.7859  0.9354
 3613SOL    HW221769   9.632   5.336   0.224  0.3764 -0.5749 -0.0592
 3614SOL     OW21770   5.643   7.271   3.458 -0.7730  0.4074 -0.0229
 3614SOL    HW121771   5.680   7.291   3.548 -2.2807  3.2221  0.0380
 3614SOL    HW221772   5.710   7.294   3.388  0.9697 -3.2098  0.3924
 3615SOL     OW21773   7.856   7.745   2.176  0.0794 -0.3633  0.3904
 3615SOL    HW121774   7.885   7.697   2.093 -0.2291  2.8119 -1.6343
 3615SOL    HW221775   7.930   7.806   2.207 -0.5260 -0.1056  1.3625
 3616SOL     OW21776   0.986   0.640   4.183  0.5702  0.2442 -0.0106
 3616SOL    HW121777   0.909   0.641   4.246 -0.3773 -0.4455 -1.1519
 3616SOL    HW221778   1.020   0.734   4.171  0.3431  0.4587  1.0152
 3617SOL     OW21779   0.896   1.300   2.979  0.7224  0.5891  0.6622
 3617SOL    HW121780   0.886   1.315   2.880 -1.0143  0.7736  0.8476
 3617SOL    HW221781   0.952   1.219   2.995 -0.0253 -0.1640 -0.4959
 3618SOL     OW21782   3.250   5.175   2.469 -0.1240 -0.0895  0.1928
 3618SOL    HW121783   3.350   5.175   2.467 -0.1182  0.1559  0.5579
 3618SOL    HW221784   3.216   5.267   2.453 -0.3102 -0.3129 -0.7392
 3619SOL     OW21785   2.941   9.245   3.060  0.0408 -0.3263 -0.4316
 3619SOL    HW121786   2.931   9.342   3.036  0.0632 -0.1787  0.1582
 3619SOL    HW221787   3.003   9.236   3.137  1.6717 -0.9725 -1.7975
 3620SOL     OW21788   3.538   6.134   1.817  0.3295  0.2022 -0.3391
 3620SOL    HW121789   3.457   6.128   1.875  1.3799  0.0317  1.1212
 3620SOL    HW221790   3.528   6.212   1.754 -0.6497  0.6079  0.3097
 3621SOL     OW21791   9.040   5.918   4.914  0.5731  0.5248  0.1311
 3621SOL    HW121792   9.013   6.002   4.962  1.2603  1.1053 -0.4874
 3621SOL    HW221793   9.128   5.933   4.869  0.5477 -0.4386 -0.2362
 3622SOL     OW21794   9.781   5.743   3.269 -0.1505 -0.5298 -0.4456
 3622SOL    HW121795   9.748   5.651   3.247 -0.6768 -0.0029 -1.9153
 3622SOL    HW221796   9.873   5.755   3.233 -0.5887 -0.0399 -1.4176
 3623SOL     OW21797   9.019   4.842   2.038  0.0589  0.2760 -0.0556
 3623SOL    HW121798   8.995   4.848   2.135  2.2106 -2.0991  0.6603
 3623SOL    HW221799   8.987   4.754   2.001  1.0134  0.3162 -0.9891
 3624SOL     OW21800   0.104   5.120   5.440 -0.4076  0.8348 -0.1992
 3624SOL    HW121801   0.096   5.220   5.432  1.7510  1.0603  0.0848
 3624SOL    HW221802   0.106   5.080   5.348  0.2833  1.2121 -0.3554
 3625SOL     OW21803   1.453   3.784   6.645  0.1422 -0.0976 -0.1335
 3625SOL    HW121804   1.367   3.815   6.684  0.7950 -0.5675  1.7466
 3625SOL    HW221805   1.524   3.854   6.660  0.5408 -0.5386  0.0579
 3626SOL     OW21806   3.553   4.247   2.317  0.3138  0.3294 -0.1617
 3626SOL    HW121807   3.478   4.259   2.383 -1.1317 -0.0138 -1.6942
 3626SOL    HW221808   3.598   4.334   2.302 -0.7273  0.8561 -0.3029
 3627SOL     OW21809   8.743   3.867   3.372  0.0340  0.5270 -0.1526
 3627SOL    HW121810   8.834   3.902   3.395  0.7249  0.3313 -2.4386
 3627SOL    HW221811   8.691   3.938   3.324 -1.1329  0.7326  1.4094
 3628SOL     OW21812   0.514   7.281   5.402 -0.6173 -0.3604 -0.6435
 3628SOL    HW121813   0.489   7.377   5.389 -0.8978 -0.3665 -0.1733
 3628SOL    HW221814   0.575   7.273   5.481 -0.3149 -0.5261 -0.8949
 3629SOL     OW21815   1.007   0.902   3.292  0.3665  0.4137  0.4235
 3629SOL    HW121816   0.970   0.879   3.202  2.3607  0.3915 -0.4141
 3629SOL    HW221817   0.938   0.883   3.362 -1.2237  0.4757 -1.0914
 3630SOL     OW21818   8.051   3.703   1.044 -0.1125 -0.1443  0.1162
 3630SOL    HW121819   8.048   3.719   0.946  0.2444  0.5672  0.2144
 3630SOL    HW221820   8.146   3.685   1.072 -0.1699 -0.0480  0.3768
 3631SOL     OW21821   1.924   7.790   4.327  0.3932  0.3925 -0.7762
 3631SOL    HW121822   1.900   7.814   4.233  0.6657  0.6734 -0.7741
 3631SOL    HW221823   1.909   7.868   4.387 -3.4862 -0.8910  0.0993
 3632SOL     OW21824   1.848   0.158   2.430 -0.2701  0.7577  0.1287
 3632SOL    HW121825   1.826   0.061   2.414  0.3679  0.4295  1.1966
 3632SOL    HW221826   1.853   0.175   2.528 -0.1709  1.8373 -0.0591
 3633SOL     OW21827   2.097   5.790   5.409  0.4061 -0.2236 -0.0276
 3633SOL    HW121828   2.089   5.837   5.497 -3.0760  0.0068 -0.3875
 3633SOL    HW221829   2.117   5.693   5.424 -0.0594 -0.1650  1.0106
 3634SOL     OW21830   8.534   9.526   3.664 -0.3369  0.1783  0.2979
 3634SOL    HW121831   8.460   9.551   3.726 -0.9137 -1.7133  0.4006
 3634SOL    HW221832   8.607   9.482   3.715 -0.5346 -0.8154 -0.2627
 3635SOL     OW21833   8.387   2.251   1.683  0.3655 -0.1973  0.2552
 3635SOL    HW121834   8.293   2.263   1.649  0.5544  0.1006 -0.1585
 3635SOL    HW221835   8.447   2.317   1.639  0.4344  0.8578  1.8932
 3636SOL     OW21836   8.637   1.015   0.647  0.2719 -0.2654 -0.3514
 3636SOL    HW121837   8.569   1.080   0.612 -1.2698 -1.8470 -0.3451
 3636SOL    HW221838   8.696   0.985   0.572 -0.2383 -0.3068 -0.7446
 3637SOL     OW21839   4.299   3.230   0.569  0.0028  0.8001 -0.5436
 3637SOL    HW121840   4.262   3.211   0.478 -0.2739  0.3215 -0.3328
 3637SOL    HW221841   4.337   3.323   0.571  1.1284  0.3825 -1.5092
 3638SOL     OW21842   8.899   8.747   2.203 -0.4857 -0.2921  0.0738
 3638SOL    HW121843   8.919   8.704   2.291 -0.2225 -1.4029 -0.5234
 3638SOL    HW221844   8.984   8.771   2.157 -0.6281  0.5474  0.2492
 3639SOL     OW21845   7.147   9.759   5.840  0.2370 -0.2022 -0.5937
 3639SOL    HW121846   7.211   9.783   5.913  1.6475 -0.3894 -1.7343
 3639SOL    HW221847   7.067   9.818   5.845  1.4484  1.4625 -0.4151
 3640SOL     OW21848   0.634   6.930   2.168 -0.2239 -0.2877 -0.4624
 3640SOL    HW121849   0.595   6.902   2.256  1.0082 -0.0804  0.1608
 3640SOL    HW221850   0.608   6.865   2.097  1.0039 -1.9386  0.5796
 3641SOL     OW21851   3.736   7.111   4.475  0.1728  0.6203 -0.4362
 3641SOL    HW121852   3.659   7.051   4.454 -0.6803  2.0331 -1.5039
 3641SOL    HW221853   3.800   7.064   4.536 -1.8447 -0.3665  0.9920
 3642SOL     OW21854   1.505   8.502   1.857  0.4702 -0.3628 -0.2473
 3642SOL    HW121855   1.422   8.532   1.812  1.1696  1.2068 -0.5110
 3642SOL    HW221856   1.551   8.434   1.800 -0.3577 -0.8458 -0.3413
 3643SOL     OW21857   7.095   2.000   2.443 -0.5239 -0.2817  0.0394
 3643SOL    HW121858   7.174   2.002   2.505 -1.3084 -5.4558  1.4351
 3643SOL    HW221859   7.123   1.959   2.355 -0.9101  1.0535 -0.7163
 3644SOL     OW21860   3.244   6.766   5.234 -0.0154  0.4433 -0.0550
 3644SOL    HW121861   3.146   6.771   5.250  0.0686 -2.7661  1.6529
 3644SOL    HW221862   3.289   6.724   5.312  2.5358  0.3561 -1.5169
 3645SOL     OW21863   8.376   8.331   4.407  0.5193  0.1440  0.2437
 3645SOL    HW121864   8.290   8.381   4.420 -0.5118 -1.6609  0.5920
 3645SOL    HW221865   8.453   8.395   4.411 -0.7574  1.6881  0.6581
 3646SOL     OW21866   2.050   7.313   6.576 -0.3369 -0.3933  0.9108
 3646SOL    HW121867   2.119   7.377   6.609 -1.0903  0.5619  0.6570
 3646SOL    HW221868   1.997   7.278   6.653 -0.6333  0.1271  0.9463
 3647SOL     OW21869   8.924   2.424   3.585  0.1718 -0.1803  0.1560
 3647SOL    HW121870   8.970   2.393   3.502  1.6617 -0.4370  1.0527
 3647SOL    HW221871   8.836   2.465   3.561  0.7776  0.1559 -1.5846
 3648SOL     OW21872   8.290   9.760   2.361 -0.7168  0.5658  0.3059
 3648SOL    HW121873   8.330   9.669   2.351 -0.2402  1.0184 -1.9768
 3648SOL    HW221874   8.190   9.753   2.359 -0.7345 -0.0965  2.0788
 3649SOL     OW21875   8.880   8.473   1.564  1.0671 -0.2115 -0.1137
 3649SOL    HW121876   8.924   8.384   1.575  0.8885 -0.1484  1.2933
 3649SOL    HW221877   8.816   8.488   1.639 -1.4473 -0.3196 -2.1884
 3650SOL     OW21878   2.648   2.686   4.676 -0.2135 -0.0465  0.4153
 3650SOL    HW121879   2.596   2.604   4.701 -0.4652 -0.2018 -0.6033
 3650SOL    HW221880   2.740   2.659   4.647  0.3478  0.2017  1.9182
 3651SOL     OW21881   3.944   0.784   1.759 -0.3237 -0.2559 -0.0650
 3651SOL    HW121882   3.861   0.832   1.731  0.3695  1.6222  1.0643
 3651SOL    HW221883   4.007   0.778   1.681 -1.4497 -1.6443 -0.9139
 3652SOL     OW21884   4.090   7.351   1.035 -0.7321  0.2290 -0.2539
 3652SOL    HW121885   4.034   7.413   0.980 -1.0051  1.1688  1.0568
 3652SOL    HW221886   4.031   7.296   1.094 -0.3259  0.6331  0.5340
 3653SOL     OW21887   9.253   5.429   4.278  0.0248  0.2192 -0.0213
 3653SOL    HW121888   9.234   5.378   4.362  0.7092  1.9415  1.2220
 3653SOL    HW221889   9.351   5.426   4.258 -0.1543 -0.2815 -0.8158
 3654SOL     OW21890   2.213   0.331   1.623  0.0451  0.0519 -0.2524
 3654SOL    HW121891   2.124   0.377   1.628 -0.3048 -0.6447  0.1632
 3654SOL    HW221892   2.257   0.336   1.713 -0.3938 -1.1864  0.0392
 3655SOL     OW21893   3.614   8.308   4.700  0.0687  0.4075  0.7075
 3655SOL    HW121894   3.713   8.323   4.701  0.0651  0.4841  0.2820
 3655SOL    HW221895   3.567   8.396   4.690 -0.0699  0.4476  1.7147
 3656SOL     OW21896   1.216   1.404   3.236  0.0957  0.4311  0.2644
 3656SOL    HW121897   1.295   1.348   3.261 -0.4677 -0.5611 -0.1359
 3656SOL    HW221898   1.247   1.494   3.208  1.1864 -0.2791 -0.8711
 3657SOL     OW21899   7.621   9.145   5.986 -0.0540  0.0547  0.0220
 3657SOL    HW121900   7.626   9.123   6.083 -0.6694 -1.5882 -0.3081
 3657SOL    HW221901   7.695   9.207   5.962  0.9429 -0.6489  1.2450
 3658SOL     OW21902   2.889   8.985   3.753  1.0987  0.4538 -0.1629
 3658SOL    HW121903   2.931   9.050   3.691 -0.1713 -1.2487 -2.8797
 3658SOL    HW221904   2.950   8.907   3.767  0.0096 -0.7321 -1.9449
 3659SOL     OW21905   3.045   7.735   2.040 -0.0660 -0.1443  0.0422
 3659SOL    HW121906   3.010   7.829   2.039 -0.0718 -0.1201  1.1643
 3659SOL    HW221907   2.980   7.675   2.087  1.0121 -0.2427  1.4478
 3660SOL     OW21908   9.248   0.284   2.108 -0.3273 -0.0048  0.1997
 3660SOL    HW121909   9.305   0.352   2.155 -0.3255 -0.8246  1.3909
 3660SOL    HW221910   9.241   0.309   2.011  1.8873  0.2140  0.0700
 3661SOL     OW21911   0.182   7.997   0.802  0.1944 -0.3266 -0.0035
 3661SOL    HW121912   0.124   8.037   0.730  1.1572  1.7888  0.3747
 3661SOL    HW221913   0.150   8.027   0.891  0.8687 -0.4815  0.2931
 3662SOL     OW21914   0.525   6.888   0.004  0.3421  0.0221  0.2583
 3662SOL    HW121915   0.472   6.834   0.069  0.5287  0.9427  1.1967
 3662SOL    HW221916   0.525   6.984   0.033  0.0166  0.5328 -1.3705
 3663SOL     OW21917   0.805   1.397   2.140 -0.1851  0.2457  0.2562
 3663SOL    HW121918   0.824   1.492   2.117 -1.6620  0.5056  0.0909
 3663SOL    HW221919   0.764   1.351   2.061  1.7174 -0.9034 -0.1170
 3664SOL     OW21920   3.902   7.969   2.125  0.1264 -0.6415  0.0088
 3664SOL    HW121921   3.974   7.993   2.190 -0.7907 -0.0987  0.8534
 3664SOL    HW221922   3.942   7.932   2.042  1.5297  2.1641 -0.6310
 3665SOL     OW21923   0.770   0.848   1.056  0.4907  0.0836  0.1738
 3665SOL    HW121924   0.733   0.755   1.057 -1.4676  0.8266 -1.1071
 3665SOL    HW221925   0.754   0.890   1.145  1.9290 -0.9900  0.9646
 3666SOL     OW21926   3.731   9.758   3.111  0.6640  0.5475  0.5693
 3666SOL    HW121927   3.779   9.843   3.089 -0.4296  0.7191 -1.2737
 3666SOL    HW221928   3.658   9.743   3.044 -0.6008 -0.6977  2.1983
 3667SOL     OW21929   6.262   2.268   2.897 -0.2774 -0.1421 -0.2905
 3667SOL    HW121930   6.338   2.324   2.931 -1.2051  0.5820  0.6653
 3667SOL    HW221931   6.188   2.271   2.964 -0.4640 -2.2770 -0.3848
 3668SOL     OW21932   1.870   6.228   5.374  0.5742  0.1316 -0.0678
 3668SOL    HW121933   1.790   6.272   5.334  0.2474  1.0376  1.5422
 3668SOL    HW221934   1.936   6.206   5.301  0.2909  2.3301 -1.0346
 3669SOL     OW21935   8.440   9.728   0.448 -0.1240  0.5412 -0.0388
 3669SOL    HW121936   8.472   9.634   0.441 -1.1723  0.0622  1.3826
 3669SOL    HW221937   8.343   9.729   0.469  0.0539  1.9399  0.7910
 3670SOL     OW21938   8.177   0.896   0.550  0.8014 -0.5683 -0.4599
 3670SOL    HW121939   8.120   0.901   0.632 -1.2019  2.6189 -1.9857
 3670SOL    HW221940   8.186   0.800   0.522 -1.7388 -1.3471  1.2075
 3671SOL     OW21941   9.776   8.732   4.354 -0.2082  0.0073  0.0179
 3671SOL    HW121942   9.857   8.733   4.295 -1.1490 -1.8110 -1.3646
 3671SOL    HW221943   9.705   8.790   4.314 -0.8850 -1.3111 -0.7181
 3672SOL     OW21944   5.517   1.307   4.396  0.3384 -0.6250 -0.6265
 3672SOL    HW121945   5.510   1.249   4.477 -2.6196  1.2746  0.5555
 3672SOL    HW221946   5.590   1.374   4.409  0.1247 -0.5708  0.3127
 3673SOL     OW21947   6.715   0.198   0.717  0.1527 -0.9126  0.0418
 3673SOL    HW121948   6.769   0.187   0.634  0.4969  0.1897  0.1086
 3673SOL    HW221949   6.720   0.115   0.772 -0.0074 -1.6121 -0.9990
 3674SOL     OW21950   2.972   3.600   1.528  0.1711 -0.1353  0.3075
 3674SOL    HW121951   2.892   3.563   1.576  1.2328 -0.6007  1.7562
 3674SOL    HW221952   2.942   3.672   1.465 -1.3706 -0.1434  0.9984
 3675SOL     OW21953   5.541   8.488   2.348  0.1381  0.4925 -0.2649
 3675SOL    HW121954   5.540   8.543   2.432  0.2563  1.0014 -0.5933
 3675SOL    HW221955   5.484   8.407   2.360  1.7832 -0.5134  1.0354
 3676SOL     OW21956   2.001   2.832   3.767 -0.3933  0.4545 -0.4618
 3676SOL    HW121957   2.016   2.743   3.722  0.7026 -0.2783  1.3250
 3676SOL    HW221958   1.908   2.863   3.747 -1.7786 -2.4269  1.1252
 3677SOL     OW21959   0.222   6.230   5.543 -0.2998  0.0101 -0.0027
 3677SOL    HW121960   0.264   6.177   5.616  0.0595  1.6874  1.0443
 3677SOL    HW221961   0.289   6.244   5.470  0.3859  1.0328  0.7974
 3678SOL     OW21962   9.915   8.212   4.780 -0.3439  0.0868 -0.3832
 3678SOL    HW121963   9.828   8.260   4.790 -1.8839 -2.6695 -0.2570
 3678SOL    HW221964   9.900   8.124   4.735  2.2733 -0.7570  0.3300
 3679SOL     OW21965   3.818   1.292   4.237  0.0158 -0.3993  0.4547
 3679SOL    HW121966   3.915   1.311   4.246 -0.1942  0.4562  0.9189
 3679SOL    HW221967   3.786   1.326   4.148 -0.0043 -0.0830  0.5838
 3680SOL     OW21968   8.424   7.906   3.060 -0.5797 -0.2931 -0.7286
 3680SOL    HW121969   8.501   7.860   3.016 -0.9165  0.1926 -1.8374
 3680SOL    HW221970   8.426   8.004   3.037 -0.3474  0.1175  0.9293
 3681SOL     OW21971   5.137   1.574   1.518 -0.1581 -0.0646 -0.1965
 3681SOL    HW121972   5.175   1.549   1.429 -0.2805 -1.0775  0.0377
 3681SOL    HW221973   5.069   1.647   1.505 -0.0713 -0.1044 -0.9133
 3682SOL     OW21974   3.523   8.144   3.741  0.0309 -0.3533  0.1858
 3682SOL    HW121975   3.498   8.222   3.799 -0.2774  0.3062 -0.8197
 3682SOL    HW221976   3.457   8.134   3.668  0.8409 -0.6945 -0.5105
 3683SOL     OW21977   3.033   8.041   3.729 -0.1310 -0.0431  0.2122
 3683SOL    HW121978   3.060   8.137   3.724  0.6786 -0.2665  0.1662
 3683SOL    HW221979   3.028   8.013   3.825 -0.5309  0.0862  0.2306
 3684SOL     OW21980   0.260   9.739   1.812  0.0235 -0.9272 -0.3180
 3684SOL    HW121981   0.355   9.770   1.803 -0.3290  1.0236  2.1003
 3684SOL    HW221982   0.202   9.789   1.747 -0.1359  1.8559  1.8466
 3685SOL     OW21983   1.487   7.035   5.191 -0.3918 -0.1426  0.5420
 3685SOL    HW121984   1.399   7.024   5.145 -0.0053 -1.7910  0.1621
 3685SOL    HW221985   1.561   7.029   5.123  0.0250  1.2543  0.8555
 3686SOL     OW21986   8.874   3.745   2.081 -0.6372  0.0630 -0.0668
 3686SOL    HW121987   8.807   3.808   2.040 -1.0696  0.1417  0.7584
 3686SOL    HW221988   8.870   3.657   2.034 -0.0718  0.6164 -1.1951
 3687SOL     OW21989   6.390   0.673   0.636 -0.0474  0.1740  0.1570
 3687SOL    HW121990   6.427   0.606   0.571 -0.9372 -1.4294  1.2883
 3687SOL    HW221991   6.465   0.710   0.691  0.6579  1.2407 -1.4566
 3688SOL     OW21992   8.122   0.279   1.940 -0.5777 -0.2558 -0.3073
 3688SOL    HW121993   8.080   0.253   2.027  0.4727 -2.1698 -0.3449
 3688SOL    HW221994   8.100   0.210   1.871 -0.2594  0.5362 -1.2015
 3689SOL     OW21995   0.191   0.685   2.522  0.4535 -0.7661  0.4457
 3689SOL    HW121996   0.263   0.615   2.520  0.7074 -0.5078  0.5474
 3689SOL    HW221997   0.181   0.726   2.432  2.4873  1.2855  1.1184
 3690SOL     OW21998   2.308   7.361   6.260 -0.1664  0.2746  0.1476
 3690SOL    HW121999   2.307   7.316   6.349 -2.8237  1.1183  0.5960
 3690SOL    HW222000   2.228   7.333   6.207  1.7885 -0.8180 -2.3148
 3691SOL     OW22001   3.335   6.370   6.317 -0.3742 -0.1865  0.1050
 3691SOL    HW122002   3.339   6.470   6.323 -0.2237 -0.2738  1.7454
 3691SOL    HW222003   3.250   6.337   6.359 -1.0262 -0.6736 -1.5731
 3692SOL     OW22004   2.705   1.988   2.062 -0.1690  0.5016  0.3939
 3692SOL    HW122005   2.751   1.971   2.148 -0.2584  0.4326  0.4283
 3692SOL    HW222006   2.626   2.048   2.077  1.1484  2.3406  0.0056
 3693SOL     OW22007   0.342   4.657   6.257 -0.0955  0.1102 -0.2425
 3693SOL    HW122008   0.291   4.686   6.338  1.9731  2.0549  0.3983
 3693SOL    HW222009   0.278   4.628   6.186 -1.9619 -1.2885  1.9249
 3694SOL     OW22010   0.753   8.515   1.285  0.2920  0.1059 -0.3562
 3694SOL    HW122011   0.707   8.489   1.199 -0.1025  2.3077 -0.8264
 3694SOL    HW222012   0.689   8.502   1.361  0.9848 -2.8837 -0.2115
 3695SOL     OW22013   1.412   8.859   4.568  0.5797 -0.5155 -0.0086
 3695SOL    HW122014   1.412   8.957   4.549 -2.1462 -0.7781 -1.5884
 3695SOL    HW222015   1.445   8.809   4.488  0.2853 -1.0044  0.1688
 3696SOL     OW22016   1.092   8.242   1.842  0.1897 -0.4900 -0.4255
 3696SOL    HW122017   1.177   8.233   1.790  1.2352  1.3784  0.8654
 3696SOL    HW222018   1.052   8.151   1.856  1.7444 -1.3651 -1.4216
 3697SOL     OW22019   2.195   5.036   2.737 -0.1070 -0.2646 -0.0059
 3697SOL    HW122020   2.202   4.942   2.771  0.2000 -0.9102 -1.8031
 3697SOL    HW222021   2.175   5.035   2.640 -0.2985  1.5505 -0.0100
 3698SOL     OW22022   5.221   7.488   3.383  0.0603 -0.1265 -0.4295
 3698SOL    HW122023   5.287   7.479   3.457 -0.0137  0.1816 -0.3227
 3698SOL    HW222024   5.205   7.399   3.341  0.9280 -0.1118 -0.7899
 3699SOL     OW22025   5.406   0.284   3.018  0.4550 -0.3360 -0.9622
 3699SOL    HW122026   5.317   0.328   3.031 -0.1740 -1.6712 -0.6372
 3699SOL    HW222027   5.473   0.326   3.079 -0.0686  0.3570 -0.8572
 3700SOL     OW22028   8.135   8.176   3.455 -0.2458 -0.0880 -0.1258
 3700SOL    HW122029   8.137   8.198   3.552 -0.2839  0.1087 -0.1697
 3700SOL    HW222030   8.049   8.208   3.415  0.9594  2.4180 -0.8340
 3701SOL     OW22031   3.971   6.001   4.207 -0.7521  0.1425  0.0440
 3701SOL    HW122032   3.884   6.027   4.249 -0.7647  2.2814 -1.2086
 3701SOL    HW222033   4.030   6.082   4.201  0.0395 -0.5813 -2.1816
 3702SOL     OW22034   1.537   7.371   2.430  0.1491 -0.2192 -0.3731
 3702SOL    HW122035   1.470   7.344   2.499 -0.2323 -1.3662 -1.1681
 3702SOL    HW222036   1.625   7.328   2.451 -0.2446 -1.4395 -1.1823
 3703SOL     OW22037   7.063   0.250   6.380 -0.1028 -0.0643  0.0158
 3703SOL    HW122038   7.023   0.217   6.294  0.9277  0.2263 -0.5933
 3703SOL    HW222039   6.996   0.303   6.431 -0.7695 -0.3601 -0.5534
 3704SOL     OW22040   8.978   1.825   4.934  0.0288  0.3521 -0.3022
 3704SOL    HW122041   8.978   1.731   4.902 -0.5829 -0.2194  1.3140
 3704SOL    HW222042   8.903   1.838   4.999  0.6271  1.7202  0.1409
 3705SOL     OW22043   9.533   1.954   0.193  0.1586  0.5886 -0.0537
 3705SOL    HW122044   9.583   1.965   0.279 -0.4782 -2.0249  0.6854
 3705SOL    HW222045   9.585   1.894   0.132 -1.1170 -0.5276 -0.0630
 3706SOL     OW22046   6.098   9.947   2.884 -0.2461  0.3881 -0.3136
 3706SOL    HW122047   6.182   9.998   2.902  0.1054 -0.1737 -0.3490
 3706SOL    HW222048   6.088   9.875   2.953 -1.2670  1.1549  0.3505
 3707SOL     OW22049   2.830   8.260   2.290 -0.4175 -0.3121  0.3499
 3707SOL    HW122050   2.794   8.192   2.354 -0.5437  1.1266  1.8451
 3707SOL    HW222051   2.875   8.214   2.213 -2.1825 -2.0886  0.3489
 3708SOL     OW22052   5.354   8.956   2.295  0.2275 -0.2108  0.6662
 3708SOL    HW122053   5.436   8.942   2.239  0.0804  2.3319 -0.2664
 3708SOL    HW222054   5.277   8.905   2.256  0.9789 -1.3321  0.6399
 3709SOL     OW22055   0.501   3.070   4.125 -0.1267  0.1303 -0.0882
 3709SOL    HW122056   0.500   3.152   4.182 -0.8910 -0.0751  0.1980
 3709SOL    HW222057   0.580   3.073   4.064 -0.5301  1.3929 -0.5567
 3710SOL     OW22058   4.628   3.582   3.268  0.0363 -0.2599  0.1935
 3710SOL    HW122059   4.664   3.584   3.361  1.5266  0.0110 -0.3761
 3710SOL    HW222060   4.687   3.525   3.211 -0.5919 -0.0174 -0.7070
 3711SOL     OW22061   0.715   6.617   3.254  0.3600 -0.0192  0.0411
 3711SOL    HW122062   0.740   6.559   3.331 -1.2678 -1.5088 -0.5189
 3711SOL    HW222063   0.625   6.658   3.271 -1.2630 -2.5177 -2.2184
 3712SOL     OW22064   0.572   1.585   4.369 -0.1858  0.5320  0.0387
 3712SOL    HW122065   0.634   1.627   4.303 -1.0745  1.1914 -0.3849
 3712SOL    HW222066   0.535   1.500   4.331 -1.4276  1.3853 -0.7304
 3713SOL     OW22067   9.246   3.318   6.730 -0.2774 -0.4392 -0.1099
 3713SOL    HW122068   9.334   3.299   6.686 -0.2091 -0.4159  0.0189
 3713SOL    HW222069   9.258   3.328   6.828 -0.5661 -1.3338  0.0215
 3714SOL     OW22070   4.024   1.021   1.540  0.8599 -0.2892 -0.0853
 3714SOL    HW122071   3.945   0.979   1.495  1.0614 -1.2493  0.4449
 3714SOL    HW222072   4.091   0.950   1.564  1.1701  0.3200  0.8890
 3715SOL     OW22073   0.240   4.890   4.007 -0.6281  0.0743 -0.3780
 3715SOL    HW122074   0.225   4.954   4.083  0.5943  2.1032 -1.7931
 3715SOL    HW222075   0.196   4.803   4.028  2.4772 -0.5952  4.1527
 3716SOL     OW22076   1.440   2.702   3.482  0.8975  0.4105  0.1422
 3716SOL    HW122077   1.536   2.727   3.486  1.3990 -1.5483  0.9844
 3716SOL    HW222078   1.385   2.783   3.460  2.8977  1.0981 -2.4671
 3717SOL     OW22079   9.292   7.681   4.488 -0.6205 -0.0724  0.6522
 3717SOL    HW122080   9.238   7.628   4.553 -0.4520 -1.9436 -0.6834
 3717SOL    HW222081   9.284   7.640   4.397  1.5391  0.7162  0.0783
 3718SOL     OW22082   2.316   0.654   1.330  0.0681 -0.1474 -0.0428
 3718SOL    HW122083   2.359   0.570   1.363 -2.5122 -2.8535 -3.1876
 3718SOL    HW222084   2.383   0.708   1.280  1.7973 -0.2221  2.1203
 3719SOL     OW22085   8.011   3.459   2.204  0.4798 -0.0576 -0.9458
 3719SOL    HW122086   8.002   3.359   2.200  0.7934 -0.1553  0.4685
 3719SOL    HW222087   8.033   3.487   2.297 -2.9553  1.6121 -0.5681
 3720SOL     OW22088   4.953   8.993   2.308  0.2351  0.2471  0.2037
 3720SOL    HW122089   4.918   9.066   2.250 -1.1516 -2.5896 -2.6547
 3720SOL    HW222090   5.040   8.960   2.272 -0.1445 -0.8715  0.3013
 3721SOL     OW22091   7.683   8.324   1.988  0.0197 -0.1280  0.0774
 3721SOL    HW122092   7.755   8.255   1.992  1.3542  1.3431  2.1832
 3721SOL    HW222093   7.615   8.297   1.919  0.8057 -3.2150  0.4317
 3722SOL     OW22094   7.237   8.682   5.750 -0.4845 -0.2731  0.0511
 3722SOL    HW122095   7.259   8.727   5.836 -0.0722  1.7563 -1.0875
 3722SOL    HW222096   7.140   8.696   5.728 -0.7896 -1.4856  0.5691
 3723SOL     OW22097   1.000   3.269   0.646  0.1353  0.1391  0.3660
 3723SOL    HW122098   1.081   3.314   0.685 -0.8236  0.8935  1.5441
 3723SOL    HW222099   0.961   3.207   0.714  1.1155 -2.0646 -1.0622
 3724SOL     OW22100   2.581   8.296   1.643 -0.1613  0.2882  0.6463
 3724SOL    HW122101   2.503   8.238   1.665  1.2382 -1.9524 -0.1200
 3724SOL    HW222102   2.583   8.313   1.545  1.2822 -1.0939  0.4338
 3725SOL     OW22103   2.787   7.333   3.931  0.8499 -0.4795  0.3973
 3725SOL    HW122104   2.836   7.289   3.856 -1.7050  0.1979 -1.7334
 3725SOL    HW222105   2.742   7.263   3.987  0.6562 -0.8653 -0.2351
 3726SOL     OW22106   8.312   3.096   3.719 -0.3020  0.6709  0.1039
 3726SOL    HW122107   8.343   3.093   3.814 -2.2881  1.9975  0.8370
 3726SOL    HW222108   8.216   3.125   3.716  0.4917  3.3547 -2.4290
 3727SOL     OW22109   7.753   7.406   4.534 -0.2029  0.4333  0.5780
 3727SOL    HW122110   7.683   7.464   4.575 -1.6050 -0.8941  0.0957
 3727SOL    HW222111   7.736   7.310   4.559  0.2505 -0.1301 -1.2347
 3728SOL     OW22112   3.516   6.774   5.140 -0.1681 -0.5998 -0.3043
 3728SOL    HW122113   3.451   6.829   5.193 -0.4268  0.0343 -1.2686
 3728SOL    HW222114   3.566   6.713   5.202 -0.9808 -0.3887  0.5705
 3729SOL     OW22115   7.557   1.594   5.439  0.6983  0.0426  0.1754
 3729SOL    HW122116   7.652   1.610   5.414  0.6950 -1.6252 -0.9578
 3729SOL    HW222117   7.498   1.658   5.390  1.0321 -0.6091 -1.0919
 3730SOL     OW22118   7.915   9.019   5.717 -0.1573 -0.1361  0.5308
 3730SOL    HW122119   7.865   9.104   5.735 -1.5305 -0.7950 -0.0770
 3730SOL    HW222120   8.012   9.032   5.737 -0.3237  1.6323  0.2506
 3731SOL     OW22121   0.849   6.490   0.894 -0.2630  0.2157 -0.2092
 3731SOL    HW122122   0.896   6.404   0.912 -1.1521 -0.3024 -0.3176
 3731SOL    HW222123   0.915   6.565   0.892  0.6102 -0.5641 -0.8618
 3732SOL     OW22124   0.104   7.385   3.669 -0.0609 -0.2423 -0.5462
 3732SOL    HW122125   0.203   7.378   3.657  0.1088  0.1691  0.5536
 3732SOL    HW222126   0.058   7.362   3.583  1.0680  2.4337 -1.9271
 3733SOL     OW22127   0.184   5.521   1.119  0.0351  0.5985 -0.3349
 3733SOL    HW122128   0.236   5.568   1.190  1.3926  0.8253 -1.4487
 3733SOL    HW222129   0.247   5.490   1.047 -1.3107  0.3539 -1.4271
 3734SOL     OW22130   6.486   9.213   2.122  1.0030 -0.2643  0.1353
 3734SOL    HW122131   6.558   9.203   2.191  0.7596  0.2750  0.4650
 3734SOL    HW222132   6.416   9.143   2.137  0.6406  0.2426  0.8092
 3735SOL     OW22133   2.418   5.281   2.343 -0.3354  0.5070  0.5351
 3735SOL    HW122134   2.442   5.353   2.407  1.6910 -0.8763  1.3708
 3735SOL    HW222135   2.430   5.192   2.386 -1.0082 -0.3950 -1.0832
 3736SOL     OW22136   4.958   7.835   1.864 -0.6828 -0.1254 -0.3166
 3736SOL    HW122137   5.017   7.910   1.894  0.6677 -1.6989  1.0417
 3736SOL    HW222138   5.004   7.782   1.793 -0.7361 -0.9451  0.2554
 3737SOL     OW22139   5.503   4.028   6.292  0.2044 -0.2999 -0.3362
 3737SOL    HW122140   5.529   3.935   6.265  0.0517 -1.1504  2.2679
 3737SOL    HW222141   5.582   4.073   6.334 -0.4019 -0.1684  0.6817
 3738SOL     OW22142   5.358   3.124   4.723 -0.3586  0.4841  0.0147
 3738SOL    HW122143   5.389   3.123   4.818 -1.0688  1.6219  0.2734
 3738SOL    HW222144   5.329   3.032   4.697 -0.5330  0.2400  1.0304
 3739SOL     OW22145   8.085   1.287   0.327  0.1583 -0.0512 -0.1487
 3739SOL    HW122146   8.046   1.372   0.365 -0.0046 -0.0438 -0.3354
 3739SOL    HW222147   8.013   1.235   0.282 -0.1199 -1.1575  1.5172
 3740SOL     OW22148   8.013   2.011   2.430 -0.2816  0.1649  0.2441
 3740SOL    HW122149   7.929   2.029   2.482 -0.4506  0.9837 -0.3096
 3740SOL    HW222150   8.058   2.098   2.407 -1.1396 -0.0638 -2.5119
 3741SOL     OW22151   9.403   0.783   0.663  0.3477 -0.2779 -0.4924
 3741SOL    HW122152   9.305   0.770   0.671 -0.0236  2.8335  1.0737
 3741SOL    HW222153   9.422   0.853   0.594  1.3543 -0.0405 -0.0019
 3742SOL     OW22154   1.018   9.335   4.306 -0.2029 -0.4621  0.2984
 3742SOL    HW122155   1.035   9.340   4.207  0.6686 -2.7066  0.3084
 3742SOL    HW222156   0.931   9.380   4.326 -1.3318 -1.6207 -1.7745
 3743SOL     OW22157   9.966   7.176   4.157 -0.2382 -0.1643  0.1904
 3743SOL    HW122158   9.913   7.249   4.113  0.4265 -0.0094 -0.3565
 3743SOL    HW222159  10.017   7.214   4.234 -0.0143 -0.0897  0.0030
 3744SOL     OW22160   2.971   5.488   3.405  0.5058  0.1368  0.5584
 3744SOL    HW122161   2.896   5.438   3.448  0.0050  1.6165  1.4229
 3744SOL    HW222162   2.948   5.509   3.310  0.3157 -0.3911  0.4841
 3745SOL     OW22163   3.526   6.593   2.343  0.1074  0.9387  0.2726
 3745SOL    HW122164   3.545   6.578   2.440 -3.1596 -0.3131  0.7851
 3745SOL    HW222165   3.547   6.510   2.291 -0.6318  0.7291  0.3078
 3746SOL     OW22166   1.265   6.852   2.498 -0.0753 -0.1747  0.2247
 3746SOL    HW122167   1.312   6.936   2.526  0.1173  0.6472 -2.3534
 3746SOL    HW222168   1.297   6.775   2.553  0.5881  1.2538  1.8553
 3747SOL     OW22169   9.214   7.384   5.727 -0.5318  0.0033 -0.7308
 3747SOL    HW122170   9.288   7.338   5.678  1.7198  1.7455  0.8963
 3747SOL    HW222171   9.186   7.328   5.805 -0.0522 -0.1062 -0.6352
 3748SOL     OW22172   3.282   2.727   2.444 -0.1523  0.3580 -1.0770
 3748SOL    HW122173   3.182   2.731   2.441 -0.1253  0.8701 -1.4206
 3748SOL    HW222174   3.317   2.799   2.504 -0.0904 -1.4358  1.1335
 3749SOL     OW22175   2.024   4.306   4.062 -0.2008  0.4534  0.2331
 3749SOL    HW122176   1.971   4.233   4.105 -1.2918  1.5070  0.6879
 3749SOL    HW222177   1.974   4.392   4.068  1.8084  1.6023  1.2218
 3750SOL     OW22178   0.682   1.118   3.536  0.7357  0.2640 -0.2141
 3750SOL    HW122179   0.666   1.052   3.462  0.6721  1.1398 -0.9867
 3750SOL    HW222180   0.670   1.072   3.624 -0.0212 -0.5818 -0.7435
 3751SOL     OW22181   8.516   6.871   0.116 -0.8397 -0.1987  0.0083
 3751SOL    HW122182   8.564   6.791   0.152 -0.2633  0.5202  0.8556
 3751SOL    HW222183   8.453   6.843   0.044  0.9697 -1.1638 -1.2541
 3752SOL     OW22184   3.005   3.945   4.644  0.3045  0.0164  0.0394
 3752SOL    HW122185   3.052   3.949   4.732 -0.3889 -1.4355  0.4985
 3752SOL    HW222186   3.053   3.882   4.583 -0.5929 -0.8860  0.2499
 3753SOL     OW22187   9.371   1.892   0.715  0.7093 -0.2563 -0.8876
 3753SOL    HW122188   9.309   1.968   0.696  0.0975  0.2145  2.6381
 3753SOL    HW222189   9.360   1.821   0.645 -2.8761  0.3787 -1.0527
 3754SOL     OW22190   7.200   8.833   4.017  0.0991  0.3519  0.0264
 3754SOL    HW122191   7.244   8.852   4.105  1.3682 -0.4876 -0.4057
 3754SOL    HW222192   7.212   8.736   3.994 -1.0160  0.3614 -0.6467
 3755SOL     OW22193   6.883   7.725   4.458  0.3175  0.7517  0.2376
 3755SOL    HW122194   6.924   7.647   4.506 -2.2281 -1.2659 -0.7405
 3755SOL    HW222195   6.869   7.800   4.522  3.1497  0.6028  1.1227
 3756SOL     OW22196   4.445   3.756   0.134  0.2996 -0.1114 -0.3815
 3756SOL    HW122197   4.401   3.816   0.067  0.9471 -0.0569 -0.7547
 3756SOL    HW222198   4.514   3.807   0.185 -0.1586 -0.1616  0.3062
 3757SOL     OW22199   9.309   7.782   0.155  0.1451 -0.3955  0.0896
 3757SOL    HW122200   9.401   7.746   0.168 -0.3857 -1.3594  1.4617
 3757SOL    HW222201   9.249   7.708   0.125 -0.0530  0.3708 -1.4141
 3758SOL     OW22202   4.883   9.627   3.737  0.8557 -0.1984 -0.2035
 3758SOL    HW122203   4.841   9.714   3.711 -1.2866 -1.3336 -0.6493
 3758SOL    HW222204   4.875   9.614   3.836  0.8954 -0.0428 -0.1797
 3759SOL     OW22205   5.877   9.679   2.748 -0.1425  0.6913  0.3954
 3759SOL    HW122206   5.902   9.775   2.733 -0.7923  0.6302 -1.1617
 3759SOL    HW222207   5.893   9.627   2.665 -2.9001  0.1111  0.1930
 3760SOL     OW22208   2.125   3.482   3.151  0.2073 -0.0811 -0.2108
 3760SOL    HW122209   2.146   3.401   3.205 -2.3708 -0.0896  0.8163
 3760SOL    HW222210   2.168   3.562   3.194  0.9201 -0.5532 -0.0231
 3761SOL     OW22211   0.441   2.920   1.988  0.4984  0.3537  0.0014
 3761SOL    HW122212   0.464   2.954   2.079 -2.8505  1.3198  0.5543
 3761SOL    HW222213   0.447   2.994   1.922 -0.6581  0.5535  0.1062
 3762SOL     OW22214   9.843   5.014   0.308 -0.1156 -0.4056 -0.0323
 3762SOL    HW122215   9.755   4.968   0.300 -1.3409  1.9257 -0.2089
 3762SOL    HW222216   9.859   5.071   0.228  1.5991 -0.8600 -0.0354
 3763SOL     OW22217   1.408   4.553   1.335  0.3317 -0.0569 -0.1184
 3763SOL    HW122218   1.332   4.505   1.379  0.5069 -1.9620 -1.8085
 3763SOL    HW222219   1.373   4.632   1.284 -0.1523  0.7142  1.3716
 3764SOL     OW22220   9.233   4.827   1.432  0.7857  0.1147  0.3241
 3764SOL    HW122221   9.155   4.765   1.440  0.1770  0.5195 -2.0576
 3764SOL    HW222222   9.233   4.891   1.508  0.7205 -1.9971  2.1764
 3765SOL     OW22223   0.544   2.278   3.083  0.1675 -0.6823  0.0646
 3765SOL    HW122224   0.476   2.221   3.037  0.7851 -1.2196 -0.1882
 3765SOL    HW222225   0.596   2.223   3.148  0.0028 -0.1544  0.6569
 3766SOL     OW22226   4.602   0.060   3.132 -0.1780 -0.0856  0.3972
 3766SOL    HW122227   4.526   0.094   3.075 -0.1916  1.0049  1.0510
 3766SOL    HW222228   4.595   0.100   3.223  0.2240 -1.3209  0.9764
 3767SOL     OW22229   3.093   2.109   4.217  0.0224 -0.0705 -0.1645
 3767SOL    HW122230   3.024   2.092   4.147 -0.0443  0.5303 -0.2480
 3767SOL    HW222231   3.157   2.033   4.221 -0.5091 -0.5227 -0.2513
 3768SOL     OW22232   0.000   7.235   6.119  0.5790 -0.4101  0.2051
 3768SOL    HW122233   0.024   7.293   6.197  1.4460 -0.8235  0.2499
 3768SOL    HW222234  -0.061   7.162   6.149  0.0075  0.0894  0.2746
 3769SOL     OW22235   7.130   4.081   0.877  0.0600  0.2873 -0.3684
 3769SOL    HW122236   7.174   4.031   0.951 -0.2917 -0.8232 -0.8950
 3769SOL    HW222237   7.196   4.143   0.835  0.2503  0.9497  0.8884
 3770SOL     OW22238   8.461   6.594   2.950  0.6978  0.1550  0.6007
 3770SOL    HW122239   8.372   6.595   2.996  1.9413  0.0901  3.0739
 3770SOL    HW222240   8.447   6.593   2.851 -2.0491 -0.2852  0.9529
 3771SOL     OW22241   5.437   0.692   1.730  0.1411 -0.1593  0.1363
 3771SOL    HW122242   5.505   0.632   1.689 -1.6870 -1.2369 -1.4183
 3771SOL    HW222243   5.355   0.692   1.673 -0.6618  2.1764  1.2470
 3772SOL     OW22244   8.340   8.278   5.175  0.2262 -0.4029  0.2046
 3772SOL    HW122245   8.288   8.303   5.093 -0.9134  0.5888  1.1972
 3772SOL    HW222246   8.437   8.299   5.161  0.0449 -0.2713 -0.9037
 3773SOL     OW22247   6.452   0.322   2.838  0.1819  0.4386  0.3312
 3773SOL    HW122248   6.515   0.355   2.908  0.1128 -0.7092  0.9450
 3773SOL    HW222249   6.395   0.397   2.806  0.9908  1.2107  0.6935
 3774SOL     OW22250   0.682   1.910   2.636 -0.2418  0.4114 -0.2715
 3774SOL    HW122251   0.645   2.001   2.652 -1.5985 -0.1059 -0.3835
 3774SOL    HW222252   0.767   1.917   2.583 -0.9142  1.5509 -1.2267
 3775SOL     OW22253   0.668   4.429   2.683  0.2216 -0.0191 -0.5081
 3775SOL    HW122254   0.595   4.426   2.751  1.3106  1.2471  0.7456
 3775SOL    HW222255   0.657   4.511   2.627 -0.3736 -0.7923 -1.5430
 3776SOL     OW22256   8.680   6.623   4.582  0.2236  0.7535  0.1350
 3776SOL    HW122257   8.765   6.658   4.623  1.1204 -0.3600 -0.7402
 3776SOL    HW222258   8.684   6.635   4.483  0.5868 -1.8542 -0.1966
 3777SOL     OW22259   2.853   5.601   1.725 -0.1259 -0.1653 -0.2658
 3777SOL    HW122260   2.932   5.550   1.693  0.2531  0.6490 -0.6507
 3777SOL    HW222261   2.778   5.538   1.746  0.6984 -0.9664  0.3357
 3778SOL     OW22262   2.008   0.671   4.319  0.1652 -0.5272  0.2036
 3778SOL    HW122263   2.074   0.723   4.373 -0.1152  0.4145 -0.3472
 3778SOL    HW222264   2.009   0.704   4.225 -0.4152 -1.1488 -0.0208
 3779SOL     OW22265   0.920   1.657   2.101 -0.0691  0.2551 -0.0148
 3779SOL    HW122266   0.846   1.723   2.115  0.1161  0.0428  2.0700
 3779SOL    HW222267   0.977   1.687   2.024 -1.5353  1.1163 -0.7824
 3780SOL     OW22268   9.284   7.179   5.011  0.1026  0.6142  0.4029
 3780SOL    HW122269   9.231   7.253   4.968 -3.5364 -0.8045  2.1619
 3780SOL    HW222270   9.261   7.175   5.108  0.6183 -2.4516  0.4475
 3781SOL     OW22271   8.623   8.179   3.531  0.2629 -0.0056 -0.3825
 3781SOL    HW122272   8.557   8.109   3.559  0.2869 -0.7489 -2.1651
 3781SOL    HW222273   8.575   8.257   3.492  0.2217  1.1255  1.8061
 3782SOL     OW22274   2.765   4.417   0.368  0.4007  0.4079  0.1862
 3782SOL    HW122275   2.850   4.429   0.419  0.3840  0.0745  0.2948
 3782SOL    HW222276   2.726   4.327   0.389  0.0909  0.5063  0.0357
 3783SOL     OW22277   2.652   1.284   3.630  0.0227 -0.5678  0.3828
 3783SOL    HW122278   2.681   1.304   3.536 -2.4623  3.8893  0.4181
 3783SOL    HW222279   2.690   1.196   3.658  0.5897 -2.2035 -4.8645
 3784SOL     OW22280   7.910   1.450   3.915 -0.3334 -0.2493  0.2384
 3784SOL    HW122281   7.879   1.537   3.877 -2.2978 -0.8578  0.3893
 3784SOL    HW222282   8.010   1.451   3.925 -0.2757  1.7051 -0.4093
 3785SOL     OW22283   9.216   0.112   3.965 -0.0476 -0.4595 -0.3017
 3785SOL    HW122284   9.125   0.154   3.960  0.5184  0.8031 -0.1916
 3785SOL    HW222285   9.274   0.148   3.892  0.2098 -1.6512 -0.6939
 3786SOL     OW22286   1.299   4.483   6.522 -0.2807  0.2639 -0.0218
 3786SOL    HW122287   1.253   4.522   6.602  0.6432 -1.2908  1.3007
 3786SOL    HW222288   1.317   4.556   6.456 -0.9577  1.6048  1.2244
 3787SOL     OW22289   4.543   8.307   2.490  0.3179 -0.4519  0.5789
 3787SOL    HW122290   4.629   8.344   2.525  0.3283 -1.6940  1.9023
 3787SOL    HW222291   4.484   8.282   2.567 -0.6568 -0.9190 -0.3161
 3788SOL     OW22292   6.820   0.579   5.714 -0.1074 -0.3945  0.1789
 3788SOL    HW122293   6.758   0.501   5.707  1.0448 -1.2938 -0.2216
 3788SOL    HW222294   6.775   0.654   5.761 -1.6166 -0.9162 -0.4260
 3789SOL     OW22295   0.134   0.571   3.699 -0.5525  0.5043 -0.4093
 3789SOL    HW122296   0.225   0.577   3.658 -0.6632  0.2223 -0.6979
 3789SOL    HW222297   0.142   0.563   3.798 -0.2640  0.5450 -0.4304
 3790SOL     OW22298   7.563   6.053   4.442 -0.1690 -0.4854  0.8237
 3790SOL    HW122299   7.505   6.133   4.458  0.9208  0.1108  1.7914
 3790SOL    HW222300   7.612   6.063   4.355 -2.0686 -1.3403 -0.3930
 3791SOL     OW22301   3.108   6.328   4.403  0.4895  0.0720 -0.3134
 3791SOL    HW122302   3.123   6.267   4.481 -0.3952  0.9530  0.5510
 3791SOL    HW222303   3.107   6.274   4.319 -2.1253 -1.3875  0.5995
 3792SOL     OW22304   9.148   1.942   3.790  0.9889  0.2085  0.4048
 3792SOL    HW122305   9.171   1.851   3.754 -1.1917 -0.3526  0.3561
 3792SOL    HW222306   9.114   1.999   3.716 -2.8252 -0.7175  1.3635
 3793SOL     OW22307   4.677   9.328   3.722 -0.1304  0.2079 -0.3142
 3793SOL    HW122308   4.771   9.360   3.719  0.0430 -0.2802 -0.2057
 3793SOL    HW222309   4.676   9.232   3.750 -0.6989  0.4040  0.3475
 3794SOL     OW22310   2.538   6.276   1.237  0.4333 -0.0905  0.1701
 3794SOL    HW122311   2.606   6.340   1.274  0.5589 -1.0664  1.6807
 3794SOL    HW222312   2.558   6.259   1.140  1.4241  0.8234  0.2009
 3795SOL     OW22313   8.317   6.213   4.967  0.4462 -0.2763  0.7238
 3795SOL    HW122314   8.298   6.117   4.947  0.4128 -0.2361  0.5584
 3795SOL    HW222315   8.276   6.270   4.896  0.8566 -0.1688  0.5721
 3796SOL     OW22316   2.279   6.422   6.544  0.8282  0.0279 -0.0219
 3796SOL    HW122317   2.233   6.508   6.566  3.2550  1.6834 -1.1614
 3796SOL    HW222318   2.317   6.382   6.628  1.6172  1.2391  0.2093
 3797SOL     OW22319   5.264   2.191   4.126  0.4696  0.0287  0.1591
 3797SOL    HW122320   5.346   2.246   4.136 -0.4091  1.2759  0.6804
 3797SOL    HW222321   5.228   2.201   4.034  0.8023 -0.3661 -0.0120
 3798SOL     OW22322   1.459   3.614   0.682 -0.1689 -0.4375  0.0820
 3798SOL    HW122323   1.397   3.617   0.604 -0.3423  2.1103  0.2896
 3798SOL    HW222324   1.410   3.643   0.765  1.0764  0.8342  0.3925
 3799SOL     OW22325   3.708   6.870   0.995  0.2007  0.0972  0.0721
 3799SOL    HW122326   3.772   6.943   0.969 -1.3638  1.2861 -0.5049
 3799SOL    HW222327   3.717   6.793   0.932 -0.7292  1.3164 -1.5728
 3800SOL     OW22328   0.257   7.088   2.461  0.1913  0.5538  0.7243
 3800SOL    HW122329   0.338   7.089   2.520  0.2960 -2.3565  0.7151
 3800SOL    HW222330   0.175   7.100   2.516  0.3337 -1.5301  1.4385
 3801SOL     OW22331   3.164   0.107   1.247  0.3604  0.9053 -0.8070
 3801SOL    HW122332   3.189   0.082   1.341 -1.9362 -1.1998 -0.6996
 3801SOL    HW222333   3.069   0.081   1.230  0.6484  1.5612 -3.6163
 3802SOL     OW22334   0.309   8.567   1.452 -1.0131 -0.1894 -0.3831
 3802SOL    HW122335   0.351   8.657   1.463 -1.1198 -0.0101 -1.3868
 3802SOL    HW222336   0.379   8.496   1.458 -0.8210  0.0074 -0.3120
 3803SOL     OW22337   5.222   9.501   3.360 -0.2018  0.1977  0.3666
 3803SOL    HW122338   5.245   9.430   3.427 -1.6960  0.9020  1.6410
 3803SOL    HW222339   5.208   9.459   3.270 -0.0008 -0.9711  0.8735
 3804SOL     OW22340   9.474   5.359   5.402 -0.3825  0.2855 -0.0767
 3804SOL    HW122341   9.410   5.283   5.392  0.2774 -0.3279  0.2841
 3804SOL    HW222342   9.440   5.439   5.353 -1.9250  0.2880  0.9872
 3805SOL     OW22343   8.226   1.536   0.485 -0.6116 -0.3511 -0.2622
 3805SOL    HW122344   8.248   1.511   0.579 -3.1547  1.5451  0.8535
 3805SOL    HW222345   8.296   1.599   0.450 -0.8252  0.6418  1.0840
 3806SOL     OW22346   2.941   7.138   6.419 -0.5193 -0.6472  0.1833
 3806SOL    HW122347   2.950   7.088   6.506 -1.4678 -0.3043  0.4781
 3806SOL    HW222348   2.944   7.073   6.343  0.2824 -0.9535  0.4732
 3807SOL     OW22349   9.397   8.368   1.259  0.3562 -0.0985 -0.1339
 3807SOL    HW122350   9.297   8.378   1.256  0.1700 -1.7611 -0.1489
 3807SOL    HW222351   9.430   8.343   1.168  0.4820 -1.9335  0.3908
 3808SOL     OW22352   0.708   1.022   3.794 -0.5809  0.4587  0.3228
 3808SOL    HW122353   0.732   0.944   3.852 -0.2307  1.1322  1.0901
 3808SOL    HW222354   0.769   1.098   3.814 -1.5770  1.2652  0.3008
 3809SOL     OW22355   2.580   2.154   3.083  0.8104 -0.2528  0.2113
 3809SOL    HW122356   2.579   2.064   3.040  0.7442 -0.5287  0.7778
 3809SOL    HW222357   2.493   2.169   3.131  0.8129  0.1232  0.1017
 3810SOL     OW22358   9.289   5.215   6.406  0.1651  0.2906  0.3690
 3810SOL    HW122359   9.251   5.306   6.424  1.0474  1.1089 -1.7397
 3810SOL    HW222360   9.241   5.172   6.330  1.0053 -0.2112  0.1123
 3811SOL     OW22361   9.102   1.607   2.658 -0.2145  0.1911 -0.2198
 3811SOL    HW122362   9.046   1.530   2.688 -0.0814 -0.3103 -1.2283
 3811SOL    HW222363   9.057   1.652   2.580  0.4349  0.2198 -0.5802
 3812SOL     OW22364   5.795   9.068   4.015 -0.0532  0.1670  0.0253
 3812SOL    HW122365   5.845   9.107   4.093  0.6286  0.7185 -0.6792
 3812SOL    HW222366   5.716   9.017   4.048 -0.3843  1.3062  1.0268
 3813SOL     OW22367   9.488   2.603   0.421  0.0012  0.3848  0.0118
 3813SOL    HW122368   9.492   2.632   0.326  1.5699  0.1618 -0.0029
 3813SOL    HW222369   9.566   2.544   0.442 -0.5904  0.0276  1.2996
 3814SOL     OW22370   0.393   0.840   2.720 -0.2280 -0.1717 -0.1815
 3814SOL    HW122371   0.307   0.796   2.694 -0.3121  0.4754 -1.0399
 3814SOL    HW222372   0.396   0.933   2.681  0.0471  0.4918  1.3720
 3815SOL     OW22373   0.351   3.963   6.515 -0.4233 -0.5600 -0.5117
 3815SOL    HW122374   0.304   3.974   6.603 -0.5826  1.1334 -0.7815
 3815SOL    HW222375   0.378   3.868   6.503  1.7231 -0.3892  2.4574
 3816SOL     OW22376   0.324   3.645   1.104 -0.2789 -0.1598  0.2557
 3816SOL    HW122377   0.254   3.715   1.087 -0.5245 -0.8047 -1.5595
 3816SOL    HW222378   0.379   3.632   1.021 -0.0200 -1.8697  0.6672
 3817SOL     OW22379   2.488   5.999   1.598 -0.2265 -0.1526  0.4001
 3817SOL    HW122380   2.532   5.982   1.686 -3.9241 -1.6907  2.0670
 3817SOL    HW222381   2.442   6.088   1.600  0.1102  0.0365 -0.1563
 3818SOL     OW22382   0.967   3.363   3.612  0.4897 -0.6009  0.2207
 3818SOL    HW122383   0.870   3.341   3.598  0.2132  0.0353  1.1574
 3818SOL    HW222384   1.007   3.392   3.525 -0.5854  0.8006  0.1758
 3819SOL     OW22385   7.274   0.543   2.780  0.0799  0.2939  0.7237
 3819SOL    HW122386   7.309   0.629   2.742  1.7473 -1.5256 -2.0644
 3819SOL    HW222387   7.290   0.542   2.878  2.2843  2.1579  0.4575
 3820SOL     OW22388   2.767   6.364   3.398  0.3582 -0.8530  0.0604
 3820SOL    HW122389   2.820   6.285   3.430 -0.0367 -1.4647 -0.7823
 3820SOL    HW222390   2.711   6.337   3.320  0.4913  0.3697 -0.4589
 3821SOL     OW22391   7.363   0.220   0.843  0.4943  0.3086 -0.0708
 3821SOL    HW122392   7.329   0.263   0.759 -0.2584 -0.7612 -0.3195
 3821SOL    HW222393   7.293   0.161   0.881  0.9666  0.5100  1.1315
 3822SOL     OW22394   3.316   5.874   4.097  0.2757 -0.3906 -0.1624
 3822SOL    HW122395   3.328   5.834   4.188 -0.3190 -0.7911 -0.2567
 3822SOL    HW222396   3.334   5.804   4.028  1.3009  0.0661 -0.3660
 3823SOL     OW22397   0.048   9.565   2.520  0.3683  0.1394  0.1953
 3823SOL    HW122398   0.042   9.507   2.440  2.0502  0.6113 -0.2915
 3823SOL    HW222399   0.012   9.516   2.600  2.3447 -1.8360 -0.0745
 3824SOL     OW22400   9.746   8.106   3.439  0.0880 -0.2819 -0.0231
 3824SOL    HW122401   9.683   8.176   3.405 -0.7611 -1.3685 -0.7129
 3824SOL    HW222402   9.757   8.117   3.538 -0.3783  0.5539 -0.0574
 3825SOL     OW22403   8.308   4.639   0.287  0.2911 -0.1136  0.0774
 3825SOL    HW122404   8.296   4.650   0.189 -0.1876 -1.4872 -0.0314
 3825SOL    HW222405   8.240   4.696   0.335 -0.1004 -0.1797 -0.3947
 3826SOL     OW22406   0.868   9.011   3.143 -0.3645 -0.2436  0.3942
 3826SOL    HW122407   0.935   9.054   3.204  1.3617  1.0068 -2.2549
 3826SOL    HW222408   0.902   8.922   3.113 -0.5021 -0.1991  0.1035
 3827SOL     OW22409   8.892   1.127   4.189 -0.1195  0.0391 -0.4727
 3827SOL    HW122410   8.979   1.090   4.155  0.3467  0.4145  0.3134
 3827SOL    HW222411   8.878   1.218   4.151  0.6114  0.6357  0.6791
 3828SOL     OW22412   0.932   2.766   1.203  0.0672  0.6044 -0.1181
 3828SOL    HW122413   0.952   2.797   1.296  0.4489 -0.2542  0.0894
 3828SOL    HW222414   1.005   2.705   1.172 -0.6051  0.0335 -0.5762
 3829SOL     OW22415   5.384   1.868   2.397  0.4924 -0.2049  0.2494
 3829SOL    HW122416   5.438   1.952   2.393  1.0213 -0.4930  1.2140
 3829SOL    HW222417   5.446   1.790   2.403  0.0215 -0.7250 -1.4747
 3830SOL     OW22418   1.909   4.008   2.355  0.5510 -0.1327 -0.0003
 3830SOL    HW122419   1.813   3.979   2.356  0.7391 -0.8057 -1.0328
 3830SOL    HW222420   1.947   4.001   2.447  0.4347 -2.6518 -0.1203
 3831SOL     OW22421   6.619   1.108   0.270  0.1787  0.1899  0.2209
 3831SOL    HW122422   6.654   1.114   0.176 -1.9970 -0.5932 -0.6730
 3831SOL    HW222423   6.678   1.161   0.331  2.3597 -0.3403 -1.3678
 3832SOL     OW22424   5.060   2.379   4.295  0.3221 -0.2648 -0.1960
 3832SOL    HW122425   5.134   2.410   4.235  0.7737 -1.5279 -0.3054
 3832SOL    HW222426   5.069   2.281   4.311  0.6967  0.1955  2.6188
 3833SOL     OW22427   5.443   9.634   1.209  0.4415 -0.1309 -0.1242
 3833SOL    HW122428   5.495   9.713   1.179  0.9110 -0.2174  0.4555
 3833SOL    HW222429   5.376   9.609   1.138  1.5360 -0.3449 -1.0991
 3834SOL     OW22430   3.401   7.911   4.155  0.0081  0.3758 -0.0345
 3834SOL    HW122431   3.483   7.929   4.101  0.5921 -2.3934 -0.1668
 3834SOL    HW222432   3.426   7.895   4.250 -0.2688 -1.0143 -0.1733
 3835SOL     OW22433   7.459   7.640   3.953  0.2108 -0.0084 -0.9478
 3835SOL    HW122434   7.381   7.584   3.984  0.9007 -1.1008 -1.1619
 3835SOL    HW222435   7.467   7.721   4.012 -0.3103 -0.5445 -0.1268
 3836SOL     OW22436   3.916   7.206   1.209 -0.1057  0.4057  0.2667
 3836SOL    HW122437   3.865   7.280   1.253  1.2962  0.0386  2.5863
 3836SOL    HW222438   3.898   7.120   1.257  2.1754  0.1619  0.7667
 3837SOL     OW22439   9.959   5.599   4.982  0.4947 -0.2481  0.0356
 3837SOL    HW122440   9.927   5.573   5.073 -1.2006  1.3342 -0.0832
 3837SOL    HW222441   9.922   5.689   4.958  0.8380 -0.6909 -2.2673
 3838SOL     OW22442   7.510   0.295   0.479  0.2807 -0.0692  0.3051
 3838SOL    HW122443   7.425   0.331   0.519  0.2064 -0.3628  0.4160
 3838SOL    HW222444   7.542   0.218   0.534 -0.1822 -0.9102 -0.5770
 3839SOL     OW22445   4.378   5.034   0.891  0.5317 -0.1235 -0.1058
 3839SOL    HW122446   4.332   4.952   0.925 -0.1713  1.0702  1.8765
 3839SOL    HW222447   4.310   5.098   0.854  0.7595  0.8410  1.1100
 3840SOL     OW22448   4.453   3.640   2.634 -0.4026  0.7413  0.3405
 3840SOL    HW122449   4.535   3.696   2.641 -0.5470  0.9642  0.2787
 3840SOL    HW222450   4.432   3.623   2.538 -0.0544  0.1262  0.3730
 3841SOL     OW22451   1.770   3.865   1.736  0.0848 -0.5217  0.5980
 3841SOL    HW122452   1.699   3.817   1.684 -1.0646  0.3462  1.3481
 3841SOL    HW222453   1.858   3.822   1.718 -0.2022 -0.0176 -2.4070
 3842SOL     OW22454   1.384   3.751   2.723 -0.0155 -0.0774 -0.3372
 3842SOL    HW122455   1.299   3.801   2.709 -0.1562 -0.4327 -0.7488
 3842SOL    HW222456   1.410   3.757   2.819 -0.7554 -0.3546 -0.1098
 3843SOL     OW22457   1.489   5.372   6.341  0.0419  0.1848 -0.3474
 3843SOL    HW122458   1.475   5.351   6.244 -0.5393 -0.4851 -0.1269
 3843SOL    HW222459   1.557   5.444   6.350  2.3838 -1.8556 -1.1441
 3844SOL     OW22460   4.305   7.976   1.487  0.1461  0.0269 -0.3647
 3844SOL    HW122461   4.298   7.882   1.452  0.8578 -0.2129  0.1163
 3844SOL    HW222462   4.319   7.973   1.586 -0.5794  0.6669 -0.2427
 3845SOL     OW22463   4.701   0.937   2.716 -0.3741  0.3640 -0.1604
 3845SOL    HW122464   4.728   0.976   2.628 -1.7661  1.4542 -0.1208
 3845SOL    HW222465   4.778   0.942   2.779 -0.3113  2.4269 -0.3708
 3846SOL     OW22466   7.522   1.178   4.154  0.8024 -0.6158 -0.1427
 3846SOL    HW122467   7.442   1.203   4.099  0.2560 -1.1025  0.4184
 3846SOL    HW222468   7.499   1.185   4.251  1.1701 -1.6136  0.0270
 3847SOL     OW22469   1.543   4.182   4.131  0.4406  0.3679 -0.4025
 3847SOL    HW122470   1.447   4.207   4.147  0.1975 -0.9096  0.2209
 3847SOL    HW222471   1.599   4.264   4.129 -0.7468  1.1736 -1.2967
 3848SOL     OW22472   6.834   2.063   4.456 -0.6817  0.5282  0.2261
 3848SOL    HW122473   6.749   2.024   4.493 -1.7899  1.2379 -1.5315
 3848SOL    HW222474   6.818   2.157   4.429  0.4879  0.4353 -0.7777
 3849SOL     OW22475   1.369   8.371   2.613 -0.2932 -0.0948  0.2487
 3849SOL    HW122476   1.445   8.339   2.556 -0.0357  0.9294  0.0189
 3849SOL    HW222477   1.321   8.445   2.566 -1.3659 -0.6515  0.4479
 3850SOL     OW22478   8.361   3.597   0.501  0.0566  0.3558  0.4287
 3850SOL    HW122479   8.367   3.499   0.519 -0.2047  0.0265 -1.1998
 3850SOL    HW222480   8.304   3.640   0.570 -0.7224 -0.8203  0.5352
 3851SOL     OW22481   6.769   7.487   4.720 -0.5649  0.7618  0.0548
 3851SOL    HW122482   6.782   7.417   4.790 -2.7276  0.2930  0.0489
 3851SOL    HW222483   6.727   7.445   4.639  1.8496  1.3028 -1.5103
 3852SOL     OW22484   1.463   9.727   2.926  0.0971  0.7262 -0.7209
 3852SOL    HW122485   1.384   9.789   2.929 -0.4269  0.0718 -0.8330
 3852SOL    HW222486   1.465   9.673   3.010  0.0526  0.2836 -1.0032
 3853SOL     OW22487   9.350   4.015   5.312  0.1889 -0.3920  0.6159
 3853SOL    HW122488   9.308   4.049   5.228  1.8637  0.0449 -0.0643
 3853SOL    HW222489   9.360   4.090   5.378  0.3437 -0.3891  0.5897
 3854SOL     OW22490   8.542   7.068   1.485 -0.2171 -0.0215 -0.0238
 3854SOL    HW122491   8.537   7.077   1.386 -0.6963 -0.7664 -0.0685
 3854SOL    HW222492   8.574   6.976   1.509  0.4500  0.3454  0.5015
 3855SOL     OW22493   1.039   4.163   1.712  0.1154 -0.0089  0.0392
 3855SOL    HW122494   1.122   4.108   1.712 -0.4325 -0.8610  0.1425
 3855SOL    HW222495   1.062   4.260   1.723  1.1699 -0.1007 -1.2920
 3856SOL     OW22496   7.932   2.252   3.702  0.2660 -0.2203 -0.0168
 3856SOL    HW122497   7.960   2.338   3.658  2.6967 -0.0963  1.6800
 3856SOL    HW222498   7.990   2.178   3.670 -0.8428 -0.9674 -0.3247
 3857SOL     OW22499   8.820   1.639   0.891  0.2690 -0.2631 -0.2734
 3857SOL    HW122500   8.802   1.640   0.793 -0.1418 -2.0124 -0.2358
 3857SOL    HW222501   8.914   1.668   0.909  0.8337 -1.4626 -1.3026
 3858SOL     OW22502   1.677   5.578   6.375 -1.0700 -0.0417 -0.5118
 3858SOL    HW122503   1.645   5.577   6.469  1.0520  0.8797  0.2457
 3858SOL    HW222504   1.673   5.672   6.339 -2.9408 -0.5505 -1.7600
 3859SOL     OW22505   2.793   6.605   6.093  0.0366  0.2158 -0.2586
 3859SOL    HW122506   2.793   6.657   6.178  2.2876  2.8456 -1.7748
 3859SOL    HW222507   2.788   6.668   6.015  1.4582 -1.9012 -2.1451
 3860SOL     OW22508   4.353   1.832   2.529 -0.2733 -0.1595  0.0919
 3860SOL    HW122509   4.436   1.849   2.476 -0.9480  1.2055 -0.5668
 3860SOL    HW222510   4.312   1.746   2.501 -0.3806  0.3327 -1.3125
 3861SOL     OW22511   2.306   7.120   2.790  0.2039 -0.2808  0.1350
 3861SOL    HW122512   2.329   7.046   2.854  0.3124 -0.3375  0.0296
 3861SOL    HW222513   2.329   7.208   2.833 -0.3411 -0.2818  0.4353
 3862SOL     OW22514   2.879   2.689   4.272  0.6975  0.3594  0.5802
 3862SOL    HW122515   2.928   2.601   4.279  1.3820  0.7110  0.3130
 3862SOL    HW222516   2.889   2.739   4.358  1.0755  0.5663  0.4172
 3863SOL     OW22517   1.197   6.405   3.559  0.0252 -0.1827 -0.1138
 3863SOL    HW122518   1.149   6.317   3.557 -0.5444  0.1320 -0.4304
 3863SOL    HW222519   1.288   6.395   3.519 -0.4726 -0.3669 -1.2077
 3864SOL     OW22520   4.888   9.843   3.478 -0.6102 -0.1711 -0.8998
 3864SOL    HW122521   4.803   9.811   3.519  0.1747 -1.0884  0.0230
 3864SOL    HW222522   4.928   9.770   3.424  0.8105 -0.5259  0.6068
 3865SOL     OW22523   6.909   9.415   5.303 -0.2447 -0.2801 -0.5657
 3865SOL    HW122524   6.844   9.392   5.376 -0.8430 -0.0115 -1.0148
 3865SOL    HW222525   6.893   9.358   5.223 -0.8080  0.7138 -1.1656
 3866SOL     OW22526   4.916   5.448   2.403  0.5360  0.1926  0.1905
 3866SOL    HW122527   4.948   5.542   2.390  1.5074 -0.3387 -1.3239
 3866SOL    HW222528   4.988   5.393   2.445  0.3126 -0.1219  0.1666
 3867SOL     OW22529   5.430   0.137   0.812 -0.6908 -0.3369  0.0419
 3867SOL    HW122530   5.471   0.160   0.723 -0.5340 -0.9774 -0.0519
 3867SOL    HW222531   5.404   0.040   0.812 -0.4008 -0.4119  0.8107
 3868SOL     OW22532   9.290   5.944   4.770  0.3526 -0.1077 -0.2827
 3868SOL    HW122533   9.296   5.877   4.697  1.0865 -1.1774  0.7320
 3868SOL    HW222534   9.381   5.957   4.810 -0.1033  0.2044  0.6680
 3869SOL     OW22535   3.529   8.968   3.655  0.6043  0.2390 -0.6372
 3869SOL    HW122536   3.527   8.982   3.754  0.5573  0.3262 -0.6509
 3869SOL    HW222537   3.502   8.874   3.634  1.3499 -0.0107 -0.5139
 3870SOL     OW22538   6.173   0.953   5.198 -0.0227 -0.1454  0.4094
 3870SOL    HW122539   6.188   0.938   5.296 -0.0087 -1.0967  0.2692
 3870SOL    HW222540   6.223   0.884   5.146  1.0438  1.1544 -0.3286
 3871SOL     OW22541   3.428   4.164   3.776 -0.3264  0.0811  1.4754
 3871SOL    HW122542   3.509   4.172   3.718  0.7776 -2.1275  2.6294
 3871SOL    HW222543   3.346   4.156   3.719  0.8125 -2.8968  0.1553
 3872SOL     OW22544   7.975   5.893   1.992 -0.1174  0.9030 -0.0305
 3872SOL    HW122545   8.042   5.966   2.005  2.1933 -1.0277 -0.8917
 3872SOL    HW222546   7.935   5.900   1.901 -0.3283  1.4492  0.1052
 3873SOL     OW22547   3.569   7.734   3.041  0.4241  0.0585  0.1461
 3873SOL    HW122548   3.507   7.800   3.084  0.9698  0.2758  0.6156
 3873SOL    HW222549   3.517   7.657   3.006 -0.1652  0.4751  0.0957
 3874SOL     OW22550   8.513   0.597   3.098  0.0893 -0.3844  0.1563
 3874SOL    HW122551   8.466   0.560   3.178  0.0744 -0.4636  0.1114
 3874SOL    HW222552   8.611   0.601   3.116 -0.0874  1.2368  0.8341
 3875SOL     OW22553   2.070   8.055   3.993 -0.9349 -0.3255 -0.0655
 3875SOL    HW122554   2.019   7.981   3.949 -1.4301  0.5459 -0.9671
 3875SOL    HW222555   2.014   8.138   3.996 -1.0757 -0.4485  2.5519
 3876SOL     OW22556   4.415   7.547   2.381  0.4405 -0.9567  0.2470
 3876SOL    HW122557   4.349   7.613   2.417  1.2624 -0.4686  0.8924
 3876SOL    HW222558   4.489   7.596   2.335  0.5338 -1.4825 -0.1665
 3877SOL     OW22559   1.366   8.242   2.055  0.1825 -0.6855 -0.2100
 3877SOL    HW122560   1.273   8.271   2.078 -0.0601 -1.5437 -0.0603
 3877SOL    HW222561   1.371   8.218   1.958  1.2070  2.9357 -1.1316
 3878SOL     OW22562   0.732   5.210   5.957 -0.1580 -0.2222 -0.2435
 3878SOL    HW122563   0.742   5.158   5.872  0.4626 -1.1215  0.3699
 3878SOL    HW222564   0.769   5.302   5.944  0.3006 -0.4824 -0.8370
 3879SOL     OW22565   0.141   3.683   3.905  0.1514  0.0248  0.0698
 3879SOL    HW122566   0.144   3.606   3.969  0.5531  0.0068  0.0351
 3879SOL    HW222567   0.049   3.721   3.902 -0.6262 -1.8727 -1.5916
 3880SOL     OW22568   8.605   2.374   1.370  0.4924  0.6779 -0.2802
 3880SOL    HW122569   8.649   2.353   1.457 -0.5648  0.2943  0.1572
 3880SOL    HW222570   8.592   2.290   1.318 -0.4078  0.7018 -0.0940
 3881SOL     OW22571   8.762   2.788   4.943 -0.0964 -0.0919  0.2932
 3881SOL    HW122572   8.713   2.848   5.007 -0.7572  0.7958 -1.0208
 3881SOL    HW222573   8.779   2.837   4.858  1.4174 -1.0333  0.0463
 3882SOL     OW22574   5.633   0.429   3.191 -0.0089 -0.4984 -0.0921
 3882SOL    HW122575   5.725   0.466   3.202 -0.1825 -0.6351  2.0194
 3882SOL    HW222576   5.611   0.370   3.269 -2.6000  1.0427  0.4081
 3883SOL     OW22577   5.622   1.316   1.318 -0.2115  0.0904 -0.5261
 3883SOL    HW122578   5.554   1.281   1.255  0.8444 -0.4900 -1.3696
 3883SOL    HW222579   5.683   1.379   1.269 -0.6020  1.2078  0.3956
 3884SOL     OW22580   1.449   6.215   4.902 -0.6032 -0.3289  0.0025
 3884SOL    HW122581   1.441   6.137   4.963 -0.2802 -1.1452 -0.9924
 3884SOL    HW222582   1.358   6.251   4.882 -0.7001  0.1136  1.1541
 3885SOL     OW22583   0.118   3.385   6.552 -0.6360 -0.0389  0.5039
 3885SOL    HW122584   0.202   3.439   6.550 -0.6234 -0.0616  0.4154
 3885SOL    HW222585   0.116   3.324   6.473 -1.4233  0.9995 -0.2835
 3886SOL     OW22586   8.719   9.042   3.938 -0.0227 -0.8410 -0.1768
 3886SOL    HW122587   8.686   9.136   3.945 -0.7546 -0.9732 -1.7247
 3886SOL    HW222588   8.818   9.040   3.952  0.2998  0.4395 -2.1121
 3887SOL     OW22589   0.435   0.688   2.085 -0.0988 -0.1066 -0.3713
 3887SOL    HW122590   0.431   0.780   2.044  0.8984  0.2741  0.3704
 3887SOL    HW222591   0.516   0.641   2.052  0.3955 -0.0191  0.6901
 3888SOL     OW22592   9.345   4.710   0.235  0.0923 -0.2261 -0.4678
 3888SOL    HW122593   9.371   4.667   0.148  0.5938 -2.6230  0.8307
 3888SOL    HW222594   9.352   4.643   0.308 -1.6852  1.4080  1.2259
 3889SOL     OW22595   3.383   0.492   4.341 -0.5543 -0.0290  0.2900
 3889SOL    HW122596   3.352   0.580   4.305 -0.7130  0.5642  1.8101
 3889SOL    HW222597   3.440   0.446   4.273 -0.8060  1.0689 -0.6828
 3890SOL     OW22598   1.563   3.294   3.020 -0.3531 -0.3558 -0.0404
 3890SOL    HW122599   1.484   3.300   3.080 -0.1256 -0.2129  0.2424
 3890SOL    HW222600   1.541   3.236   2.941 -0.4970 -0.9196  0.4145
 3891SOL     OW22601   5.652   1.083   5.181 -0.0299 -0.1589 -0.3609
 3891SOL    HW122602   5.579   1.052   5.119  0.2834  1.5143 -1.5861
 3891SOL    HW222603   5.696   1.003   5.222 -0.0286 -1.3305 -2.5395
 3892SOL     OW22604   2.326   2.438   2.740 -0.1049  0.6755  0.4189
 3892SOL    HW122605   2.340   2.386   2.655 -0.7370  0.2382  0.5814
 3892SOL    HW222606   2.395   2.509   2.747  1.1944 -0.5851  0.5381
 3893SOL     OW22607   6.245   1.078   1.253  0.1426 -0.0029 -0.0734
 3893SOL    HW122608   6.157   1.099   1.209 -0.8323  1.3794  2.3996
 3893SOL    HW222609   6.306   1.156   1.243 -0.6263  0.9383  2.2463
 3894SOL     OW22610   1.423   5.190   2.485 -0.4455  0.0223 -0.3715
 3894SOL    HW122611   1.492   5.118   2.472 -0.9406  0.2082 -4.6640
 3894SOL    HW222612   1.376   5.175   2.572  1.6075 -2.9794  0.3196
 3895SOL     OW22613   8.829   7.080   0.365  0.0007  0.6375  0.0607
 3895SOL    HW122614   8.804   7.169   0.327 -1.1623 -0.0449 -0.8024
 3895SOL    HW222615   8.902   7.039   0.311 -0.9151  0.1452 -0.8268
 3896SOL     OW22616   7.721   7.064   4.799 -0.2614 -0.4410 -0.7356
 3896SOL    HW122617   7.778   7.088   4.877 -0.9491 -1.6260  0.1390
 3896SOL    HW222618   7.631   7.107   4.808  0.2235  0.8174 -1.7417
 3897SOL     OW22619   9.658   7.251   3.758  0.0927  0.4181  0.2926
 3897SOL    HW122620   9.692   7.159   3.740  0.2551  0.5119  0.1154
 3897SOL    HW222621   9.676   7.276   3.853 -0.3630  0.0917  0.4684
 3898SOL     OW22622   6.333   9.367   4.844 -0.2412 -0.2892 -0.3225
 3898SOL    HW122623   6.327   9.297   4.773 -0.6854  0.7771 -1.3454
 3898SOL    HW222624   6.360   9.324   4.930 -2.4595 -2.0652 -0.4479
 3899SOL     OW22625   0.061   1.087   4.612  0.1503 -0.0279 -0.0371
 3899SOL    HW122626   0.111   1.038   4.683  0.4519  0.2535 -0.0572
 3899SOL    HW222627   0.125   1.134   4.551 -0.0249 -1.4285 -1.3545
 3900SOL     OW22628   0.495   3.792   4.029 -0.4053  0.2485  0.1498
 3900SOL    HW122629   0.429   3.843   3.975 -0.9728  0.0576  0.6580
 3900SOL    HW222630   0.471   3.799   4.126  0.9851  1.1745  0.4481
 3901SOL     OW22631   7.576   9.174   5.641 -0.4513 -0.0728 -0.7901
 3901SOL    HW122632   7.517   9.120   5.701 -1.9964  0.5545 -1.6981
 3901SOL    HW222633   7.588   9.266   5.679 -0.0224 -0.2229 -0.5696
 3902SOL     OW22634   9.109   9.217   0.350  0.3204  0.2468 -0.2676
 3902SOL    HW122635   9.020   9.197   0.390  1.8157  0.0934  3.0961
 3902SOL    HW222636   9.116   9.315   0.330 -0.4406  0.3218 -0.1697
 3903SOL     OW22637   3.337   6.975   5.415  0.1034 -0.1258 -0.2950
 3903SOL    HW122638   3.339   7.057   5.358  2.3944  0.2808  0.3421
 3903SOL    HW222639   3.312   6.896   5.359  1.4056  0.4223 -1.6644
 3904SOL     OW22640   8.053   6.586   4.873 -0.5918  0.2566 -0.1056
 3904SOL    HW122641   8.058   6.505   4.931 -0.5956  1.5409  1.7143
 3904SOL    HW222642   8.102   6.661   4.916  1.5917  0.5589 -2.9671
 3905SOL     OW22643   8.408   1.213   6.171  0.0150  0.2270  0.1419
 3905SOL    HW122644   8.382   1.285   6.107  0.1187 -1.3719 -1.7509
 3905SOL    HW222645   8.493   1.170   6.140 -0.0685 -0.7388  1.2155
 3906SOL     OW22646   5.449   1.496   1.467 -0.0742  0.5782 -0.1419
 3906SOL    HW122647   5.509   1.417   1.460 -0.0115  0.7283 -1.4116
 3906SOL    HW222648   5.501   1.579   1.447 -0.3176  0.8767  0.4411
 3907SOL     OW22649   7.939   9.380   1.285  0.0529  0.3574  0.7211
 3907SOL    HW122650   7.891   9.464   1.260  0.7912  0.6626  0.3062
 3907SOL    HW222651   7.885   9.301   1.258  0.1366  0.6950 -0.4500
 3908SOL     OW22652   8.537   5.522   5.893  0.1685 -0.0049 -0.2022
 3908SOL    HW122653   8.480   5.488   5.818  0.1020  1.1510 -0.6866
 3908SOL    HW222654   8.527   5.463   5.972 -2.5774  0.8117  0.0927
 3909SOL     OW22655   1.080   7.655   0.940 -0.3300 -0.1992 -0.5053
 3909SOL    HW122656   1.165   7.602   0.942 -1.3442 -1.8565 -0.2164
 3909SOL    HW222657   1.070   7.703   1.026  0.6358  0.5323 -0.7895
 3910SOL     OW22658   1.807   4.581   2.673  0.5873 -0.4000 -0.1842
 3910SOL    HW122659   1.894   4.533   2.671 -0.0544 -1.5719 -0.8650
 3910SOL    HW222660   1.735   4.520   2.640 -0.5957  0.3197  1.0228
 3911SOL     OW22661   9.156   2.061   1.079 -0.4932  0.3440  0.0885
 3911SOL    HW122662   9.106   2.025   1.158  1.1387  0.3741  1.1588
 3911SOL    HW222663   9.250   2.081   1.106  0.1077  0.2570 -1.9038
 3912SOL     OW22664   1.865   5.392   4.092 -0.3440  0.0128 -0.2021
 3912SOL    HW122665   1.768   5.409   4.110 -0.6692 -1.1994 -0.8506
 3912SOL    HW222666   1.917   5.474   4.116 -1.4701  0.5087  0.5927
 3913SOL     OW22667   1.649   3.558   1.453 -0.6230  0.3862  0.0168
 3913SOL    HW122668   1.610   3.478   1.409 -1.0325  1.0463 -0.8168
 3913SOL    HW222669   1.749   3.553   1.448 -0.6324 -0.3290  0.4346
 3914SOL     OW22670   3.479   3.149   4.118 -0.5965 -0.3444  0.1525
 3914SOL    HW122671   3.409   3.104   4.174 -0.2410 -0.4196  0.5392
 3914SOL    HW222672   3.557   3.088   4.107 -0.9282 -0.5742 -0.9655
 3915SOL     OW22673   1.811   2.629   1.421 -0.1381 -0.0723 -0.2129
 3915SOL    HW122674   1.737   2.570   1.454 -1.7787  1.2717 -1.3918
 3915SOL    HW222675   1.811   2.714   1.472  0.0221  0.2917 -0.8127
 3916SOL     OW22676   5.544   2.287   2.794  0.6309  0.7774 -0.4519
 3916SOL    HW122677   5.602   2.222   2.844 -0.9135  0.8992  1.5331
 3916SOL    HW222678   5.565   2.380   2.822  1.0369  0.9881 -1.4147
 3917SOL     OW22679   2.926   5.283   5.654  0.5500  0.3885 -0.4673
 3917SOL    HW122680   2.979   5.353   5.703  0.5937  0.3053 -0.3966
 3917SOL    HW222681   2.917   5.202   5.711  1.9752 -0.3205 -1.2384
 3918SOL     OW22682   5.025   0.197   1.731  0.3823  0.3534  0.4263
 3918SOL    HW122683   4.958   0.204   1.805 -2.3478  1.7302 -2.0749
 3918SOL    HW222684   5.010   0.113   1.680  1.3618  0.0802  0.5805
 3919SOL     OW22685   5.970   1.305   1.453  0.1621 -0.5351  0.0865
 3919SOL    HW122686   5.995   1.279   1.546  1.0697  0.3580  0.1026
 3919SOL    HW222687   5.935   1.225   1.404  1.5497 -1.4512  0.5703
 3920SOL     OW22688   6.015   0.292   2.311 -0.6663 -0.5817  0.0729
 3920SOL    HW122689   6.048   0.197   2.315 -0.7842 -0.6837 -1.3329
 3920SOL    HW222690   5.919   0.293   2.286 -0.0216  0.0099 -2.4688
 3921SOL     OW22691   9.352   4.890   1.190  0.2759 -0.9038 -0.2683
 3921SOL    HW122692   9.299   4.893   1.275  0.4051  1.6666 -0.2269
 3921SOL    HW222693   9.304   4.834   1.123 -2.0565  0.5933  0.0827
 3922SOL     OW22694   1.120   6.066   5.305  0.0742  0.4545  0.4000
 3922SOL    HW122695   1.050   6.136   5.290  1.1406  1.1295 -1.5458
 3922SOL    HW222696   1.202   6.107   5.343  0.2596  0.0485  0.4471
 3923SOL     OW22697   4.656   0.887   4.390  0.1868  0.2893 -0.0361
 3923SOL    HW122698   4.620   0.914   4.479  0.7382  0.2630  0.1953
 3923SOL    HW222699   4.706   0.800   4.398 -2.8484 -1.6175 -1.0513
 3924SOL     OW22700   7.049   8.122   3.838  0.1092  0.4135  0.1203
 3924SOL    HW122701   7.065   8.203   3.895 -1.6571  0.2872  0.8213
 3924SOL    HW222702   7.045   8.041   3.896 -1.9061  0.3082 -0.1546
 3925SOL     OW22703   6.466   1.264   1.260  0.0879  0.0748  0.1667
 3925SOL    HW122704   6.491   1.358   1.236  1.2172 -0.3327 -0.3122
 3925SOL    HW222705   6.548   1.207   1.255 -0.2281 -0.5756  2.2507
 3926SOL     OW22706   0.741   8.049   1.366 -0.5019 -0.2905  0.1670
 3926SOL    HW122707   0.673   8.049   1.293  1.2948 -2.4615 -1.5605
 3926SOL    HW222708   0.755   7.956   1.399  1.2755  0.1981  0.8427
 3927SOL     OW22709   0.646   7.039   2.708  0.2427 -0.7427  0.5641
 3927SOL    HW122710   0.735   7.036   2.753 -0.2038  0.3013  1.5611
 3927SOL    HW222711   0.615   7.134   2.702  0.0104 -0.9288 -1.4382
 3928SOL     OW22712   2.985   1.404   3.668 -0.1871 -0.3304  0.1924
 3928SOL    HW122713   3.025   1.314   3.682  2.9498  0.9790  0.1820
 3928SOL    HW222714   2.925   1.426   3.745  0.6384 -1.5976  1.2235
 3929SOL     OW22715   9.015   3.429   5.520 -0.4380  0.1947  0.0732
 3929SOL    HW122716   9.085   3.453   5.453 -1.2967 -0.3654 -1.0517
 3929SOL    HW222717   8.973   3.342   5.495 -2.5296  1.2118 -0.1114
 3930SOL     OW22718   9.867   0.570   5.005 -0.2931 -0.1778 -0.0897
 3930SOL    HW122719   9.791   0.590   5.067 -1.3142  2.0202 -1.9570
 3930SOL    HW222720   9.831   0.538   4.917  0.8722  1.2422 -1.1174
 3931SOL     OW22721   7.619   1.795   3.479  0.1125  0.1194 -0.0828
 3931SOL    HW122722   7.592   1.710   3.526 -0.3395  0.1842 -0.2191
 3931SOL    HW222723   7.659   1.858   3.546 -2.0777  0.8725  0.5617
 3932SOL     OW22724   3.680   0.752   4.252  0.0614 -0.4030 -0.7405
 3932SOL    HW122725   3.725   0.830   4.296  1.1513 -0.2947 -2.0037
 3932SOL    HW222726   3.716   0.667   4.291  0.0115 -0.2991 -0.4635
 3933SOL     OW22727   3.718   1.435   3.100  0.0876  0.5258 -0.3454
 3933SOL    HW122728   3.623   1.432   3.069 -0.3608 -3.7447  1.0886
 3933SOL    HW222729   3.763   1.348   3.080  3.7383  2.4397 -0.9624
 3934SOL     OW22730   8.653   5.445   3.085 -0.4502  0.4545 -0.0872
 3934SOL    HW122731   8.742   5.479   3.116 -0.8725  0.5927  0.9694
 3934SOL    HW222732   8.580   5.491   3.134 -1.1014 -0.0771 -0.5415
 3935SOL     OW22733   6.891   2.174   2.427 -0.6678  0.2931 -0.3695
 3935SOL    HW122734   6.964   2.106   2.421 -1.6271 -0.8465  0.5803
 3935SOL    HW222735   6.803   2.129   2.415 -1.3175  1.3512  0.3798
 3936SOL     OW22736   6.572   9.245   3.881  0.1955 -0.5545  0.3384
 3936SOL    HW122737   6.667   9.270   3.864  0.0506 -0.2619 -0.0370
 3936SOL    HW222738   6.535   9.301   3.955 -0.8808  2.0801 -2.1367
 3937SOL     OW22739   4.082   6.662   0.807 -0.2483 -0.0517 -0.4281
 3937SOL    HW122740   4.100   6.757   0.831 -1.4837 -0.0675  0.6403
 3937SOL    HW222741   4.169   6.612   0.800  0.3093  0.7023  0.9487
 3938SOL     OW22742   8.018   2.765   0.694  0.2098  0.1104 -0.0786
 3938SOL    HW122743   7.997   2.712   0.776  0.6029 -2.3897 -1.5349
 3938SOL    HW222744   8.037   2.859   0.720 -1.7433 -0.1320  2.4623
 3939SOL     OW22745   1.660   5.425   5.844  0.4440  0.3131  0.2441
 3939SOL    HW122746   1.757   5.441   5.830  0.5294  0.8002  1.3538
 3939SOL    HW222747   1.609   5.509   5.826  0.1489 -0.1430 -1.0704
 3940SOL     OW22748   9.964   1.742   1.040 -0.5267  0.3650 -0.1864
 3940SOL    HW122749  10.041   1.806   1.038  0.0853 -0.3817 -1.4432
 3940SOL    HW222750   9.998   1.649   1.053 -1.4855  0.3662  2.5640
 3941SOL     OW22751   1.933   6.397   5.052 -0.0182 -0.0700 -0.2673
 3941SOL    HW122752   1.951   6.309   5.097  1.0588 -0.0414 -0.6304
 3941SOL    HW222753   1.849   6.390   4.999  0.8020 -1.3387 -1.4450
 3942SOL     OW22754   8.509   6.233   2.142 -0.1812  0.3591  0.1870
 3942SOL    HW122755   8.538   6.329   2.146 -0.8469  0.6086 -0.9032
 3942SOL    HW222756   8.572   6.181   2.085  0.0843  0.1758  0.6421
 3943SOL     OW22757   2.793   2.838   3.739 -0.5056  0.4211 -0.4080
 3943SOL    HW122758   2.754   2.929   3.753  0.1349  0.5619  0.5211
 3943SOL    HW222759   2.873   2.827   3.798 -0.7418 -0.8508 -0.3160
 3944SOL     OW22760   2.908   9.861   4.558 -0.5165  0.3221  0.1141
 3944SOL    HW122761   2.912   9.774   4.508 -1.2151  1.0066 -1.1760
 3944SOL    HW222762   2.861   9.848   4.645  1.8455 -1.1788  1.2255
 3945SOL     OW22763   1.946   2.126   4.559 -0.4292 -0.0018  0.5116
 3945SOL    HW122764   2.040   2.157   4.577 -1.1528  2.8318 -0.3452
 3945SOL    HW222765   1.947   2.060   4.483  1.0383 -1.2974  1.6282
 3946SOL     OW22766   1.168   6.265   4.092 -0.0905 -0.2642 -0.4537
 3946SOL    HW122767   1.112   6.204   4.148 -0.1131  1.1893  1.1151
 3946SOL    HW222768   1.211   6.334   4.149 -0.9666  1.9084 -2.3519
 3947SOL     OW22769   7.416   6.478   4.122 -0.3010 -0.2197  0.3004
 3947SOL    HW122770   7.317   6.479   4.136 -0.4169 -0.0688 -0.5457
 3947SOL    HW222771   7.437   6.453   4.027  0.5033 -1.5859  0.8152
 3948SOL     OW22772   2.110   6.100   4.378 -0.1907  0.0506  0.0914
 3948SOL    HW122773   2.076   6.099   4.284 -1.8004 -1.6110  0.6737
 3948SOL    HW222774   2.033   6.098   4.442  0.8781  1.4213  1.4643
 3949SOL     OW22775   0.619   4.738   5.977 -0.2072 -0.4305 -0.2257
 3949SOL    HW122776   0.592   4.795   6.055 -0.3335 -0.8253  0.0214
 3949SOL    HW222777   0.632   4.796   5.896  0.4030  0.0471  0.2057
 3950SOL     OW22778   0.061   6.206   3.640  0.4594  0.0006 -0.1445
 3950SOL    HW122779   0.140   6.198   3.580  1.1943 -0.7454  0.8826
 3950SOL    HW222780  -0.014   6.152   3.603 -0.0107  1.7602 -1.7989
 3951SOL     OW22781   2.087   5.016   5.750 -0.0592  0.0785 -0.1057
 3951SOL    HW122782   2.120   5.111   5.754 -0.1081  0.1560 -1.3228
 3951SOL    HW222783   1.997   5.010   5.792 -0.2454  0.6619 -0.4123
 3952SOL     OW22784   2.825   3.031   1.432  0.2992 -0.7868 -0.0584
 3952SOL    HW122785   2.846   2.951   1.488  0.3305 -1.1553 -0.5907
 3952SOL    HW222786   2.788   3.104   1.490 -1.5223 -1.8634  0.1434
 3953SOL     OW22787   4.983   7.067   3.311 -0.1057  0.6553  0.4636
 3953SOL    HW122788   4.887   7.043   3.297  0.5682 -2.0295  0.2624
 3953SOL    HW222789   4.994   7.109   3.401 -1.5922  1.8481  0.1152
 3954SOL     OW22790   0.989   7.634   4.653 -0.8266  0.1568  0.1422
 3954SOL    HW122791   0.919   7.690   4.609 -2.0505 -0.7156  0.9508
 3954SOL    HW222792   0.950   7.589   4.733  0.4376 -0.9891  0.1282
 3955SOL     OW22793   2.733   9.134   3.379  0.6812  0.1333  0.8607
 3955SOL    HW122794   2.708   9.179   3.465 -1.6398  1.9207 -0.6571
 3955SOL    HW222795   2.719   9.198   3.303  0.7550 -2.0340 -1.0375
 3956SOL     OW22796   3.459   7.556   2.828 -0.2107  0.0424 -0.0189
 3956SOL    HW122797   3.374   7.593   2.865  0.4216 -0.4006  1.9577
 3956SOL    HW222798   3.446   7.459   2.807  0.1165 -0.3270  1.4065
 3957SOL     OW22799   3.141   9.821   4.180 -0.1010 -0.3417  0.1930
 3957SOL    HW122800   3.218   9.760   4.200 -0.6747 -1.2119 -0.1840
 3957SOL    HW222801   3.137   9.894   4.247  0.4769 -0.8488  0.7843
 3958SOL     OW22802   5.311   3.397   4.648 -0.4336  0.2835  0.1144
 3958SOL    HW122803   5.217   3.419   4.623 -0.8337 -0.6862  0.7555
 3958SOL    HW222804   5.321   3.298   4.657  0.6009  0.3961  0.2329
 3959SOL     OW22805   7.793   4.531   1.641 -0.8617  0.1631 -0.3295
 3959SOL    HW122806   7.851   4.472   1.697  0.7453  1.4731 -0.5832
 3959SOL    HW222807   7.708   4.482   1.618  0.5475 -2.1728 -0.7720
 3960SOL     OW22808   0.151   4.834   5.150 -0.9475 -0.6298  0.0062
 3960SOL    HW122809   0.161   4.933   5.141 -0.7396 -0.7631 -1.3646
 3960SOL    HW222810   0.170   4.791   5.062 -0.2239 -1.9523  0.7907
 3961SOL     OW22811   3.196   7.163   4.389 -0.2762 -0.2286 -0.1599
 3961SOL    HW122812   3.189   7.203   4.298  1.4526 -0.5516 -0.4529
 3961SOL    HW222813   3.247   7.077   4.384  0.7292  0.2626  1.2409
 3962SOL     OW22814   4.446   6.940   4.289  0.0987 -0.1678  0.0447
 3962SOL    HW122815   4.375   6.880   4.250  0.5658 -1.4530  1.0958
 3962SOL    HW222816   4.409   7.032   4.301 -1.6057 -0.9614  1.0943
 3963SOL     OW22817   1.947   0.447   4.154  0.4024  0.4184  0.1355
 3963SOL    HW122818   1.848   0.443   4.140  0.3341 -0.2022  0.7525
 3963SOL    HW222819   1.967   0.511   4.228  0.5466  1.4029 -0.7467
 3964SOL     OW22820   9.057   3.048   2.174 -0.6380 -0.1395  0.0028
 3964SOL    HW122821   9.009   3.030   2.260 -0.7720  2.3602  0.4929
 3964SOL    HW222822   9.155   3.030   2.187 -0.4467  1.5735  1.1345
 3965SOL     OW22823   1.322   6.651   2.306  0.1846 -0.0684 -0.4812
 3965SOL    HW122824   1.417   6.678   2.291  0.5277 -0.0980  1.4327
 3965SOL    HW222825   1.273   6.728   2.347 -0.1043 -0.7096  0.3768
 3966SOL     OW22826   5.104   9.857   3.983 -0.3973 -0.0991 -0.0871
 3966SOL    HW122827   5.103   9.757   3.992 -2.2713 -0.2953 -2.0201
 3966SOL    HW222828   5.062   9.898   4.064 -1.4151 -1.0017 -0.1429
 3967SOL     OW22829   0.975   3.880   6.671  0.0192  0.3289  0.6256
 3967SOL    HW122830   0.975   3.791   6.626  2.1599  0.4836  0.2291
 3967SOL    HW222831   0.908   3.940   6.627 -1.5525 -1.1145  1.0016
 3968SOL     OW22832   3.835   2.664   2.893 -0.4240  0.6715 -0.5120
 3968SOL    HW122833   3.875   2.755   2.895  1.5891 -0.2296  1.0699
 3968SOL    HW222834   3.841   2.628   2.800  0.7173  1.2985 -0.6938
 3969SOL     OW22835   2.321   6.906   2.970 -0.2093  0.0099 -0.0420
 3969SOL    HW122836   2.318   6.836   2.898  0.5392 -1.4287  1.2731
 3969SOL    HW222837   2.250   6.888   3.038  0.6565 -0.1241  0.8569
 3970SOL     OW22838   2.942   7.394   5.346  0.0113  0.1296  0.4755
 3970SOL    HW122839   2.943   7.378   5.444  0.6533  1.7683  0.7597
 3970SOL    HW222840   3.035   7.385   5.310 -0.6610 -3.4547 -0.5290
 3971SOL     OW22841   2.182   7.744   4.417  1.0353 -0.7132 -0.3068
 3971SOL    HW122842   2.238   7.728   4.336 -1.7495  0.3422 -2.5481
 3971SOL    HW222843   2.092   7.779   4.388  0.4457  0.9608  3.3245
 3972SOL     OW22844   0.893   2.767   3.692 -0.2325 -0.3068 -0.1339
 3972SOL    HW122845   0.809   2.805   3.654 -0.7003 -0.1435  1.0226
 3972SOL    HW222846   0.971   2.793   3.635 -0.9865 -0.6002 -1.3055
 3973SOL     OW22847   3.245   5.183   4.236 -0.0284  0.1644  0.8850
 3973SOL    HW122848   3.295   5.194   4.323 -0.4215  1.5298  0.9413
 3973SOL    HW222849   3.170   5.248   4.233  0.2034  0.3654 -0.6456
 3974SOL     OW22850   6.355   4.007   0.539 -0.2003  0.2368  0.5837
 3974SOL    HW122851   6.392   3.981   0.628 -2.4520  2.8169  2.3470
 3974SOL    HW222852   6.280   4.072   0.552  0.9396  2.4707 -3.3150
 3975SOL     OW22853   7.622   9.532   4.978 -0.1846 -0.1738  0.0277
 3975SOL    HW122854   7.556   9.593   5.021 -0.1518  0.7746 -1.2026
 3975SOL    HW222855   7.714   9.558   5.006 -0.2602 -0.6585  0.7236
 3976SOL     OW22856   7.792   9.314   5.217 -0.0902  0.5278 -0.2430
 3976SOL    HW122857   7.830   9.264   5.294 -0.5376  1.4873  0.6039
 3976SOL    HW222858   7.759   9.404   5.247  0.9313  1.4549 -1.7720
 3977SOL     OW22859   0.149   0.355   1.221  0.2027 -0.2802 -0.0167
 3977SOL    HW122860   0.076   0.409   1.178 -0.2089 -0.7629  0.0725
 3977SOL    HW222861   0.173   0.278   1.163 -0.3898 -0.9626  0.6173
 3978SOL     OW22862   5.347   8.365   3.992 -0.4308  0.0204  0.2810
 3978SOL    HW122863   5.247   8.368   3.984 -0.4292  0.2436  0.3497
 3978SOL    HW222864   5.387   8.407   3.910 -0.3682 -2.0972 -0.8152
 3979SOL     OW22865   8.555   3.885   3.596  0.1889 -0.7365  0.1890
 3979SOL    HW122866   8.640   3.890   3.544 -0.0872 -0.9783 -0.2916
 3979SOL    HW222867   8.540   3.790   3.626 -0.0882 -0.7642 -0.0321
 3980SOL     OW22868   0.329   0.640   3.064  0.6423  0.1777 -0.0179
 3980SOL    HW122869   0.410   0.684   3.025 -0.2852  0.8379 -1.2494
 3980SOL    HW222870   0.338   0.635   3.163  0.1633  4.4645  0.3173
 3981SOL     OW22871   7.861   2.880   1.508 -0.4492 -0.5219  0.0082
 3981SOL    HW122872   7.878   2.781   1.509  0.4950 -0.3657  0.6384
 3981SOL    HW222873   7.893   2.919   1.422  0.7220 -0.5135  0.4437
 3982SOL     OW22874   2.600   7.634   2.187  0.2484  0.1908 -0.2977
 3982SOL    HW122875   2.555   7.723   2.180  0.1815  0.3168  1.6206
 3982SOL    HW222876   2.531   7.562   2.188  0.3045  0.0777 -1.9116
 3983SOL     OW22877   2.355   6.768   0.017  0.1737  0.5189 -0.6887
 3983SOL    HW122878   2.440   6.746  -0.030 -1.9330 -2.0765 -3.4599
 3983SOL    HW222879   2.359   6.733   0.111  1.0508 -2.4063 -1.7519
 3984SOL     OW22880   1.077   7.412   4.450 -0.0192 -0.8393  0.0487
 3984SOL    HW122881   1.032   7.483   4.504 -1.5304 -3.2609  2.1522
 3984SOL    HW222882   1.007   7.350   4.414  1.1211 -0.2365 -3.3369
 3985SOL     OW22883   6.277   0.923   0.673 -0.9037  0.0798  0.2341
 3985SOL    HW122884   6.311   0.942   0.765  0.5344  1.8878 -0.6349
 3985SOL    HW222885   6.325   0.843   0.636 -1.7037 -0.8394  1.1494
 3986SOL     OW22886   0.693   4.802   5.120 -0.0361 -0.4688  0.2517
 3986SOL    HW122887   0.728   4.735   5.055  0.5506  0.1105 -0.0316
 3986SOL    HW222888   0.605   4.770   5.156 -0.6682 -0.4976 -1.2733
 3987SOL     OW22889   9.929   0.730   3.627 -0.0715  0.0120 -0.4878
 3987SOL    HW122890   9.918   0.770   3.718  0.2232  0.8976 -0.8395
 3987SOL    HW222891   9.991   0.651   3.633  0.3073  0.3403  0.0056
 3988SOL     OW22892   9.892   1.510   1.375  0.7847  0.1782 -0.5859
 3988SOL    HW122893   9.881   1.412   1.363  1.0194  0.1973 -0.9649
 3988SOL    HW222894   9.986   1.530   1.403  0.6877  0.2796 -0.3215
 3989SOL     OW22895   4.374   8.165   3.677 -0.7679  0.4665 -0.1603
 3989SOL    HW122896   4.407   8.259   3.685 -0.0151  0.1209  0.8594
 3989SOL    HW222897   4.342   8.132   3.766 -0.6745 -0.3778 -0.4291
 3990SOL     OW22898   7.953   0.349   5.869  0.1697  0.1614  0.2053
 3990SOL    HW122899   7.962   0.251   5.886 -0.9117  0.0494  0.1903
 3990SOL    HW222900   7.981   0.369   5.775  1.9669  0.1252  0.7226
 3991SOL     OW22901   1.845   5.884   4.356 -0.1995  0.1266  0.0762
 3991SOL    HW122902   1.850   5.960   4.420  2.4405 -0.3795  0.5202
 3991SOL    HW222903   1.834   5.919   4.263  1.4761  1.0940  0.2280
 3992SOL     OW22904   7.583   7.694   4.338 -0.1023  0.0116  0.3159
 3992SOL    HW122905   7.615   7.743   4.418  2.3089 -1.0940  0.0666
 3992SOL    HW222906   7.497   7.735   4.306  0.2475  2.0781  1.9067
 3993SOL     OW22907   5.050   0.023   0.936  1.3594  0.0224 -0.1026
 3993SOL    HW122908   5.054  -0.001   0.839  0.3717 -2.2648  0.3790
 3993SOL    HW222909   5.013   0.115   0.947 -0.6399 -0.5573 -1.8025
 3994SOL     OW22910   3.586   6.864   3.691 -0.2991 -0.1892 -0.2789
 3994SOL    HW122911   3.643   6.930   3.642 -2.7868  1.3849 -1.1297
 3994SOL    HW222912   3.572   6.783   3.633  1.0409 -0.5837 -0.0651
 3995SOL     OW22913   7.126   7.226   3.684  0.0025  0.7534 -0.3777
 3995SOL    HW122914   7.142   7.252   3.780 -3.1997 -0.4592  0.5315
 3995SOL    HW222915   7.050   7.279   3.648  0.6945  0.6342 -2.0449
 3996SOL     OW22916   3.829   6.712   1.654 -0.0371 -0.1610  0.4024
 3996SOL    HW122917   3.823   6.768   1.736  0.6083 -0.3440  0.5742
 3996SOL    HW222918   3.904   6.646   1.663  0.2437  0.0300 -0.4595
 3997SOL     OW22919   0.352   6.355   1.715 -0.6597 -0.5422 -0.2673
 3997SOL    HW122920   0.337   6.269   1.765 -0.2057 -0.7667 -0.5110
 3997SOL    HW222921   0.390   6.334   1.625  1.8117  0.0269  0.6013
 3998SOL     OW22922   9.983   6.212   1.734  0.0695  0.0473  0.1994
 3998SOL    HW122923   9.933   6.176   1.813  1.3563 -0.2235  0.9099
 3998SOL    HW222924  10.036   6.292   1.762  0.4501  0.0142 -0.4137
 3999SOL     OW22925   7.892   8.746   1.986  0.3417  0.2807  0.4040
 3999SOL    HW122926   7.911   8.726   2.082  2.4908  0.5377  0.0483
 3999SOL    HW222927   7.977   8.766   1.938 -0.7555  0.6318 -1.4625
 4000SOL     OW22928   0.038   5.108   3.527 -0.5550  0.6618 -0.5315
 4000SOL    HW122929   0.019   5.031   3.466  0.7650 -0.5496  0.5657
 4000SOL    HW222930  -0.002   5.089   3.617  0.1668  1.0452 -0.1278
 4001SOL     OW22931   7.561   8.616   4.655 -0.3415 -0.3359 -0.5484
 4001SOL    HW122932   7.615   8.656   4.581 -0.5295  1.1873  0.1207
 4001SOL    HW222933   7.622   8.567   4.718  0.5739  2.8055  1.1401
 4002SOL     OW22934   9.536   1.786   3.562 -0.0857  0.5565 -0.3932
 4002SOL    HW122935   9.506   1.865   3.616 -1.0632  0.2936 -0.5358
 4002SOL    HW222936   9.510   1.701   3.610  0.1067  0.3248 -0.7005
 4003SOL     OW22937   8.014   9.489   5.876 -0.4805 -0.3064  0.3825
 4003SOL    HW122938   8.111   9.473   5.859 -0.6110 -1.1124  0.3734
 4003SOL    HW222939   7.973   9.538   5.799  0.1617  1.0115  0.8695
 4004SOL     OW22940   6.912   1.460   3.158 -0.6210 -0.1239  0.7297
 4004SOL    HW122941   6.825   1.498   3.128 -0.2961  0.5947  0.6770
 4004SOL    HW222942   6.973   1.451   3.079 -1.1334 -1.9876  0.5131
 4005SOL     OW22943   4.935   1.361   3.554 -0.7430 -0.1245 -0.0722
 4005SOL    HW122944   4.947   1.432   3.623  0.6970 -0.3347 -0.1016
 4005SOL    HW222945   4.924   1.403   3.464 -0.3430  0.0730 -0.0276
 4006SOL     OW22946   9.730   0.266   3.920  0.1932 -0.4096 -0.0447
 4006SOL    HW122947   9.733   0.326   4.000 -0.0707 -0.0806 -0.2796
 4006SOL    HW222948   9.686   0.180   3.944  2.4098 -1.3306  0.8403
 4007SOL     OW22949   3.121   0.439   2.042 -0.1430  0.5662 -0.0137
 4007SOL    HW122950   3.179   0.520   2.038 -0.3728  0.7469  0.3544
 4007SOL    HW222951   3.175   0.358   2.018  0.0581  0.8384 -0.4952
 4008SOL     OW22952   1.660   6.562   2.181 -0.0112  0.1592  0.9343
 4008SOL    HW122953   1.617   6.644   2.219 -2.2860 -1.1585  1.3471
 4008SOL    HW222954   1.616   6.539   2.095  1.5714  0.1576  0.1197
 4009SOL     OW22955   8.467   6.175   3.157 -0.3699  0.1628  0.0775
 4009SOL    HW122956   8.510   6.115   3.224  1.6338  2.4655  0.9384
 4009SOL    HW222957   8.390   6.223   3.200 -1.0517 -0.6807 -0.1897
 4010SOL     OW22958   3.346   8.104   5.271  0.2820  0.0864  0.0581
 4010SOL    HW122959   3.293   8.131   5.352  0.6592 -1.5588  0.8839
 4010SOL    HW222960   3.386   8.014   5.287 -0.5556 -0.7539 -2.4303
 4011SOL     OW22961   2.393   1.557   3.447  0.3006 -0.2152 -0.1298
 4011SOL    HW122962   2.342   1.623   3.502  0.5665 -0.2798  0.1988
 4011SOL    HW222963   2.347   1.469   3.450 -0.4669  0.1414 -1.1867
 4012SOL     OW22964   1.207   5.664   0.326 -1.0627 -0.4667 -0.0819
 4012SOL    HW122965   1.163   5.631   0.242 -2.2298  1.1964 -0.1468
 4012SOL    HW222966   1.243   5.756   0.310 -2.5566  0.4578  1.6315
 4013SOL     OW22967   1.517   8.732   0.794 -0.2790  0.5197 -0.5513
 4013SOL    HW122968   1.583   8.663   0.822 -0.2999  0.3588 -0.8956
 4013SOL    HW222969   1.479   8.776   0.875  1.9070  2.2018 -0.4099
 4014SOL     OW22970   1.682   9.547   3.669 -0.7994  0.5903 -0.3283
 4014SOL    HW122971   1.672   9.627   3.609 -3.0902  0.4780 -0.1472
 4014SOL    HW222972   1.704   9.467   3.613  0.1659  1.0753 -0.6582
 4015SOL     OW22973   4.407   3.536   0.303  0.3151 -0.5693 -0.2289
 4015SOL    HW122974   4.449   3.446   0.290 -1.7677 -1.1265 -3.5493
 4015SOL    HW222975   4.452   3.603   0.244 -0.0446 -0.0509  0.0811
 4016SOL     OW22976   5.382   8.046   4.355  0.4895  0.0082 -0.1420
 4016SOL    HW122977   5.366   7.956   4.313  1.4108 -0.7598  1.1324
 4016SOL    HW222978   5.376   8.116   4.284 -0.2515 -1.0456 -1.1554
 4017SOL     OW22979   5.588   0.131   4.686 -0.4341 -0.2563  0.3381
 4017SOL    HW122980   5.648   0.172   4.755 -0.0673 -3.1397  1.8042
 4017SOL    HW222981   5.514   0.082   4.732 -2.3473  0.8852 -1.4293
 4018SOL     OW22982   5.996   1.096   1.141  0.4657 -0.1429 -0.3131
 4018SOL    HW122983   5.978   1.009   1.095  0.7015  0.1516 -0.9655
 4018SOL    HW222984   5.934   1.106   1.219 -0.8654 -0.0284 -1.3760
 4019SOL     OW22985   9.939   4.506   6.295  0.0216  0.4012  0.2712
 4019SOL    HW122986   9.872   4.555   6.352  1.2855 -1.5998  3.6563
 4019SOL    HW222987   9.911   4.411   6.285  0.6557  0.3498 -1.1526
 4020SOL     OW22988   6.132   9.864   1.968  0.3015  0.0270  1.3025
 4020SOL    HW122989   6.121   9.962   1.983  1.7332  0.1889  1.3818
 4020SOL    HW222990   6.229   9.840   1.972 -0.0786 -1.4941  1.8911
 4021SOL     OW22991   0.945   6.268   5.302 -0.0991  0.2162 -0.3911
 4021SOL    HW122992   0.845   6.280   5.301 -0.0097  0.9797 -0.3189
 4021SOL    HW222993   0.989   6.357   5.297  0.5868 -0.0975  0.0352
 4022SOL     OW22994   4.804   1.267   4.288 -0.0799 -0.8220 -0.9945
 4022SOL    HW122995   4.885   1.267   4.229  0.0112 -0.4624 -0.8673
 4022SOL    HW222996   4.826   1.221   4.374  0.9661  2.1922  0.3913
 4023SOL     OW22997   1.719   7.106   6.077  0.0619 -0.1990 -0.0491
 4023SOL    HW122998   1.726   7.108   5.977  0.8221 -0.2908 -0.0006
 4023SOL    HW222999   1.806   7.076   6.116 -0.2363 -0.1764  0.6436
 4024SOL     OW23000   1.502   6.819   5.374 -0.0791 -0.1209 -0.4023
 4024SOL    HW123001   1.535   6.731   5.340 -1.4689 -0.3366 -1.2222
 4024SOL    HW223002   1.550   6.894   5.327  0.8291 -0.4210  0.0243
 4025SOL     OW23003   5.400   0.864   4.677  0.4994  0.2765  0.2313
 4025SOL    HW123004   5.386   0.810   4.594  0.6908 -2.2018  1.7377
 4025SOL    HW223005   5.348   0.823   4.752  0.3895  2.4228  1.3506
 4026SOL     OW23006   0.459   1.756   2.240  0.3657  0.5997  0.3532
 4026SOL    HW123007   0.515   1.674   2.229 -0.8398 -0.4970  2.1165
 4026SOL    HW223008   0.379   1.734   2.296 -1.0770  2.4862 -0.9093
 4027SOL     OW23009   3.106   0.341   1.517  0.1944 -0.7458 -0.4205
 4027SOL    HW123010   3.034   0.315   1.453  0.0345 -1.1867 -0.0610
 4027SOL    HW223011   3.067   0.355   1.607  0.2585  0.8869 -0.6405
 4028SOL     OW23012   3.826   3.990   2.930  0.5913 -0.3867 -0.0155
 4028SOL    HW123013   3.864   4.026   2.844 -0.8213  0.4316 -0.3113
 4028SOL    HW223014   3.734   3.955   2.913  0.1751  0.1054  1.2545
 4029SOL     OW23015   0.151   7.991   4.719 -0.1522 -0.5888 -0.0570
 4029SOL    HW123016   0.054   7.968   4.725 -0.2593 -0.4418 -1.1110
 4029SOL    HW223017   0.171   8.028   4.628  0.4066  1.6515  0.9340
 4030SOL     OW23018   3.705   0.046   1.069  0.3811  0.5757 -0.0134
 4030SOL    HW123019   3.676  -0.040   1.110 -1.0496  1.0210 -0.0496
 4030SOL    HW223020   3.717   0.033   0.970  0.4169  0.3593  0.0189
 4031SOL     OW23021   6.926   9.242   4.610 -0.2793  0.5248  0.1861
 4031SOL    HW123022   6.969   9.301   4.542 -2.4604 -0.8158 -2.4818
 4031SOL    HW223023   6.840   9.283   4.640 -0.9716 -0.4549 -0.4162
 4032SOL     OW23024   7.081   0.155   4.847  0.4898 -0.4011  0.2191
 4032SOL    HW123025   6.993   0.202   4.842  1.0287  0.5656 -0.1761
 4032SOL    HW223026   7.071   0.062   4.810 -0.1998 -0.0439 -0.5084
 4033SOL     OW23027   0.873   3.923   3.586 -0.5582 -0.8645  0.0615
 4033SOL    HW123028   0.795   3.890   3.534 -0.3746 -0.0158 -0.7666
 4033SOL    HW223029   0.862   4.021   3.605  0.5427 -0.6037 -0.5480
 4034SOL     OW23030   0.974   5.589   5.582 -0.0338 -0.3895 -0.1452
 4034SOL    HW123031   0.885   5.601   5.536 -0.3862  0.3811  0.7141
 4034SOL    HW223032   1.046   5.582   5.513 -0.7378 -0.8428 -0.8512
 4035SOL     OW23033   1.304   3.607   3.141  0.4200  0.7963 -0.1585
 4035SOL    HW123034   1.322   3.659   3.224  0.3295 -0.7392  0.8322
 4035SOL    HW223035   1.342   3.656   3.062  0.4684  2.2766  0.7657
 4036SOL     OW23036   1.587   5.616   0.907 -0.0192  0.1748  0.1479
 4036SOL    HW123037   1.670   5.584   0.860 -0.5081 -0.5852 -0.1967
 4036SOL    HW223038   1.540   5.683   0.848  0.6232  1.0102  0.5688
 4037SOL     OW23039   1.530   7.517   5.922 -0.3579 -0.7801 -0.2193
 4037SOL    HW123040   1.564   7.611   5.929 -2.8236 -0.0230  2.8932
 4037SOL    HW223041   1.457   7.513   5.854 -0.9909 -0.1937  0.4191
 4038SOL     OW23042   9.347   1.112   4.097 -0.0689  0.1959  0.2207
 4038SOL    HW123043   9.332   1.209   4.112  0.6001  0.2157  0.7657
 4038SOL    HW223044   9.397   1.098   4.012 -0.7847  0.2840 -0.2196
 4039SOL     OW23045   1.415   7.191   5.408 -0.2642 -0.3983 -0.1575
 4039SOL    HW123046   1.420   7.120   5.338  0.7627  0.1121 -0.6030
 4039SOL    HW223047   1.324   7.233   5.407  0.2047  0.5618 -2.0935
 4040SOL     OW23048   2.748   9.454   3.471 -0.2412  0.6669  0.0609
 4040SOL    HW123049   2.751   9.528   3.539 -1.7556 -0.0694  0.9625
 4040SOL    HW223050   2.708   9.488   3.386  0.5323  1.2787 -0.0655
 4041SOL     OW23051   7.481   8.341   2.455  0.0965 -0.5007  0.2499
 4041SOL    HW123052   7.438   8.369   2.541  1.7279  1.8003  0.3769
 4041SOL    HW223053   7.524   8.252   2.467  0.7583  0.0225  2.0142
 4042SOL     OW23054   3.459   4.228   0.634  0.1977 -0.3560  0.2177
 4042SOL    HW123055   3.421   4.311   0.595 -0.3147 -0.4959  0.4122
 4042SOL    HW223056   3.495   4.170   0.561 -2.9004 -1.7042 -0.3206
 4043SOL     OW23057   0.836   4.187   3.645 -0.0652  0.5060 -0.2252
 4043SOL    HW123058   0.791   4.191   3.734 -2.3143  1.0268 -1.3383
 4043SOL    HW223059   0.771   4.213   3.573  0.8536 -2.6061 -2.3247
 4044SOL     OW23060   2.427   1.735   4.574  0.2268 -0.0897 -0.1276
 4044SOL    HW123061   2.449   1.767   4.666  0.4633 -0.1927 -0.1468
 4044SOL    HW223062   2.430   1.635   4.572  0.9536 -0.0681 -0.4248
 4045SOL     OW23063   5.827   4.879   0.865 -0.1173 -0.2457  0.0431
 4045SOL    HW123064   5.825   4.978   0.858 -0.5849 -0.2679 -0.1680
 4045SOL    HW223065   5.892   4.852   0.936 -0.2152  0.2231  0.3139
 4046SOL     OW23066   1.594   0.128   4.624  0.0439  0.2831  0.2611
 4046SOL    HW123067   1.652   0.118   4.543  0.0532 -1.1928  0.4481
 4046SOL    HW223068   1.523   0.195   4.605 -0.4564 -0.6639 -1.2689
 4047SOL     OW23069   1.745   6.697   6.201 -0.1529  0.2063  0.0152
 4047SOL    HW123070   1.824   6.752   6.230  0.6916 -1.1026  0.2146
 4047SOL    HW223071   1.734   6.619   6.262 -0.3933 -0.7305 -1.2084
 4048SOL     OW23072   4.132   3.692   1.278 -0.0325 -0.6350  0.3442
 4048SOL    HW123073   4.109   3.726   1.187 -1.9651 -0.2738  0.9493
 4048SOL    HW223074   4.162   3.769   1.335 -0.5199 -0.5738  0.5225
 4049SOL     OW23075   1.542   3.082   2.320 -0.2489 -0.7877  0.3155
 4049SOL    HW123076   1.620   3.076   2.257  0.3508  2.1068  0.7154
 4049SOL    HW223077   1.479   3.154   2.289 -0.7028 -0.3463  2.1795
 4050SOL     OW23078   9.321   5.139   5.312  0.3610 -0.3238  0.0574
 4050SOL    HW123079   9.309   5.123   5.214 -1.1417 -2.2849  0.5144
 4050SOL    HW223080   9.254   5.208   5.343  0.3118 -0.2774 -0.1519
 4051SOL     OW23081   8.984   1.006   0.998 -0.1619  0.2188 -0.1801
 4051SOL    HW123082   9.041   0.941   1.048  0.8528  1.2005 -0.0286
 4051SOL    HW223083   8.905   1.031   1.054  0.3445  0.4105  0.4589
 4052SOL     OW23084   0.124   6.953   0.674  0.6935 -0.8565 -0.1489
 4052SOL    HW123085   0.175   6.887   0.729  1.1027 -0.7910 -0.4446
 4052SOL    HW223086   0.115   6.919   0.581 -0.4507 -1.2041  0.0888
 4053SOL     OW23087   1.711   6.942   5.764  0.2496 -0.1639  0.1031
 4053SOL    HW123088   1.684   6.846   5.765 -1.5900  0.3250  0.2644
 4053SOL    HW223089   1.677   6.986   5.681  1.4083  0.2688 -0.1549
 4054SOL     OW23090   0.063   6.506   6.484 -0.0489  0.4700  0.1104
 4054SOL    HW123091   0.154   6.546   6.473  1.0192 -2.0834 -0.7040
 4054SOL    HW223092   0.068   6.430   6.549 -2.0449  1.5952  1.6446
 4055SOL     OW23093   1.960   3.879   4.287 -0.7960  0.3080 -0.2431
 4055SOL    HW123094   1.977   3.814   4.212 -2.2485 -1.1334  0.6470
 4055SOL    HW223095   2.016   3.960   4.273  0.8087 -0.9803 -1.5853
 4056SOL     OW23096   2.113   6.407   4.719  0.1206 -0.5031 -0.1545
 4056SOL    HW123097   2.130   6.319   4.762  1.1777 -0.3899 -0.3370
 4056SOL    HW223098   2.190   6.468   4.736  0.4452 -0.3714 -1.9852
 4057SOL     OW23099   4.298   3.209   0.174 -0.1510  0.3032  0.2198
 4057SOL    HW123100   4.382   3.216   0.228 -0.1446 -0.4793  0.3239
 4057SOL    HW223101   4.321   3.196   0.078 -0.0356 -4.6514  0.7956
 4058SOL     OW23102   9.321   9.112   2.746  0.3246  0.2518  0.3137
 4058SOL    HW123103   9.253   9.090   2.815  0.8023  0.4200  0.8451
 4058SOL    HW223104   9.354   9.205   2.760 -0.1529  0.5708 -0.6327
 4059SOL     OW23105   9.227   2.478   4.271 -0.1006 -0.9985 -0.4970
 4059SOL    HW123106   9.192   2.519   4.355  2.4333 -0.3141  0.2415
 4059SOL    HW223107   9.316   2.517   4.249 -0.0011 -2.3590 -2.6280
 4060SOL     OW23108   1.979   6.587   0.129  0.0192 -0.3954 -0.1164
 4060SOL    HW123109   2.056   6.530   0.100 -0.9301 -1.5974 -0.2924
 4060SOL    HW223110   1.974   6.668   0.072  0.6164 -0.7574 -0.6838
 4061SOL     OW23111   2.594   9.044   2.320  0.1276  0.3248 -0.1522
 4061SOL    HW123112   2.633   8.953   2.315 -1.0933 -0.2160  0.0684
 4061SOL    HW223113   2.606   9.090   2.232 -0.5301 -0.5827 -0.7219
 4062SOL     OW23114   9.314   4.081   2.936  0.0332  0.3132 -0.1867
 4062SOL    HW123115   9.290   4.152   2.870 -2.6581 -0.7131 -0.3863
 4062SOL    HW223116   9.390   4.027   2.901 -0.6331  0.4844 -1.9534
 4063SOL     OW23117   4.762   1.286   1.819  0.1302  0.2040  0.1066
 4063SOL    HW123118   4.848   1.248   1.786 -0.7733  0.2193 -2.3069
 4063SOL    HW223119   4.690   1.218   1.809 -0.9528  1.5864 -1.6926
 4064SOL     OW23120   8.502   5.982   4.341 -0.1398 -0.3297 -0.5233
 4064SOL    HW123121   8.404   5.963   4.351 -0.6962  1.4758 -2.3811
 4064SOL    HW223122   8.549   5.961   4.427 -2.3054 -0.2457  0.6943
 4065SOL     OW23123   9.631   8.767   3.823 -0.1411  0.6893  0.3120
 4065SOL    HW123124   9.575   8.755   3.741 -0.2082  2.1392  0.1434
 4065SOL    HW223125   9.725   8.740   3.802 -0.2620  0.5654 -0.0935
 4066SOL     OW23126   3.694   5.999   1.336  0.3881 -0.3101 -0.1551
 4066SOL    HW123127   3.695   5.982   1.237 -2.3266 -0.5487 -0.1671
 4066SOL    HW223128   3.680   5.912   1.384  1.0681 -0.1067  0.4206
 4067SOL     OW23129   7.331   0.552   4.239  0.1844 -0.6580 -0.5489
 4067SOL    HW123130   7.363   0.637   4.279  0.4884 -0.4469 -1.2437
 4067SOL    HW223131   7.375   0.538   4.150 -0.8552 -0.8802 -1.0325
 4068SOL     OW23132   1.244   0.707   3.813  0.0547  0.0038 -0.2222
 4068SOL    HW123133   1.342   0.725   3.816 -0.0212  0.3985 -0.1690
 4068SOL    HW223134   1.228   0.608   3.817  0.3923 -0.0039  1.5951
 4069SOL     OW23135   8.662   2.880   3.293 -0.6321  0.0357 -0.1643
 4069SOL    HW123136   8.616   2.792   3.276  0.5803 -0.8068  0.8159
 4069SOL    HW223137   8.615   2.929   3.365  0.8813 -1.5657  2.0030
 4070SOL     OW23138   0.375   7.443   3.711 -0.4868 -0.6550  0.2539
 4070SOL    HW123139   0.329   7.504   3.775 -0.6044 -0.6481  0.1626
 4070SOL    HW223140   0.428   7.497   3.645  1.5805 -0.7036  1.7904
 4071SOL     OW23141   1.221   9.889   1.758 -0.4311  0.0590  0.2682
 4071SOL    HW123142   1.223   9.984   1.726 -1.0132  0.1579  0.5270
 4071SOL    HW223143   1.292   9.876   1.827 -1.7536  0.8693  1.7919
 4072SOL     OW23144   0.077   5.614   2.089 -0.4966  0.3245  0.0443
 4072SOL    HW123145   0.083   5.583   2.184  0.0303  0.3579  0.0217
 4072SOL    HW223146   0.048   5.537   2.031  0.1330  0.0498  0.0903
 4073SOL     OW23147   1.985   8.229   1.219 -0.1104  0.3348  0.0013
 4073SOL    HW123148   2.021   8.240   1.312  0.7552 -0.0011 -0.2875
 4073SOL    HW223149   2.055   8.256   1.153 -0.1441 -0.9532 -0.5763
 4074SOL     OW23150   1.905   2.324   0.902  0.4491 -0.2894 -0.0456
 4074SOL    HW123151   1.827   2.273   0.865  0.4171 -0.9014  0.8432
 4074SOL    HW223152   1.963   2.262   0.955  1.5953  0.1426 -0.7779
 4075SOL     OW23153   6.716   4.830   0.329  0.0945  0.0974  0.3350
 4075SOL    HW123154   6.700   4.925   0.357  0.8968 -0.3125  2.2922
 4075SOL    HW223155   6.713   4.824   0.229 -0.8135  2.0151  0.2159
 4076SOL     OW23156   8.917   2.637   5.322  0.2195 -0.4150  0.1782
 4076SOL    HW123157   8.858   2.691   5.382 -0.4717 -0.5221 -0.3997
 4076SOL    HW223158   8.964   2.567   5.376  0.8005  0.4892  0.8579
 4077SOL     OW23159   6.194   9.708   2.717 -0.0093  0.2733 -0.1729
 4077SOL    HW123160   6.198   9.802   2.682  2.1354  0.3167  0.1176
 4077SOL    HW223161   6.157   9.709   2.810  1.2792  1.0230  0.3577
 4078SOL     OW23162   1.928   2.432   2.542  0.4204  0.3785  0.1010
 4078SOL    HW123163   1.916   2.402   2.636  2.1363 -0.7703 -0.0171
 4078SOL    HW223164   1.897   2.360   2.480  0.0563  0.8020 -0.2150
 4079SOL     OW23165   1.255   3.145   3.834 -0.0521 -0.4625  0.1637
 4079SOL    HW123166   1.173   3.195   3.860 -0.3500 -1.5056  1.2786
 4079SOL    HW223167   1.253   3.054   3.876  0.2862 -1.5716 -2.1288
 4080SOL     OW23168   1.900   1.042   2.858  0.0218 -0.2358  0.0460
 4080SOL    HW123169   1.813   1.008   2.893 -0.6349  0.6098 -0.7441
 4080SOL    HW223170   1.911   1.014   2.763  0.5636 -0.2507  0.1145
 4081SOL     OW23171   4.673   0.038   1.679 -0.2248 -0.3929 -0.4257
 4081SOL    HW123172   4.600   0.064   1.743 -1.7525 -0.4177 -2.1074
 4081SOL    HW223173   4.710   0.120   1.635  1.4500 -0.2918  1.1143
 4082SOL     OW23174   8.545   2.456   4.686  0.8621  0.0135 -0.2873
 4082SOL    HW123175   8.592   2.503   4.760 -2.6226  1.1973  1.2902
 4082SOL    HW223176   8.534   2.360   4.709  0.8757  0.1237  0.1791
 4083SOL     OW23177   1.456   8.408   0.853 -0.2449 -0.6852 -0.5449
 4083SOL    HW123178   1.396   8.427   0.931 -1.2075  1.5831 -1.7616
 4083SOL    HW223179   1.436   8.317   0.817 -1.6281 -0.7259  0.2656
 4084SOL     OW23180   2.499   8.713   2.247 -0.5163 -0.2045  0.2459
 4084SOL    HW123181   2.586   8.736   2.290 -1.0658 -1.4435  2.0449
 4084SOL    HW223182   2.443   8.795   2.239  0.7352  0.5747 -0.7814
 4085SOL     OW23183   3.840   9.440   1.142  0.1879  0.2009 -0.2037
 4085SOL    HW123184   3.895   9.393   1.072  0.9848 -0.5125  0.8981
 4085SOL    HW223185   3.743   9.434   1.117  0.3871 -0.8918 -0.7516
 4086SOL     OW23186   8.743   6.452   0.469  0.0203 -0.5218  0.6286
 4086SOL    HW123187   8.835   6.472   0.435 -0.5761  1.1797 -0.0550
 4086SOL    HW223188   8.689   6.537   0.470 -1.1260 -1.2374  2.2941
 4087SOL     OW23189   3.439   8.524   1.358 -0.2363 -0.3814 -0.4332
 4087SOL    HW123190   3.378   8.490   1.429  0.5351 -1.1509 -0.1289
 4087SOL    HW223191   3.387   8.538   1.273 -0.9091 -0.6309 -0.0650
 4088SOL     OW23192   9.253   6.716   2.359  0.3702 -0.2485  0.3022
 4088SOL    HW123193   9.184   6.693   2.427 -0.0181 -0.3995 -0.1378
 4088SOL    HW223194   9.224   6.683   2.269  0.0920  1.3928 -0.2353
 4089SOL     OW23195   5.115   0.787   4.230  0.8662 -0.3705  0.3551
 4089SOL    HW123196   5.144   0.841   4.308 -0.3879  0.8206  0.0036
 4089SOL    HW223197   5.176   0.707   4.221  1.0134 -0.5504  2.5365
 4090SOL     OW23198   8.865   8.743   1.485 -1.1376  0.2115  0.3625
 4090SOL    HW123199   8.889   8.806   1.558  0.4351 -0.3494  0.3593
 4090SOL    HW223200   8.868   8.649   1.520  1.1350 -0.1664 -0.7762
 4091SOL     OW23201   3.938   9.886   1.986  0.4687  0.4152 -0.1286
 4091SOL    HW123202   3.838   9.881   1.989  0.4707 -0.8180 -1.3546
 4091SOL    HW223203   3.972   9.924   2.072 -1.0530  0.9476  0.2630
 4092SOL     OW23204   1.034   9.936   4.059  0.4654 -0.4337  0.1481
 4092SOL    HW123205   1.012   9.983   4.144  0.8297  1.2923 -0.6839
 4092SOL    HW223206   1.093   9.858   4.079 -0.6078 -0.8917  1.6153
 4093SOL     OW23207   2.765   7.825   1.255 -0.0178 -0.5792 -0.5438
 4093SOL    HW123208   2.681   7.859   1.297 -0.6850 -3.3430  0.4868
 4093SOL    HW223209   2.844   7.864   1.302 -0.7272  0.5536 -0.2762
 4094SOL     OW23210   1.962   3.941   5.546 -0.5254 -0.2280  0.7382
 4094SOL    HW123211   2.005   4.028   5.521  1.0666 -1.2499 -0.1646
 4094SOL    HW223212   1.943   3.888   5.463 -1.2710 -0.8572  1.2994
 4095SOL     OW23213   9.779   6.122   1.560 -0.2802  0.0153 -0.3897
 4095SOL    HW123214   9.869   6.134   1.601 -0.5016  0.0491  0.0902
 4095SOL    HW223215   9.766   6.190   1.488  0.7852 -1.1354 -1.7026
 4096SOL     OW23216   0.807   7.966   6.717  0.5175 -0.4510 -0.1961
 4096SOL    HW123217   0.795   8.043   6.779 -0.9223 -2.4318  2.0584
 4096SOL    HW223218   0.897   7.924   6.732  1.2969  0.7004 -1.4159
 4097SOL     OW23219   0.952   5.293   5.507 -0.4254 -0.1779  0.4586
 4097SOL    HW123220   0.910   5.274   5.596 -0.3506  0.9213  0.7396
 4097SOL    HW223221   1.022   5.225   5.487 -0.8094 -0.7336  1.0038
 4098SOL     OW23222   4.330   1.850   2.084  0.2309  0.2067  0.0875
 4098SOL    HW123223   4.343   1.794   2.002 -0.8650 -0.7671  0.5573
 4098SOL    HW223224   4.386   1.812   2.159  0.0939  0.2151  0.1938
 4099SOL     OW23225   8.170   7.523   1.970  0.4984 -0.2110  0.1226
 4099SOL    HW123226   8.100   7.572   1.918 -0.8066 -1.8829  0.2830
 4099SOL    HW223227   8.241   7.492   1.907 -0.4505 -1.1465 -0.5071
 4100SOL     OW23228   4.217   3.193   5.084 -0.0370 -0.5672  0.0022
 4100SOL    HW123229   4.199   3.120   5.019 -0.4612  0.3211 -0.8977
 4100SOL    HW223230   4.148   3.265   5.074  1.2862  0.7044 -0.2378
 4101SOL     OW23231   9.623   8.312   3.303 -0.4660 -0.6412 -0.1908
 4101SOL    HW123232   9.603   8.402   3.342 -0.2311 -0.2236 -1.0232
 4101SOL    HW223233   9.703   8.319   3.243  1.5455 -2.0484  2.2173
 4102SOL     OW23234   7.958   6.448   3.601 -0.2522 -0.3848 -0.3756
 4102SOL    HW123235   8.030   6.504   3.560 -1.5846  0.8108 -1.0999
 4102SOL    HW223236   7.948   6.472   3.698  0.4717 -0.7371 -0.2032
 4103SOL     OW23237   4.417   9.463   2.693 -0.5044  0.4784 -0.5897
 4103SOL    HW123238   4.427   9.364   2.708 -0.2602  0.6260  0.2707
 4103SOL    HW223239   4.492   9.511   2.739 -0.0191  1.0055 -1.9029
 4104SOL     OW23240   7.849   0.647   4.147  0.0953 -0.0662 -0.4839
 4104SOL    HW123241   7.811   0.618   4.235 -1.2001 -0.0609 -1.0290
 4104SOL    HW223242   7.896   0.735   4.159  1.9440 -1.1976  0.6721
 4105SOL     OW23243   0.772   8.460   3.761 -0.2449 -0.2800  0.2410
 4105SOL    HW123244   0.791   8.554   3.733  1.0083 -0.5044  0.2848
 4105SOL    HW223245   0.673   8.447   3.773 -0.4133  1.0561  0.3486
 4106SOL     OW23246   4.730   3.925   2.927 -0.1517  0.0477  0.3954
 4106SOL    HW123247   4.828   3.939   2.909 -0.5954  2.3561 -0.4413
 4106SOL    HW223248   4.699   3.993   2.994 -1.0042 -1.2384  1.3150
 4107SOL     OW23249   3.605   0.665   3.997 -0.7635  0.0869 -0.0481
 4107SOL    HW123250   3.642   0.656   3.905 -1.4514 -0.0298 -0.3170
 4107SOL    HW223251   3.674   0.705   4.057  0.3426 -1.5469 -0.1853
 4108SOL     OW23252   8.516   8.053   5.285 -0.0867 -0.5652 -0.6500
 4108SOL    HW123253   8.505   8.148   5.256  0.8710 -1.0625 -2.7703
 4108SOL    HW223254   8.438   8.026   5.342 -0.1969  1.5697  0.2723
 4109SOL     OW23255   7.622   6.863   3.780 -0.6094 -0.3265  0.2873
 4109SOL    HW123256   7.641   6.869   3.682 -2.4282 -2.8137 -0.2684
 4109SOL    HW223257   7.693   6.809   3.824 -0.5516 -0.4182  0.0838
 4110SOL     OW23258   9.560   2.287   1.137 -0.0289 -0.3131 -0.1010
 4110SOL    HW123259   9.528   2.326   1.223  1.3020  0.8295 -0.1080
 4110SOL    HW223260   9.517   2.198   1.123 -1.3395  0.1100  1.0472
 4111SOL     OW23261   9.850   8.231   1.581  0.2446 -0.3893 -0.1411
 4111SOL    HW123262   9.934   8.281   1.605  0.4553 -1.1419  0.7065
 4111SOL    HW223263   9.809   8.273   1.500  0.7385  0.7902  0.2069
 4112SOL     OW23264   6.593   1.984   2.777  0.6193 -0.2105 -0.0109
 4112SOL    HW123265   6.659   2.039   2.725  0.3854 -0.5339 -0.6591
 4112SOL    HW223266   6.603   1.888   2.752  0.8342 -0.4269  0.9113
 4113SOL     OW23267   2.360   7.593   6.096 -0.3459 -0.4205  0.0817
 4113SOL    HW123268   2.320   7.590   6.188  0.8442 -2.1873  0.5746
 4113SOL    HW223269   2.459   7.579   6.102 -0.1447  0.2663 -1.4114
 4114SOL     OW23270   8.251   1.627   4.241  0.0548 -0.0396 -0.6438
 4114SOL    HW123271   8.257   1.627   4.141 -0.4063 -2.0150 -0.6749
 4114SOL    HW223272   8.214   1.715   4.272 -2.4256 -0.4257 -2.3659
 4115SOL     OW23273   4.058   1.721   1.013  0.9380  0.0524 -0.1448
 4115SOL    HW123274   4.154   1.724   0.985  0.3562  0.8158 -2.1161
 4115SOL    HW223275   4.036   1.628   1.044  2.5139  0.0797  1.1306
 4116SOL     OW23276   2.543   4.596   3.466  0.0195 -0.6809  0.3099
 4116SOL    HW123277   2.486   4.656   3.409  0.9150 -0.5825 -0.5101
 4116SOL    HW223278   2.581   4.523   3.409  1.7880  0.0358  0.5357
 4117SOL     OW23279   4.842   4.253   0.233  0.1812 -0.2483 -0.2185
 4117SOL    HW123280   4.886   4.166   0.256  0.2585 -0.0749  0.2955
 4117SOL    HW223281   4.743   4.244   0.247  0.1358 -0.3953 -0.6186
 4118SOL     OW23282   1.089   3.025   2.921  0.2285  0.7442  0.4828
 4118SOL    HW123283   1.141   2.952   2.876 -2.4381 -0.8664 -0.1394
 4118SOL    HW223284   1.137   3.055   3.003  2.1582 -0.6099 -0.1175
 4119SOL     OW23285   7.401   6.988   3.073  0.1060  0.0705  0.2518
 4119SOL    HW123286   7.343   6.965   3.151  0.0242  2.5134  0.9435
 4119SOL    HW223287   7.450   6.906   3.042  0.1321 -0.9302  2.8686
 4120SOL     OW23288   9.043   7.755   1.126 -0.5273 -0.1125 -0.2819
 4120SOL    HW123289   9.099   7.772   1.206 -0.6510 -0.0837 -0.2015
 4120SOL    HW223290   9.033   7.840   1.073  1.6251 -0.6701 -1.6599
 4121SOL     OW23291   0.568   7.200   2.101  0.3240  0.0911  0.3825
 4121SOL    HW123292   0.621   7.138   2.159  1.6376 -0.9451 -1.8538
 4121SOL    HW223293   0.472   7.197   2.128  0.5197 -2.2033  0.9565
 4122SOL     OW23294   8.391   3.544   2.388  0.0497  0.1001 -0.7011
 4122SOL    HW123295   8.433   3.580   2.472  0.5610 -0.3138 -0.7769
 4122SOL    HW223296   8.452   3.476   2.347  0.2172  0.9676 -1.9036
 4123SOL     OW23297   2.293   5.392   4.150 -0.1642 -0.2954 -0.2483
 4123SOL    HW123298   2.243   5.307   4.136  0.0011  0.0025 -2.8376
 4123SOL    HW223299   2.230   5.469   4.144  0.0589 -0.1094 -0.2173
 4124SOL     OW23300   1.576   8.317   2.421  0.2288  0.4141 -0.2488
 4124SOL    HW123301   1.654   8.365   2.461  0.0202 -0.4431  1.2037
 4124SOL    HW223302   1.595   8.297   2.325  1.1861  1.5141 -0.2957
 4125SOL     OW23303   2.089   2.944   1.316 -0.1720 -0.1875  0.4158
 4125SOL    HW123304   2.125   3.037   1.314  0.9059 -0.6071  0.2233
 4125SOL    HW223305   2.164   2.879   1.323 -0.9253 -1.0476  0.6452
 4126SOL     OW23306   9.530   3.358   3.343 -0.2376 -0.2304 -0.4143
 4126SOL    HW123307   9.532   3.260   3.323  1.8564 -0.1664 -0.5875
 4126SOL    HW223308   9.440   3.382   3.380 -1.4170 -1.8555 -2.0939
 4127SOL     OW23309   4.220   8.432   1.526  0.4562  0.1695 -0.1605
 4127SOL    HW123310   4.211   8.342   1.484  1.1663  0.3449 -0.6928
 4127SOL    HW223311   4.295   8.482   1.483  0.4009  0.8187  0.4804
 4128SOL     OW23312   5.695   4.289   6.261  0.3268  0.0728  0.1450
 4128SOL    HW123313   5.741   4.377   6.247 -0.4145  0.3505 -0.5622
 4128SOL    HW223314   5.597   4.304   6.270  0.0947 -0.7628 -0.8703
 4129SOL     OW23315   4.268   4.215   2.499  0.1604 -0.0808  0.1881
 4129SOL    HW123316   4.349   4.160   2.519  0.4688  0.7254  1.1610
 4129SOL    HW223317   4.186   4.160   2.517  0.4705 -0.3765  0.7362
 4130SOL     OW23318   9.051   4.940   1.661 -0.4791  0.7394 -0.2313
 4130SOL    HW123319   9.085   5.016   1.605 -0.9366  0.5029 -0.8459
 4130SOL    HW223320   9.012   4.976   1.746 -1.3099  1.2662 -0.8217
 4131SOL     OW23321   0.732   1.677   1.336 -0.4812  0.0824 -0.3181
 4131SOL    HW123322   0.688   1.759   1.300  1.9000  0.7402 -1.8717
 4131SOL    HW223323   0.760   1.692   1.431  2.7828  2.3258 -1.5273
 4132SOL     OW23324   5.878   1.481   2.374  0.6492 -0.0405 -0.2230
 4132SOL    HW123325   5.834   1.466   2.286  0.6139 -1.2128 -0.0119
 4132SOL    HW223326   5.943   1.407   2.392  3.1748  1.9410 -0.8046
 4133SOL     OW23327   0.038   3.293   2.584  0.2893  0.1565  0.1447
 4133SOL    HW123328  -0.013   3.379   2.590  0.0037  0.0800 -1.0222
 4133SOL    HW223329   0.130   3.306   2.621 -0.1463  0.6388  1.0779
 4134SOL     OW23330   8.795   6.199   5.434  0.2456  0.4003  0.2566
 4134SOL    HW123331   8.792   6.143   5.516  0.8417 -0.5040 -0.3281
 4134SOL    HW223332   8.880   6.252   5.433  1.3908 -1.4124 -0.9418
 4135SOL     OW23333   8.835   9.575   1.203  0.1511  0.3527 -0.3310
 4135SOL    HW123334   8.883   9.490   1.180  0.5398  0.2321  0.9175
 4135SOL    HW223335   8.834   9.635   1.123  1.2040 -0.2031 -0.7662
 4136SOL     OW23336   3.678   6.176   3.982 -0.1523 -0.3335  0.0862
 4136SOL    HW123337   3.632   6.160   4.070 -1.8540  0.9197 -0.5421
 4136SOL    HW223338   3.627   6.129   3.910 -1.2877  2.2201 -0.8182
 4137SOL     OW23339   5.744   1.033   3.581  0.4033  0.3146 -0.6139
 4137SOL    HW123340   5.809   1.090   3.532  1.7639 -0.3352  0.3878
 4137SOL    HW223341   5.740   0.943   3.538  2.7013 -0.7482  1.2374
 4138SOL     OW23342   8.825   6.140   3.737 -0.7853  0.2931  0.1330
 4138SOL    HW123343   8.745   6.163   3.793 -1.0838  3.1826 -1.4038
 4138SOL    HW223344   8.797   6.080   3.663 -0.9997 -0.8982  1.1628
 4139SOL     OW23345   5.251   8.782   1.479 -0.0808 -0.2369 -0.1939
 4139SOL    HW123346   5.179   8.734   1.430 -0.1541  1.0955 -1.3903
 4139SOL    HW223347   5.212   8.856   1.534  0.4584  1.1030 -1.5915
 4140SOL     OW23348   2.529   3.403   0.110  0.3046 -0.5736  0.3446
 4140SOL    HW123349   2.606   3.340   0.108 -0.0269 -0.9488 -1.1986
 4140SOL    HW223350   2.468   3.383   0.033  0.0046  1.3791  0.0537
 4141SOL     OW23351   5.632   8.394   2.059 -0.0202  0.3157 -0.0512
 4141SOL    HW123352   5.574   8.334   2.006 -1.0798  2.7706 -1.7502
 4141SOL    HW223353   5.580   8.432   2.136 -0.2179  1.3023 -0.6667
 4142SOL     OW23354   3.029   2.423   3.862 -0.2097  0.1126  0.0170
 4142SOL    HW123355   3.128   2.418   3.870 -0.1225  2.0375  0.2198
 4142SOL    HW223356   3.005   2.471   3.777 -0.9520  0.4115  0.3936
 4143SOL     OW23357   1.344   7.819   3.037 -0.1146  0.3018  0.6374
 4143SOL    HW123358   1.347   7.886   3.111 -2.1880  0.4235  0.6343
 4143SOL    HW223359   1.391   7.736   3.064 -0.9859  0.2954  2.1305
 4144SOL     OW23360   4.587   7.973   4.925  0.2117 -0.0189  0.0017
 4144SOL    HW123361   4.585   7.999   5.022 -0.3028  3.5975 -0.8866
 4144SOL    HW223362   4.660   8.022   4.879 -0.3440 -0.7521 -1.6913
 4145SOL     OW23363   6.331   9.418   4.249 -0.1986 -0.0621 -0.0163
 4145SOL    HW123364   6.248   9.368   4.223  0.0648 -0.8660  0.6688
 4145SOL    HW223365   6.305   9.497   4.304 -0.4541 -0.9456  1.1668
 4146SOL     OW23366   6.745   2.781   2.579  0.6902 -0.4313 -0.1882
 4146SOL    HW123367   6.727   2.869   2.623 -1.1359  0.1108 -1.9281
 4146SOL    HW223368   6.707   2.708   2.636  0.7128  0.0308  0.4348
 4147SOL     OW23369   8.243   9.482   1.832  0.3912  0.3129  0.1364
 4147SOL    HW123370   8.268   9.385   1.837 -1.5868 -0.1898  0.5393
 4147SOL    HW223371   8.296   9.533   1.900  2.1308 -0.3115 -0.7140
 4148SOL     OW23372   1.129   7.799   2.359 -0.3354 -0.5422  0.2426
 4148SOL    HW123373   1.030   7.790   2.375 -0.1626  0.6937  2.2515
 4148SOL    HW223374   1.179   7.759   2.435  0.6381  1.7955  0.8822
 4149SOL     OW23375   1.918   3.071   1.861  0.3153 -0.0858 -0.6430
 4149SOL    HW123376   1.873   3.123   1.788  0.3286 -0.2690 -0.7809
 4149SOL    HW223377   1.866   2.988   1.880  1.2749 -0.9545 -1.6898
 4150SOL     OW23378   0.081   5.325   1.984  0.2353  0.3438 -0.4273
 4150SOL    HW123379   0.179   5.307   1.979 -0.1759 -1.8206 -1.1184
 4150SOL    HW223380   0.032   5.265   1.921 -1.6844  0.2218  1.0981
 4151SOL     OW23381   3.145   0.235   1.841 -0.2079  0.0685  0.2662
 4151SOL    HW123382   3.217   0.170   1.865  2.0541  2.5698  0.4264
 4151SOL    HW223383   3.057   0.198   1.871  1.2021 -2.1511  1.9076
 4152SOL     OW23384   1.196   1.086   2.620  0.0193  0.3121  0.3831
 4152SOL    HW123385   1.271   1.036   2.577  0.8369  2.0587 -0.2732
 4152SOL    HW223386   1.231   1.139   2.697 -0.7762  0.1334  0.8726
 4153SOL     OW23387   6.938   8.275   2.105  0.1056 -0.3260  0.1067
 4153SOL    HW123388   6.970   8.187   2.140 -1.4517 -1.1177 -0.4228
 4153SOL    HW223389   6.962   8.347   2.171 -2.6666 -1.7674  2.8425
 4154SOL     OW23390   6.394   7.514   4.728  0.4313  0.0419 -0.0339
 4154SOL    HW123391   6.470   7.575   4.746  1.9064 -1.9134  0.5884
 4154SOL    HW223392   6.426   7.419   4.730 -2.0911 -0.8486  0.6837
 4155SOL     OW23393   3.319   1.628   2.932  0.4508  0.5000  0.5686
 4155SOL    HW123394   3.381   1.702   2.959 -1.6644  2.3002  0.6379
 4155SOL    HW223395   3.254   1.662   2.864 -0.2925 -1.4278  0.2854
 4156SOL     OW23396   2.918   7.610   6.716 -0.0506 -0.2009 -0.0013
 4156SOL    HW123397   2.864   7.630   6.634  0.0234  0.8972  0.2096
 4156SOL    HW223398   2.994   7.549   6.691  1.3532  1.9860 -1.2545
 4157SOL     OW23399   5.291   7.755   2.249 -0.2258  0.1711  0.4499
 4157SOL    HW123400   5.242   7.794   2.327 -0.1115  0.6525  0.2787
 4157SOL    HW223401   5.257   7.662   2.231 -0.5684  0.2329  0.7855
 4158SOL     OW23402   1.632   5.712   4.796  0.0340  0.1749  0.0886
 4158SOL    HW123403   1.576   5.717   4.713  0.6247 -0.1687 -0.3363
 4158SOL    HW223404   1.725   5.744   4.775 -0.4613  2.3997  1.1968
 4159SOL     OW23405   2.861   2.842   1.235 -0.4333 -0.7800  0.3442
 4159SOL    HW123406   2.905   2.876   1.153  0.0650 -0.7731  0.6150
 4159SOL    HW223407   2.834   2.918   1.294 -1.2534 -0.7621 -0.0514
 4160SOL     OW23408   8.003   0.139   4.091 -0.2524 -0.4885 -0.6517
 4160SOL    HW123409   7.970   0.218   4.143 -1.0510 -0.4780 -1.1720
 4160SOL    HW223410   7.937   0.064   4.099  0.6811 -1.2448  0.1631
 4161SOL     OW23411   8.265   4.893   1.331 -0.5988  0.2183  0.5194
 4161SOL    HW123412   8.304   4.856   1.247 -0.0135  0.4977  0.6666
 4161SOL    HW223413   8.206   4.971   1.309 -1.1890 -0.2842  0.2864
 4162SOL     OW23414   6.402   4.021   0.280 -0.1422 -0.1052 -0.1926
 4162SOL    HW123415   6.443   4.110   0.261 -0.0736  0.1213  0.9648
 4162SOL    HW223416   6.394   4.009   0.379 -0.8114 -1.0879 -0.3619
 4163SOL     OW23417   3.263   8.325   4.616 -0.0837  0.4388  0.0317
 4163SOL    HW123418   3.317   8.284   4.689  1.4374  0.6089 -0.9708
 4163SOL    HW223419   3.185   8.267   4.595  0.1103 -0.1837  0.9942
 4164SOL     OW23420   5.484   9.027   1.809  0.5360 -0.3882 -0.3563
 4164SOL    HW123421   5.390   9.039   1.780 -0.2558 -2.4131  1.2210
 4164SOL    HW223422   5.511   9.102   1.870 -0.7211 -0.7980  0.7324
 4165SOL     OW23423   9.457   4.192   4.352  0.1585 -0.4473 -0.8654
 4165SOL    HW123424   9.537   4.154   4.398 -0.2272 -0.0073  0.1772
 4165SOL    HW223425   9.486   4.257   4.282  0.6767  0.7664  0.4513
 4166SOL     OW23426   9.332   8.510   0.724 -0.3792 -0.4050  0.2800
 4166SOL    HW123427   9.306   8.599   0.690 -1.0461 -0.1527  1.4249
 4166SOL    HW223428   9.425   8.488   0.693 -1.4939 -0.8532 -2.9090
 4167SOL     OW23429   1.636   7.523   2.739  0.0221  0.6513 -0.2701
 4167SOL    HW123430   1.547   7.478   2.734  0.3587  0.0638 -0.9393
 4167SOL    HW223431   1.658   7.563   2.650  0.4741  0.7085 -0.1319
 4168SOL     OW23432   4.425   3.152   4.201  0.2555  0.1530 -0.0695
 4168SOL    HW123433   4.451   3.055   4.205 -2.1499 -0.4984  0.6241
 4168SOL    HW223434   4.355   3.170   4.270  0.2069  2.2526 -0.6515
 4169SOL     OW23435   3.664   4.412   2.691 -0.5190 -0.3690 -0.0941
 4169SOL    HW123436   3.686   4.468   2.771 -0.9470 -1.7728  1.0212
 4169SOL    HW223437   3.643   4.472   2.613 -0.6086  1.0163  0.9813
 4170SOL     OW23438   2.331   7.897   6.023  0.6524 -0.0746 -0.4693
 4170SOL    HW123439   2.334   7.797   6.032 -0.8488 -0.0179  0.6303
 4170SOL    HW223440   2.255   7.923   5.963  1.8434  0.3630 -1.8434
 4171SOL     OW23441   4.064   5.976   3.081  0.1372 -0.2188  0.1064
 4171SOL    HW123442   4.093   5.926   3.162 -0.7310 -2.0962 -0.6890
 4171SOL    HW223443   4.082   5.920   3.000 -0.8264  0.7927 -0.8198
 4172SOL     OW23444   8.935   2.443   2.314 -0.4276  0.2901  0.1302
 4172SOL    HW123445   8.942   2.361   2.371  0.0729  0.2154 -0.0406
 4172SOL    HW223446   8.855   2.496   2.342 -0.0615  0.3669  1.0500
 4173SOL     OW23447   3.376   5.365   1.721  0.3589 -0.1481 -0.1547
 4173SOL    HW123448   3.424   5.278   1.725  0.8466  0.0879 -0.6659
 4173SOL    HW223449   3.385   5.403   1.629  1.4894  1.1818  0.4853
 4174SOL     OW23450   8.017   1.542   3.602 -0.5379  0.6032  0.0938
 4174SOL    HW123451   7.994   1.468   3.666  1.3864 -0.8068 -0.8033
 4174SOL    HW223452   8.047   1.503   3.516  1.1885  2.4448 -0.1615
 4175SOL     OW23453   2.525   5.572   1.064  0.6523  0.2125  0.2798
 4175SOL    HW123454   2.541   5.617   1.152  2.8781  0.8548 -0.4282
 4175SOL    HW223455   2.611   5.534   1.030 -0.0117  0.7728 -2.0606
 4176SOL     OW23456   4.081   0.690   3.407 -0.5726 -0.5040 -0.1159
 4176SOL    HW123457   4.122   0.726   3.323 -0.1915 -1.5062 -0.3684
 4176SOL    HW223458   4.033   0.764   3.455 -0.1576  0.2408 -0.8291
 4177SOL     OW23459   5.020   1.181   1.709 -0.3509  0.2768 -0.3630
 4177SOL    HW123460   5.052   1.219   1.622  0.4084 -0.3444 -0.3584
 4177SOL    HW223461   5.096   1.176   1.773 -0.6589 -0.3537 -0.0465
 4178SOL     OW23462   1.749   4.856   1.970  0.0143 -0.5315  0.3472
 4178SOL    HW123463   1.698   4.840   1.885 -0.8605  1.3535  0.4949
 4178SOL    HW223464   1.771   4.953   1.978  0.1509 -0.6923  2.2452
 4179SOL     OW23465   5.761   0.856   5.276  0.1812 -0.6310  0.1844
 4179SOL    HW123466   5.722   0.773   5.237 -0.3510 -0.4416  0.3106
 4179SOL    HW223467   5.806   0.835   5.362  0.8705 -0.9544 -0.2504
 4180SOL     OW23468   0.745   0.427   3.867 -0.4506 -0.2061  0.1889
 4180SOL    HW123469   0.668   0.449   3.927  0.6121  2.0555  0.7594
 4180SOL    HW223470   0.732   0.474   3.779  1.0198  1.4196  0.8262
 4181SOL     OW23471   9.000   6.600   3.736  0.5782 -0.2081 -0.2777
 4181SOL    HW123472   9.039   6.509   3.752 -2.1565 -1.9080 -2.8601
 4181SOL    HW223473   9.059   6.651   3.673  1.1364 -0.8916 -0.3213
 4182SOL     OW23474   4.769   7.323   2.159  0.2913 -0.2929  0.2036
 4182SOL    HW123475   4.814   7.249   2.209  1.8668  0.6756  0.2879
 4182SOL    HW223476   4.676   7.336   2.193  0.1375 -1.9695  0.4368
 4183SOL     OW23477   6.376   7.404   5.242 -0.2067 -0.0433  0.3029
 4183SOL    HW123478   6.340   7.348   5.168  0.4027  1.3075 -1.0574
 4183SOL    HW223479   6.329   7.382   5.328 -1.4746 -1.0640 -0.6419
 4184SOL     OW23480   3.733   6.083   4.349  0.4388 -0.3516  0.5744
 4184SOL    HW123481   3.637   6.099   4.325  0.4373 -1.9520 -0.5603
 4184SOL    HW223482   3.777   6.170   4.370 -1.0011  0.5032  0.1305
 4185SOL     OW23483   5.110   2.217   2.749 -0.1979  0.2366  0.2149
 4185SOL    HW123484   5.022   2.177   2.724  0.1252 -0.9220  0.8924
 4185SOL    HW223485   5.118   2.308   2.709 -0.6237 -0.6834 -2.0184
 4186SOL     OW23486   9.067   4.253   5.562  0.4964 -0.7516 -0.1656
 4186SOL    HW123487   9.078   4.352   5.550  3.9019 -1.1461 -0.7740
 4186SOL    HW223488   9.133   4.220   5.629 -0.3944 -2.6892 -0.2153
 4187SOL     OW23489   1.530   7.424   5.497  0.0797  0.5187  0.4280
 4187SOL    HW123490   1.527   7.480   5.415 -3.3001 -1.0121 -0.5878
 4187SOL    HW223491   1.509   7.329   5.474  1.6011 -0.4422  2.7179
 4188SOL     OW23492   0.436   4.684   5.121  0.2695 -0.0707 -0.2153
 4188SOL    HW123493   0.431   4.587   5.097  0.2326  0.0024 -0.5037
 4188SOL    HW223494   0.343   4.720   5.132  0.2865 -0.1119  0.0710
 4189SOL     OW23495   6.295   7.928   4.745  0.0424 -0.8194 -0.5697
 4189SOL    HW123496   6.372   7.980   4.779 -2.2149  2.4864 -0.2934
 4189SOL    HW223497   6.246   7.886   4.821 -0.6353  0.2954 -0.3799
 4190SOL     OW23498   0.964   8.615   4.345  0.1796 -0.2533 -0.4304
 4190SOL    HW123499   0.869   8.583   4.343  0.6257 -1.6009 -0.5740
 4190SOL    HW223500   0.997   8.616   4.440 -0.0040  0.2697 -0.3754
 4191SOL     OW23501   2.837   5.805   4.235  0.3993 -0.2096  0.0052
 4191SOL    HW123502   2.860   5.759   4.320  2.2872  0.5503 -0.0588
 4191SOL    HW223503   2.761   5.758   4.190  0.1032 -1.2451  1.5681
 4192SOL     OW23504   3.328   4.324   4.428 -0.1945  0.3367 -0.0151
 4192SOL    HW123505   3.426   4.342   4.426 -0.2960  1.1631  1.5344
 4192SOL    HW223506   3.290   4.329   4.335  0.8878  1.9255 -0.3861
 4193SOL     OW23507   0.243   5.889   1.118  0.5194  0.3636  0.8113
 4193SOL    HW123508   0.187   5.891   1.036  1.5622  2.4637  0.1214
 4193SOL    HW223509   0.328   5.838   1.099 -0.0137 -0.6567  1.1207
 4194SOL     OW23510   2.096   3.310   4.272 -0.6508 -0.4248 -0.8634
 4194SOL    HW123511   2.036   3.347   4.344  0.0226  0.5508 -0.7945
 4194SOL    HW223512   2.051   3.320   4.183 -0.6536  0.1786 -0.7965
 4195SOL     OW23513   7.836   1.685   6.055 -0.4162  0.5682  0.1243
 4195SOL    HW123514   7.786   1.646   6.133  0.5005  1.0801  0.9823
 4195SOL    HW223515   7.897   1.757   6.088  1.2656 -0.4044 -0.8524
 4196SOL     OW23516   6.542   0.238   2.567 -0.0307  0.9257 -0.1579
 4196SOL    HW123517   6.510   0.315   2.511 -0.0001  1.9272  1.1761
 4196SOL    HW223518   6.501   0.244   2.658  0.3208 -0.3961  0.0883
 4197SOL     OW23519   1.293   0.655   2.898  0.3083  0.1528 -0.1149
 4197SOL    HW123520   1.293   0.555   2.896  1.1853  0.1475  0.1418
 4197SOL    HW223521   1.320   0.687   2.989  0.7531  0.6236 -0.4066
 4198SOL     OW23522   9.811   5.908   2.582 -0.4065 -0.6078  0.5972
 4198SOL    HW123523   9.905   5.891   2.610 -0.4615 -0.3310  0.9374
 4198SOL    HW223524   9.808   5.923   2.483  0.1434  1.2105  0.8526
 4199SOL     OW23525   2.638   7.122   4.051  0.6646  0.5723  0.5263
 4199SOL    HW123526   2.635   7.034   4.003  2.0878  1.2173 -0.7799
 4199SOL    HW223527   2.559   7.129   4.111  0.9569 -1.9575  1.2797
 4200SOL     OW23528   3.888   5.621   2.583  0.0512 -0.4725  0.0859
 4200SOL    HW123529   3.850   5.711   2.601  1.7963  0.0933  1.0901
 4200SOL    HW223530   3.958   5.627   2.511  1.2866 -0.7213  1.2371
 4201SOL     OW23531   5.035   9.432   1.922 -0.7698 -0.6232 -0.4980
 4201SOL    HW123532   4.937   9.443   1.938 -1.0487 -0.4268 -2.2462
 4201SOL    HW223533   5.085   9.451   2.006 -2.2186 -0.4964  0.3449
 4202SOL     OW23534   2.225   3.357   3.605  0.1166 -0.4887 -0.0846
 4202SOL    HW123535   2.184   3.418   3.537  1.2883 -0.6877 -0.9826
 4202SOL    HW223536   2.188   3.265   3.593  0.8781 -0.6853 -0.9477
 4203SOL     OW23537   0.887   0.394   4.282 -0.4459  0.4241 -0.6622
 4203SOL    HW123538   0.907   0.418   4.377  0.0028 -0.0529 -0.6338
 4203SOL    HW223539   0.962   0.425   4.223 -1.1705  1.5840 -0.9923
 4204SOL     OW23540   3.250   6.699   3.909  0.0495  0.1478 -0.5744
 4204SOL    HW123541   3.271   6.788   3.949 -0.3810  0.8152 -1.8293
 4204SOL    HW223542   3.165   6.664   3.949  0.1295  0.3657 -0.2066
 4205SOL     OW23543   9.543   7.643   4.723 -0.1932  0.7779  0.1144
 4205SOL    HW123544   9.566   7.559   4.674 -0.3984  0.4868  0.5176
 4205SOL    HW223545   9.464   7.627   4.782  0.3385  1.0007  0.8973
 4206SOL     OW23546   5.297   8.995   4.101  0.5903 -0.0372  0.4147
 4206SOL    HW123547   5.359   9.065   4.136 -1.0189  1.4806  0.3273
 4206SOL    HW223548   5.257   8.944   4.177  0.8616 -0.0705  0.5355
 4207SOL     OW23549   4.993   2.523   2.891 -0.5257 -0.1724  0.8211
 4207SOL    HW123550   5.051   2.512   2.811 -1.3131  0.3059  0.1687
 4207SOL    HW223551   4.897   2.506   2.865 -0.7875  0.0457  1.6399
 4208SOL     OW23552   9.215   8.299   5.157 -0.4837 -0.0645  0.5260
 4208SOL    HW123553   9.257   8.210   5.177  1.5049  0.6009 -0.5474
 4208SOL    HW223554   9.164   8.293   5.071 -0.9925 -0.3605  0.8449
 4209SOL     OW23555   3.718   6.368   3.238 -0.5149 -0.1615  0.1898
 4209SOL    HW123556   3.809   6.332   3.218 -0.7052 -0.4534 -0.1442
 4209SOL    HW223557   3.698   6.353   3.335  0.8248  2.1944  0.8786
 4210SOL     OW23558   3.312   5.635   3.776 -0.1969 -0.0555  0.2666
 4210SOL    HW123559   3.216   5.623   3.750 -0.4509 -1.4005  1.7639
 4210SOL    HW223560   3.327   5.598   3.868  1.4330  1.5063  0.6614
 4211SOL     OW23561   4.508   2.619   1.023  0.4308  0.2969  0.9484
 4211SOL    HW123562   4.481   2.706   0.981  0.6837 -0.2273 -0.3154
 4211SOL    HW223563   4.431   2.556   1.022  0.5733  0.1247  0.8623
 4212SOL     OW23564   9.611   4.274   6.552  0.1718 -0.5178  0.3526
 4212SOL    HW123565   9.516   4.300   6.567  0.3517 -0.3765  1.2513
 4212SOL    HW223566   9.649   4.330   6.478  1.1227  3.2706  3.5189
 4213SOL     OW23567   2.594   4.075   6.224  0.5111  0.0695  0.1625
 4213SOL    HW123568   2.640   4.092   6.137 -0.9584  1.5984 -0.3160
 4213SOL    HW223569   2.558   3.981   6.224  0.5141  0.0572 -0.8729
 4214SOL     OW23570   9.533   9.651   4.878  0.1743  0.1008 -0.2598
 4214SOL    HW123571   9.489   9.631   4.965  0.1132 -0.6388 -0.4512
 4214SOL    HW223572   9.464   9.653   4.805  0.4652 -1.3735 -0.6099
 4215SOL     OW23573   2.081   6.587   5.451 -0.2947 -0.6021  0.4496
 4215SOL    HW123574   2.152   6.544   5.396  0.6404  0.4848  0.7854
 4215SOL    HW223575   2.066   6.534   5.534  0.3001 -0.6920  0.4983
 4216SOL     OW23576   5.545   9.842   5.098  0.4772 -0.0062  0.2395
 4216SOL    HW123577   5.549   9.781   5.020 -1.8975  0.7402 -0.4881
 4216SOL    HW223578   5.637   9.849   5.139  1.4571 -1.4432 -1.6242
 4217SOL     OW23579   3.243   5.664   2.506  0.4801  0.7461  0.1557
 4217SOL    HW123580   3.321   5.606   2.487 -0.1662 -0.1175  0.1324
 4217SOL    HW223581   3.262   5.720   2.588  0.3007 -0.9811  1.3972
 4218SOL     OW23582   3.101   3.673   5.186 -0.1217 -0.5339  0.2943
 4218SOL    HW123583   3.044   3.754   5.195 -0.5968 -0.7408 -0.8069
 4218SOL    HW223584   3.044   3.591   5.198  0.5099 -0.7051  2.2804
 4219SOL     OW23585   1.222   2.214   2.356  0.5894  0.2006  0.1150
 4219SOL    HW123586   1.127   2.183   2.347  0.5454  0.1199  0.8011
 4219SOL    HW223587   1.229   2.276   2.434  1.4993 -1.3889  1.3264
 4220SOL     OW23588   1.539   3.404   5.808 -0.4084 -0.0595 -0.6722
 4220SOL    HW123589   1.443   3.397   5.781 -0.0708 -0.8305 -1.7278
 4220SOL    HW223590   1.583   3.315   5.797  0.2721  0.1326  0.4375
 4221SOL     OW23591   9.579   2.548   3.564  0.0581 -0.4298  0.2217
 4221SOL    HW123592   9.648   2.502   3.508  0.8555  0.9277  0.0610
 4221SOL    HW223593   9.489   2.539   3.520  0.7230  0.9042 -1.4919
 4222SOL     OW23594   4.541   5.439   1.040 -0.0823  0.5232  0.0640
 4222SOL    HW123595   4.516   5.449   1.137 -1.0185  0.9309 -0.2171
 4222SOL    HW223596   4.551   5.529   0.998  1.1434  0.3507 -0.0149
 4223SOL     OW23597   8.490   5.399   4.664  0.4660  0.2251  0.1378
 4223SOL    HW123598   8.400   5.421   4.703 -0.1237 -0.5795 -0.7607
 4223SOL    HW223599   8.478   5.338   4.586  1.7904  0.2555 -0.0878
 4224SOL     OW23600   1.419   3.824   5.662  0.6799  0.1035 -0.3803
 4224SOL    HW123601   1.394   3.727   5.668  0.8858  0.1251  1.2029
 4224SOL    HW223602   1.515   3.833   5.638  0.6818 -0.0931 -0.4427
 4225SOL     OW23603   6.041   1.195   3.945 -0.1830  0.2763 -0.5783
 4225SOL    HW123604   6.127   1.154   3.917  0.7606  1.9505 -0.1847
 4225SOL    HW223605   5.965   1.136   3.916  1.0546 -1.0001 -1.2913
 4226SOL     OW23606   8.500   0.401   2.423 -0.0343 -0.4668 -0.0599
 4226SOL    HW123607   8.521   0.329   2.357  1.3426 -0.8087  0.7115
 4226SOL    HW223608   8.462   0.360   2.506 -1.1338 -0.1072 -0.3893
 4227SOL     OW23609   1.502   5.126   2.997  0.6291  0.3555 -0.2445
 4227SOL    HW123610   1.577   5.100   3.058  0.4787 -1.1944 -0.7001
 4227SOL    HW223611   1.495   5.060   2.923  1.5521  2.8224 -2.6083
 4228SOL     OW23612   0.546   3.395   5.588 -0.0749  0.4202  0.1156
 4228SOL    HW123613   0.527   3.328   5.660 -1.6842  0.2969 -0.3844
 4228SOL    HW223614   0.531   3.351   5.499  1.8481  0.5808 -0.3088
 4229SOL     OW23615   2.232   5.491   0.122 -0.3508 -1.2246 -0.0385
 4229SOL    HW123616   2.211   5.480   0.219  1.5326 -2.1273  0.2858
 4229SOL    HW223617   2.162   5.443   0.068 -1.9490  0.0940  0.8097
 4230SOL     OW23618   5.882   0.558   1.283 -0.0615 -0.5188 -0.1707
 4230SOL    HW123619   5.787   0.571   1.256  0.0779 -1.6929 -1.2762
 4230SOL    HW223620   5.942   0.571   1.204  0.7597  0.8155  0.6480
 4231SOL     OW23621   0.076   5.279   2.687  0.1409  0.1671 -0.1469
 4231SOL    HW123622   0.020   5.337   2.629  0.8922  2.2048  1.1084
 4231SOL    HW223623   0.018   5.210   2.731 -1.0891  1.1496 -0.2058
 4232SOL     OW23624   1.923   7.698   1.620  0.3939  0.5953 -0.1821
 4232SOL    HW123625   2.000   7.650   1.578  0.5577  1.6979 -1.1715
 4232SOL    HW223626   1.957   7.776   1.672  0.0141  0.5700  0.1016
 4233SOL     OW23627   4.331   5.739   2.255  0.4255 -0.0417 -0.3691
 4233SOL    HW123628   4.318   5.759   2.158  0.0821  0.7063 -0.1697
 4233SOL    HW223629   4.270   5.797   2.309 -0.9338 -1.9332  0.1958
 4234SOL     OW23630   9.089   5.660   4.288 -0.7265  0.8069  0.1592
 4234SOL    HW123631   9.135   5.570   4.291  2.1708  2.2182  0.3135
 4234SOL    HW223632   9.050   5.675   4.198 -3.4616 -1.6312  0.8675
 4235SOL     OW23633   4.635   0.897   1.449 -0.2438  0.0263  0.0320
 4235SOL    HW123634   4.624   0.951   1.366 -0.9292 -0.5218 -0.2455
 4235SOL    HW223635   4.729   0.905   1.483  0.2740 -0.3966 -1.2608
 4236SOL     OW23636   0.087   5.457   6.497  0.1456  0.3286 -0.3921
 4236SOL    HW123637   0.162   5.391   6.495  0.5582  0.7953 -0.4285
 4236SOL    HW223638   0.060   5.480   6.403 -1.2317 -1.1753 -0.3780
 4237SOL     OW23639   4.268   2.024   4.371  0.9313 -0.1698  0.8070
 4237SOL    HW123640   4.368   2.015   4.371  1.1065  1.4927  1.0300
 4237SOL    HW223641   4.237   2.044   4.464  0.4903  0.2710  0.5653
 4238SOL     OW23642   9.074   4.485   2.973  0.2529  0.1012  0.3314
 4238SOL    HW123643   9.002   4.543   3.011 -0.3461 -0.4727  0.0768
 4238SOL    HW223644   9.113   4.529   2.892  0.5013  0.6227  0.7333
 4239SOL     OW23645   1.900   6.402   3.861  0.3929  0.1157 -0.2839
 4239SOL    HW123646   1.853   6.445   3.937  1.2735 -1.2485  1.0584
 4239SOL    HW223647   1.999   6.410   3.874  0.5883 -2.5255  0.1600
 4240SOL     OW23648   1.060   3.660   0.270 -0.1830 -0.2214 -0.2967
 4240SOL    HW123649   1.046   3.634   0.175 -0.7683 -0.6367 -0.0976
 4240SOL    HW223650   1.158   3.666   0.289 -0.0402 -1.9591 -0.4281
 4241SOL     OW23651   9.856   8.599   2.589  0.4746 -0.4329  0.1446
 4241SOL    HW123652   9.948   8.574   2.619 -0.2684 -2.1690  1.0324
 4241SOL    HW223653   9.789   8.559   2.651 -0.9352 -0.2643 -1.2525
 4242SOL     OW23654   2.005   2.162   3.475  0.4592 -0.3077  0.4305
 4242SOL    HW123655   1.924   2.201   3.432  1.5704  0.9554 -0.5786
 4242SOL    HW223656   2.017   2.068   3.445  1.2560  0.5729 -2.1618
 4243SOL     OW23657   0.853   3.473   2.941 -1.0736 -0.5889  0.9255
 4243SOL    HW123658   0.788   3.539   2.904  1.6818  1.0443 -1.2159
 4243SOL    HW223659   0.915   3.520   3.004  0.9943 -1.0435 -0.7184
 4244SOL     OW23660   3.279   5.214   6.555  0.4299  0.3950  0.4410
 4244SOL    HW123661   3.186   5.177   6.561  0.8732 -0.8018  0.0004
 4244SOL    HW223662   3.280   5.292   6.493 -0.1792  0.0888  0.0390
 4245SOL     OW23663   4.973   2.933   4.724  0.7281  0.1307 -0.2401
 4245SOL    HW123664   4.930   2.988   4.653 -3.1919 -3.2159 -0.6440
 4245SOL    HW223665   4.967   2.981   4.812 -0.6865  1.2874 -0.9564
 4246SOL     OW23666   0.969   5.411   3.859  0.0671 -0.0542  0.4597
 4246SOL    HW123667   1.005   5.439   3.770  0.5016  0.8395  0.9069
 4246SOL    HW223668   0.971   5.489   3.921  0.6941 -0.9198  1.5470
 4247SOL     OW23669   4.618   7.139   4.862 -0.2068  0.5654  0.7600
 4247SOL    HW123670   4.674   7.064   4.896  0.5242  0.8044  0.0996
 4247SOL    HW223671   4.669   7.190   4.792 -1.2867  0.7149  0.0683
 4248SOL     OW23672   3.443   1.328   1.556 -0.7234 -0.3884  0.1229
 4248SOL    HW123673   3.393   1.414   1.541 -2.8761 -1.9280 -1.9907
 4248SOL    HW223674   3.378   1.256   1.579  0.9654 -1.6787  0.8979
 4249SOL     OW23675   0.843   9.195   0.959  0.0802  0.1780  0.1329
 4249SOL    HW123676   0.841   9.285   0.915  0.6564  0.3109  0.3845
 4249SOL    HW223677   0.869   9.126   0.891 -0.6231  0.1575 -0.1253
 4250SOL     OW23678   1.571   4.265   1.275  0.1159 -0.3099  0.6561
 4250SOL    HW123679   1.543   4.345   1.329  2.1724 -0.4520  2.0113
 4250SOL    HW223680   1.670   4.255   1.281  0.1169 -1.6913 -1.3169
 4251SOL     OW23681   2.136   6.054   1.695 -0.5018  0.6122  0.4688
 4251SOL    HW123682   2.088   6.131   1.654 -1.7455 -0.3536  0.0934
 4251SOL    HW223683   2.179   5.999   1.623  1.1074  1.4023  0.7868
 4252SOL     OW23684   3.241   2.576   1.978  0.2426  0.2759  0.0698
 4252SOL    HW123685   3.186   2.493   1.988  1.9453 -0.7725  1.0210
 4252SOL    HW223686   3.300   2.566   1.897  2.6885 -0.8144  1.9081
 4253SOL     OW23687   8.714   1.766   1.933 -0.1120  0.5589 -0.2104
 4253SOL    HW123688   8.754   1.710   2.005 -0.7006  0.2265 -0.1399
 4253SOL    HW223689   8.629   1.808   1.966  0.8915  2.3898  0.1119
 4254SOL     OW23690   1.788   8.934   0.892 -0.1698 -0.4412 -0.0508
 4254SOL    HW123691   1.699   8.978   0.877  1.1516  1.7486 -1.8046
 4254SOL    HW223692   1.819   8.892   0.807  0.2280 -1.6736  0.7016
 4255SOL     OW23693   9.567   2.552   5.324  0.0187 -0.4385 -0.0939
 4255SOL    HW123694   9.655   2.588   5.293  0.0992 -0.4007  0.1697
 4255SOL    HW223695   9.531   2.611   5.396  0.4587 -1.2344  0.7945
 4256SOL     OW23696   2.658   6.611   5.471 -0.2685  0.1685  0.5865
 4256SOL    HW123697   2.563   6.641   5.480 -0.1613  0.4753  0.7050
 4256SOL    HW223698   2.709   6.638   5.552 -0.2286 -0.5642  0.8076
 4257SOL     OW23699   7.961   0.883   0.337  0.2648  0.3268 -0.4711
 4257SOL    HW123700   8.055   0.887   0.303  0.0845 -1.3053 -1.1781
 4257SOL    HW223701   7.946   0.796   0.384 -1.1138  0.2683 -1.0170
 4258SOL     OW23702   1.721   2.072   1.241 -0.2732 -0.4724 -0.3895
 4258SOL    HW123703   1.659   2.132   1.292 -0.5051 -1.0027 -0.0435
 4258SOL    HW223704   1.782   2.026   1.306  0.6557  0.2499 -0.7509
 4259SOL     OW23705   2.037   2.540   1.040  0.0316 -0.6259 -0.0885
 4259SOL    HW123706   2.044   2.553   1.139  0.7859 -1.3653 -0.0435
 4259SOL    HW223707   1.984   2.457   1.021 -0.1255 -0.4774 -0.3109
 4260SOL     OW23708   1.234   7.287   2.547  0.3213  0.3216 -0.1220
 4260SOL    HW123709   1.146   7.316   2.584  1.6005  0.3445  3.0014
 4260SOL    HW223710   1.228   7.283   2.447 -2.8762  1.3790 -0.0246
 4261SOL     OW23711   4.016   4.849   2.888  0.7110  0.4987  0.3065
 4261SOL    HW123712   4.052   4.937   2.919  0.7195  1.0619 -1.2731
 4261SOL    HW223713   4.030   4.839   2.790 -0.0396 -0.9154  0.3188
 4262SOL     OW23714   0.315   6.115   3.487 -0.0482 -0.6687 -0.0299
 4262SOL    HW123715   0.356   6.059   3.559 -1.2406 -0.8723  0.5001
 4262SOL    HW223716   0.376   6.118   3.408  1.0191 -0.9060  0.7714
 4263SOL     OW23717   8.620   4.812   5.260 -0.2991 -0.0827 -0.1707
 4263SOL    HW123718   8.600   4.766   5.347 -0.5668 -0.4333 -0.4196
 4263SOL    HW223719   8.576   4.763   5.185 -0.2606  0.3557 -0.4812
 4264SOL     OW23720   6.215   0.521   4.290 -0.1785  0.3019 -0.7387
 4264SOL    HW123721   6.301   0.532   4.340 -1.5883  0.5557  1.7071
 4264SOL    HW223722   6.183   0.610   4.258  0.4314  0.2079 -1.6485
 4265SOL     OW23723   6.389   4.902   0.383 -0.0581  0.0415  0.5206
 4265SOL    HW123724   6.441   4.982   0.355 -0.6423  0.6919  1.2690
 4265SOL    HW223725   6.447   4.841   0.438  0.5418 -0.3288 -0.4997
 4266SOL     OW23726   9.850   1.980   4.587 -0.0717  0.8735  0.0553
 4266SOL    HW123727   9.806   1.919   4.521 -2.7073  1.0054  1.5946
 4266SOL    HW223728   9.948   1.960   4.591 -0.1023 -0.0574 -2.8499
 4267SOL     OW23729   1.653   5.757   3.730  0.1981 -0.0158  0.1154
 4267SOL    HW123730   1.744   5.724   3.755  0.7199  2.6761  2.0159
 4267SOL    HW223731   1.588   5.733   3.801 -0.1971 -0.3069 -0.3414
 4268SOL     OW23732   6.039   8.763   3.720 -0.3435 -0.4294  0.6657
 4268SOL    HW123733   5.982   8.815   3.657  0.2278  0.2986  0.7466
 4268SOL    HW223734   6.000   8.769   3.812 -0.0162  0.2514  0.7616
 4269SOL     OW23735   1.906   5.484   6.466  0.1068 -0.0362 -0.3393
 4269SOL    HW123736   1.809   5.499   6.445 -0.3795 -0.9304  1.1825
 4269SOL    HW223737   1.949   5.572   6.488 -0.5237  0.2825 -0.3651
 4270SOL     OW23738   5.051   6.576   1.590  0.3591 -0.9532  0.2243
 4270SOL    HW123739   5.060   6.646   1.519  0.5485 -1.0599  0.1420
 4270SOL    HW223740   5.080   6.487   1.553  2.7019 -0.6054  1.1105
 4271SOL     OW23741   9.765   1.698   2.307  0.3541  0.4630 -0.0532
 4271SOL    HW123742   9.693   1.628   2.302  1.7971 -1.0661  0.0853
 4271SOL    HW223743   9.828   1.676   2.382  0.5595  2.2005  0.3091
 4272SOL     OW23744   1.204   8.162   4.399 -0.0334  0.0019  0.0417
 4272SOL    HW123745   1.214   8.197   4.492 -3.5829 -1.4289  1.0956
 4272SOL    HW223746   1.217   8.063   4.399  0.2537  0.0306 -1.0396
 4273SOL     OW23747   6.890   0.467   4.351 -0.1329  0.2328  0.1097
 4273SOL    HW123748   6.850   0.511   4.271  2.4766 -1.1389 -2.0492
 4273SOL    HW223749   6.858   0.373   4.358  1.0674 -0.2175 -0.3998
 4274SOL     OW23750   9.792   6.607   6.535 -0.1694  0.4992 -0.1194
 4274SOL    HW123751   9.883   6.597   6.495  0.5676  0.1764  1.5895
 4274SOL    HW223752   9.761   6.701   6.525  0.9006  0.9184  0.4200
 4275SOL     OW23753   3.244   4.854   0.843 -0.4713 -0.2986  0.0474
 4275SOL    HW123754   3.191   4.935   0.818 -1.1851 -1.1143 -1.1519
 4275SOL    HW223755   3.336   4.881   0.871  0.1129  0.7600 -2.6883
 4276SOL     OW23756   5.646   0.239   1.574 -0.5207 -0.1793 -1.1326
 4276SOL    HW123757   5.709   0.310   1.541  1.5972 -2.2502 -1.6819
 4276SOL    HW223758   5.697   0.173   1.630 -2.4463 -1.2989 -0.6617
 4277SOL     OW23759   2.677   5.078   3.058 -0.8955  0.1442  0.0321
 4277SOL    HW123760   2.604   5.146   3.063 -1.9647 -0.8799 -1.1303
 4277SOL    HW223761   2.643   4.991   3.094  0.4426  0.2000  1.4833
 4278SOL     OW23762   2.205   3.060   3.111  0.0023 -0.3037 -0.6987
 4278SOL    HW123763   2.182   2.972   3.068  0.1326 -0.0029 -1.4003
 4278SOL    HW223764   2.257   3.044   3.195 -0.5233 -0.9143 -0.4893
 4279SOL     OW23765   7.238   7.899   4.501  0.4101 -0.0424 -0.0057
 4279SOL    HW123766   7.167   7.931   4.438 -0.4087 -0.9241  0.4545
 4279SOL    HW223767   7.219   7.933   4.593 -0.6650 -2.1011  0.5597
 4280SOL     OW23768   7.142   9.252   1.387  0.0288  0.3661  0.1405
 4280SOL    HW123769   7.230   9.299   1.377 -0.0206  0.2647 -0.8147
 4280SOL    HW223770   7.077   9.314   1.432  0.3012  0.7879 -0.0416
 4281SOL     OW23771   3.358   8.704   1.732  0.3384  0.1139  0.2883
 4281SOL    HW123772   3.455   8.680   1.733  0.1799 -0.5686  1.8135
 4281SOL    HW223773   3.346   8.796   1.769  0.1486 -1.0323  3.2205
 4282SOL     OW23774   3.033   5.639   3.723  0.4091 -0.8855  0.0002
 4282SOL    HW123775   2.957   5.703   3.734  2.5492  1.7251  0.1868
 4282SOL    HW223776   3.038   5.608   3.628 -2.0395 -2.6402  0.4102
 4283SOL     OW23777   4.750   3.664   3.515 -0.0007  0.0743 -0.2752
 4283SOL    HW123778   4.849   3.660   3.518  0.0245 -0.0551 -1.0705
 4283SOL    HW223779   4.720   3.759   3.508  0.0927  0.0783 -0.6386
 4284SOL     OW23780   4.513   9.090   3.944 -0.2885 -0.1722 -0.7615
 4284SOL    HW123781   4.554   9.119   3.858  0.5039 -0.6901 -0.5647
 4284SOL    HW223782   4.472   8.999   3.932  0.5967 -0.6307 -0.3651
 4285SOL     OW23783   1.329   4.985   1.505 -0.2557 -0.5700  0.1940
 4285SOL    HW123784   1.246   4.929   1.509 -0.5949 -0.0432  0.6548
 4285SOL    HW223785   1.365   4.984   1.412 -2.5551  1.7116 -0.7818
 4286SOL     OW23786   9.501   3.094   2.982 -0.3346  0.3223  0.0694
 4286SOL    HW123787   9.452   3.152   2.916 -0.6581 -0.9646 -0.8538
 4286SOL    HW223788   9.600   3.101   2.966 -0.3836  0.4929 -0.1541
 4287SOL     OW23789   3.581   2.586   3.909 -0.6251  0.1012 -0.0638
 4287SOL    HW123790   3.542   2.672   3.878  0.7280  0.4676 -0.8005
 4287SOL    HW223791   3.568   2.515   3.839 -1.9808 -0.3784  0.6565
 4288SOL     OW23792   1.010   9.138   2.725  0.6765  0.5766 -0.2297
 4288SOL    HW123793   1.081   9.130   2.795  0.2281  1.6947  0.3591
 4288SOL    HW223794   1.047   9.186   2.645  0.3422  1.9558  0.4293
 4289SOL     OW23795   9.040   0.412   0.639 -0.6284 -0.4131 -0.4048
 4289SOL    HW123796   9.009   0.333   0.586  2.0122 -1.5044 -0.3721
 4289SOL    HW223797   9.046   0.492   0.579  0.6600 -1.2316 -1.4006
 4290SOL     OW23798   4.550   5.764   2.614 -0.2576  0.7665  0.4781
 4290SOL    HW123799   4.540   5.800   2.707  0.4580  1.3554  0.3304
 4290SOL    HW223800   4.529   5.667   2.614 -1.6745  1.0660  0.9896
 4291SOL     OW23801   1.943   4.104   3.029  0.0016 -0.3382  0.0472
 4291SOL    HW123802   2.036   4.082   3.057 -0.3870 -1.6299  0.3825
 4291SOL    HW223803   1.916   4.044   2.953  0.7796  2.6202 -2.6507
 4292SOL     OW23804   1.259   5.417   4.321  0.1344  0.1485  0.3489
 4292SOL    HW123805   1.286   5.405   4.226  0.9262 -1.8120  0.7837
 4292SOL    HW223806   1.341   5.427   4.378 -0.2455 -0.6673  1.0518
 4293SOL     OW23807   2.181   2.364   4.384  0.0354  0.5579 -0.1733
 4293SOL    HW123808   2.245   2.436   4.358 -0.2159  0.6010 -0.6777
 4293SOL    HW223809   2.093   2.404   4.411  0.2200  0.5001  0.5344
 4294SOL     OW23810   9.815   3.731   6.561  0.0617  0.3586 -0.1397
 4294SOL    HW123811   9.726   3.768   6.589  0.2870 -0.1446  1.2561
 4294SOL    HW223812   9.806   3.691   6.470 -1.4591 -0.7720  0.4802
 4295SOL     OW23813   1.337   5.487   0.546 -0.3428  0.2506 -0.1129
 4295SOL    HW123814   1.257   5.444   0.504 -0.0883 -0.4583  0.1316
 4295SOL    HW223815   1.377   5.552   0.482 -0.0262 -0.7450 -0.9253
 4296SOL     OW23816   8.160   8.309   4.051  0.2984  0.3676 -0.1610
 4296SOL    HW123817   8.065   8.298   4.083  0.5414 -1.0140  0.1201
 4296SOL    HW223818   8.205   8.220   4.051  1.7712  1.0986  0.2318
 4297SOL     OW23819   2.581   0.203   1.709 -0.0200  0.1526 -0.3958
 4297SOL    HW123820   2.528   0.207   1.624 -1.3543  1.6301  0.4725
 4297SOL    HW223821   2.519   0.185   1.786  1.0839 -0.5080  0.3499
 4298SOL     OW23822   4.578   1.350   1.434  0.2470 -0.3479  0.1857
 4298SOL    HW123823   4.668   1.309   1.417  1.2725  1.3081  1.4284
 4298SOL    HW223824   4.580   1.446   1.405 -0.4811  0.2584  2.0894
 4299SOL     OW23825   6.554   0.769   2.018 -0.0060 -0.0814 -0.0997
 4299SOL    HW123826   6.603   0.841   2.068 -1.0451  0.1647  0.5947
 4299SOL    HW223827   6.586   0.679   2.048  1.2798  0.0897 -0.9496
 4300SOL     OW23828   0.157   5.915   5.674 -0.5274 -0.4441 -0.1456
 4300SOL    HW123829   0.118   5.894   5.584 -0.4082 -0.8370 -0.1076
 4300SOL    HW223830   0.234   5.977   5.663 -1.2088  0.3914 -0.2161
 4301SOL     OW23831   1.621   3.459   1.786 -0.2042 -0.2829 -0.5052
 4301SOL    HW123832   1.598   3.394   1.713  0.1925 -0.8697 -0.1132
 4301SOL    HW223833   1.704   3.509   1.760  0.0212 -0.5979 -0.3827
 4302SOL     OW23834   4.259   4.268   4.659  0.3723  0.1752  0.1948
 4302SOL    HW123835   4.188   4.200   4.638  2.7672 -1.8074 -1.7157
 4302SOL    HW223836   4.291   4.310   4.575  2.3344  0.1256  0.8854
 4303SOL     OW23837   4.105   0.948   4.485 -0.3060 -0.2067 -0.0466
 4303SOL    HW123838   4.080   1.045   4.497 -1.3172 -0.3120 -1.2194
 4303SOL    HW223839   4.149   0.936   4.396 -0.2411 -0.8441  0.0695
 4304SOL     OW23840   3.220   5.572   6.157 -0.5259 -0.4961 -0.0554
 4304SOL    HW123841   3.231   5.492   6.216 -0.1830  0.3880  1.1079
 4304SOL    HW223842   3.238   5.655   6.210 -0.6936  0.3455 -1.2911
 4305SOL     OW23843   0.923   8.901   2.139  0.0727 -0.0266  0.4142
 4305SOL    HW123844   0.829   8.902   2.105  0.4198 -0.0137 -0.5398
 4305SOL    HW223845   0.944   8.811   2.176 -0.5127  0.1506  1.2107
 4306SOL     OW23846   6.543   7.902   4.136 -0.0116 -0.1320 -0.5285
 4306SOL    HW123847   6.481   7.938   4.067  0.1797  0.2241 -0.5170
 4306SOL    HW223848   6.493   7.888   4.222 -0.5285 -1.7709 -1.1006
 4307SOL     OW23849   6.747   7.891   4.939  0.4570 -0.5816  0.2763
 4307SOL    HW123850   6.758   7.805   4.989  1.7563 -1.4648 -1.4496
 4307SOL    HW223851   6.835   7.937   4.933 -0.3481  1.2157  1.7310
 4308SOL     OW23852   9.221   7.099   2.179 -0.0591  0.0658 -0.2853
 4308SOL    HW123853   9.173   7.150   2.251 -0.5951  0.3723 -0.8523
 4308SOL    HW223854   9.154   7.062   2.114  0.3807 -0.7355 -0.2905
 4309SOL     OW23855   8.883   1.602   2.055  0.1258  0.3902 -0.0956
 4309SOL    HW123856   8.939   1.591   1.973 -0.2630 -2.9783  0.0014
 4309SOL    HW223857   8.942   1.591   2.136 -0.1562 -0.3517  0.0176
 4310SOL     OW23858   3.546   7.529   2.082 -0.1269  0.1901 -0.3502
 4310SOL    HW123859   3.538   7.435   2.116 -0.2638 -0.6093 -2.5013
 4310SOL    HW223860   3.455   7.572   2.080 -0.1392  0.1939  0.1042
 4311SOL     OW23861   5.137   7.849   4.954 -0.2857 -0.2594 -0.3081
 4311SOL    HW123862   5.057   7.835   4.895 -0.8286  1.0443  0.0991
 4311SOL    HW223863   5.176   7.939   4.937  0.8628 -0.7264 -0.2034
 4312SOL     OW23864   1.785   9.607   3.227 -0.2883 -0.1288  0.1033
 4312SOL    HW123865   1.686   9.594   3.229 -0.2959  0.0265  1.3559
 4312SOL    HW223866   1.807   9.691   3.176 -0.7928 -0.1984 -0.2307
 4313SOL     OW23867   9.621   6.576   1.193 -0.4522 -0.4318 -0.0170
 4313SOL    HW123868   9.608   6.484   1.157  3.0542 -0.4970 -1.2089
 4313SOL    HW223869   9.642   6.639   1.119  0.4274  0.6964  1.1639
 4314SOL     OW23870   2.615   7.890   3.981  0.6639 -0.2861 -0.5027
 4314SOL    HW123871   2.529   7.903   3.931 -0.4737 -3.3238  0.5389
 4314SOL    HW223872   2.594   7.857   4.073  2.9920 -2.0032 -0.5688
 4315SOL     OW23873   2.872   3.346   3.292  0.0583 -0.9168 -0.4574
 4315SOL    HW123874   2.912   3.347   3.200 -0.1967 -0.9062 -0.5693
 4315SOL    HW223875   2.824   3.432   3.308  0.1280 -0.9069 -0.3026
 4316SOL     OW23876   2.799   6.985   3.181 -0.1594  0.2920 -0.4736
 4316SOL    HW123877   2.854   6.908   3.148 -2.1343 -1.2127 -0.3455
 4316SOL    HW223878   2.713   6.988   3.130 -0.2854  2.1594 -0.1580
 4317SOL     OW23879   1.971   9.648   1.910  0.5188 -0.6322 -0.2992
 4317SOL    HW123880   2.020   9.686   1.831  2.7692  1.1618  1.8749
 4317SOL    HW223881   2.030   9.585   1.960 -0.5605 -1.0354  0.5085
 4318SOL     OW23882   9.752   0.515   1.473  0.2282 -0.5001 -0.2150
 4318SOL    HW123883   9.683   0.535   1.404  0.3616 -1.3789 -0.6017
 4318SOL    HW223884   9.735   0.425   1.513 -1.0411  0.8108  2.3384
 4319SOL     OW23885   7.564   2.015   1.780  0.1546  0.5615  0.3341
 4319SOL    HW123886   7.525   1.960   1.706  0.8441  0.3962  0.0920
 4319SOL    HW223887   7.596   1.954   1.853 -3.2619  0.8088  2.1706
 4320SOL     OW23888   1.790   4.579   2.950 -0.2117  0.6673  0.1849
 4320SOL    HW123889   1.783   4.606   2.854  0.5429 -0.0031 -0.0589
 4320SOL    HW223890   1.797   4.480   2.956  0.3002  0.7462  0.9074
 4321SOL     OW23891   7.588   8.742   2.166 -1.0758  0.3059 -0.6282
 4321SOL    HW123892   7.631   8.809   2.104  1.3018  0.0582  0.7054
 4321SOL    HW223893   7.549   8.668   2.112  0.0726  0.6064 -1.9099
 4322SOL     OW23894   0.471   9.585   2.934 -0.0870 -0.1295  0.0258
 4322SOL    HW123895   0.387   9.639   2.928 -0.1646 -0.1567  0.8771
 4322SOL    HW223896   0.520   9.607   3.018  1.8756  1.4828 -1.4712
 4323SOL     OW23897   7.829   9.534   3.188 -0.2638 -0.0183  0.0662
 4323SOL    HW123898   7.839   9.588   3.104  3.1229 -2.0501 -0.9225
 4323SOL    HW223899   7.891   9.568   3.258  0.6495 -1.5030  0.0065
 4324SOL     OW23900   8.168   0.552   4.188 -0.3546 -0.0268 -0.0186
 4324SOL    HW123901   8.183   0.507   4.100 -1.4988 -0.4029 -0.0215
 4324SOL    HW223902   8.131   0.487   4.254 -1.1122  0.6692  0.2550
 4325SOL     OW23903   3.279   6.448   1.523 -0.5222  0.2033  0.4183
 4325SOL    HW123904   3.356   6.427   1.583  0.3664 -0.5849 -0.9674
 4325SOL    HW223905   3.194   6.448   1.577  0.1606 -1.2531  1.5435
 4326SOL     OW23906   3.903   0.731   4.593  0.2504  0.6042  0.2225
 4326SOL    HW123907   3.962   0.802   4.556 -0.4616  0.4229 -1.3394
 4326SOL    HW223908   3.814   0.770   4.616  0.5506  0.6297  1.3881
 4327SOL     OW23909   4.318   3.723   4.301 -0.0279 -0.1651  0.3917
 4327SOL    HW123910   4.409   3.757   4.276 -0.2511 -0.3562 -0.6914
 4327SOL    HW223911   4.262   3.800   4.334  0.9694 -0.2741  2.4596
 4328SOL     OW23912   8.761   7.195   0.893 -0.0036  0.1411 -0.5953
 4328SOL    HW123913   8.682   7.136   0.875  0.8569 -1.7905  1.6845
 4328SOL    HW223914   8.730   7.287   0.915 -1.7092 -0.8703  1.3655
 4329SOL     OW23915   5.598   8.321   5.013 -0.0176  0.6085  0.3355
 4329SOL    HW123916   5.672   8.293   4.953  0.6521  0.8281  1.0502
 4329SOL    HW223917   5.552   8.402   4.976 -0.9408 -0.4662 -0.9259
 4330SOL     OW23918   7.523   8.764   3.899 -0.8394 -0.9000  0.0904
 4330SOL    HW123919   7.452   8.694   3.907  2.4284 -4.4805 -0.5965
 4330SOL    HW223920   7.587   8.756   3.976 -0.1601  1.0403 -0.2424
 4331SOL     OW23921   9.969   0.638   4.659  0.1194 -0.1439  0.3229
 4331SOL    HW123922  10.021   0.696   4.721  0.2171 -0.1294  0.2264
 4331SOL    HW223923  10.027   0.563   4.627  0.7166  1.0518 -1.4345
 4332SOL     OW23924   2.050   4.145   5.315  0.0898  0.3933 -0.3737
 4332SOL    HW123925   2.087   4.054   5.296  0.3053  0.4463 -0.2066
 4332SOL    HW223926   2.102   4.187   5.389  0.6597  1.0827 -1.1582
 4333SOL     OW23927   1.488   2.025   4.668  0.4574 -0.1064 -0.1711
 4333SOL    HW123928   1.568   2.054   4.721 -0.1066  1.1146  0.0215
 4333SOL    HW223929   1.480   2.082   4.587 -0.3876 -0.0341 -0.0371
 4334SOL     OW23930   3.357   9.047   1.499 -0.1824  0.2939 -0.3442
 4334SOL    HW123931   3.274   9.094   1.531 -1.2103 -2.2876  0.9507
 4334SOL    HW223932   3.421   9.036   1.575  0.5083  0.5371 -0.8862
 4335SOL     OW23933   4.335   6.392   2.105 -0.3478  0.7441 -0.0322
 4335SOL    HW123934   4.360   6.336   2.184 -2.3285 -0.4246 -0.1958
 4335SOL    HW223935   4.418   6.423   2.059  0.8158 -2.4465 -0.1976
 4336SOL     OW23936   2.991   2.694   3.374  0.3105 -0.1934 -0.0544
 4336SOL    HW123937   2.903   2.666   3.336  0.2101  0.0560 -0.0060
 4336SOL    HW223938   3.021   2.626   3.442  0.3481 -0.4840 -0.3580
 4337SOL     OW23939   7.123   8.827   5.037 -0.3349  0.6543  0.4203
 4337SOL    HW123940   7.155   8.921   5.036  2.4631 -0.2367  0.9889
 4337SOL    HW223941   7.179   8.773   5.100 -0.7448 -1.7775 -1.2016
 4338SOL     OW23942   1.708   2.926   4.262 -0.0769 -0.1568 -0.1167
 4338SOL    HW123943   1.612   2.903   4.243 -0.3151 -0.0486  0.9692
 4338SOL    HW223944   1.714   2.984   4.342  0.9947 -1.1515  0.5460
 4339SOL     OW23945   9.573   9.705   2.667  0.4716  0.6251  0.3085
 4339SOL    HW123946   9.589   9.633   2.599  0.9421  2.3693 -1.5001
 4339SOL    HW223947   9.486   9.751   2.647 -0.8786 -0.7906  2.7210
 4340SOL     OW23948   2.929   5.746   1.089 -0.0171 -0.0655  0.0395
 4340SOL    HW123949   2.868   5.813   1.047  0.9707  0.9057  0.1256
 4340SOL    HW223950   2.977   5.694   1.018  1.0304  1.0041 -0.0557
 4341SOL     OW23951   8.158   8.871   2.178  0.3592 -0.4713 -0.3700
 4341SOL    HW123952   8.162   8.809   2.100  2.1617 -0.7056 -0.1272
 4341SOL    HW223953   8.178   8.964   2.148  0.2570 -0.4314 -0.3155
 4342SOL     OW23954   3.280   8.357   0.827  0.2045  0.3474  0.0872
 4342SOL    HW123955   3.361   8.400   0.786  0.0352 -0.8591 -1.5662
 4342SOL    HW223956   3.310   8.290   0.895  0.6503 -0.7609 -1.1765
 4343SOL     OW23957   1.167   5.383   3.167  0.1244 -0.2981  0.2348
 4343SOL    HW123958   1.215   5.464   3.132 -0.7201 -0.2201 -0.7817
 4343SOL    HW223959   1.115   5.407   3.249 -0.7578  0.3857 -0.5126
 4344SOL     OW23960   0.233   8.549   1.713 -0.0205 -0.4112 -0.3174
 4344SOL    HW123961   0.249   8.525   1.617  1.1648  1.4005 -0.5935
 4344SOL    HW223962   0.167   8.624   1.718  1.4824  0.9125  0.1408
 4345SOL     OW23963   4.848   0.805   1.863 -0.0153 -0.3863 -0.0547
 4345SOL    HW123964   4.842   0.770   1.769  0.1285 -1.0387  0.1772
 4345SOL    HW223965   4.937   0.850   1.876 -0.7960  1.4711 -0.8205
 4346SOL     OW23966   8.877   1.275   1.560 -0.0584  0.1843  0.4380
 4346SOL    HW123967   8.942   1.324   1.502 -0.7322  0.4714 -0.0828
 4346SOL    HW223968   8.911   1.272   1.654  1.0690 -0.3485  0.0112
 4347SOL     OW23969   3.592   0.185   3.175  0.6609 -0.2128 -0.2985
 4347SOL    HW123970   3.548   0.215   3.259 -0.1967 -0.0368 -0.8053
 4347SOL    HW223971   3.526   0.138   3.117  0.2171  3.0514 -2.5725
 4348SOL     OW23972   3.560   6.121   3.704 -0.0287  0.1302  0.3181
 4348SOL    HW123973   3.533   6.025   3.710  0.8765 -0.0878  1.1173
 4348SOL    HW223974   3.659   6.128   3.698 -0.1766  0.9641 -1.3430
 4349SOL     OW23975   8.226   9.571   1.572 -0.3564  0.3394  0.1863
 4349SOL    HW123976   8.224   9.537   1.666  1.1205  1.6688  0.7305
 4349SOL    HW223977   8.318   9.557   1.534 -0.8272  0.2062 -0.9011
 4350SOL     OW23978   9.344   4.524   0.754 -0.2517 -0.7837  0.1014
 4350SOL    HW123979   9.382   4.436   0.784  1.2351  0.0135  0.5772
 4350SOL    HW223980   9.355   4.592   0.826 -1.8779 -0.3181 -0.0701
 4351SOL     OW23981   6.569   1.103   4.312 -0.1908  0.0795  0.0160
 4351SOL    HW123982   6.575   1.049   4.229  0.8395 -0.9735  0.7669
 4351SOL    HW223983   6.482   1.152   4.314 -0.8966 -1.1242 -0.9217
 4352SOL     OW23984   8.172   7.489   4.312 -0.1913 -0.1368 -0.5373
 4352SOL    HW123985   8.213   7.519   4.226  0.3728  2.1297  0.4695
 4352SOL    HW223986   8.238   7.501   4.386 -1.6057  0.5751  0.6329
 4353SOL     OW23987   6.459   9.551   3.202 -0.5389  0.1502 -0.4587
 4353SOL    HW123988   6.481   9.624   3.266 -0.7363  0.0183 -0.2377
 4353SOL    HW223989   6.539   9.493   3.189 -1.2550 -1.3959  1.7575
 4354SOL     OW23990   4.198   3.802   3.406 -0.5005 -0.0534  0.3156
 4354SOL    HW123991   4.159   3.893   3.391 -0.1467 -0.0848 -0.8233
 4354SOL    HW223992   4.173   3.742   3.330  1.4208 -0.1854 -0.2256
 4355SOL     OW23993   2.386   3.656   4.878  0.3254  0.5944  0.0184
 4355SOL    HW123994   2.399   3.560   4.854 -1.4631  0.4408 -0.4372
 4355SOL    HW223995   2.449   3.713   4.825  0.4236 -0.2198 -0.7388
 4356SOL     OW23996   7.555   9.405   0.720  0.1294 -0.3708 -0.6232
 4356SOL    HW123997   7.607   9.468   0.777 -0.7544  0.1451 -0.3747
 4356SOL    HW223998   7.551   9.441   0.626  0.4096 -0.5219 -0.6927
 4357SOL     OW23999   4.040   8.784   2.496  0.5047 -0.2034  0.0941
 4357SOL    HW124000   3.986   8.700   2.487 -1.9890  1.1522  1.8520
 4357SOL    HW224001   4.043   8.832   2.408 -2.1286  0.2494  0.2078
 4358SOL     OW24002   6.289   9.652   4.415 -0.0966 -0.2181  0.2380
 4358SOL    HW124003   6.199   9.696   4.410 -0.8211 -1.7289 -0.6532
 4358SOL    HW224004   6.324   9.657   4.509 -0.3274  1.8761  0.2252
 4359SOL     OW24005   1.271   2.682   3.160  0.1450  0.4198  0.2136
 4359SOL    HW124006   1.181   2.652   3.191 -0.2891  1.6178  0.1581
 4359SOL    HW224007   1.322   2.604   3.124 -1.4786 -0.0198 -1.2417
 4360SOL     OW24008   8.262   4.489   0.537 -0.1130 -0.4387  0.6501
 4360SOL    HW124009   8.263   4.403   0.487  1.7633 -0.3086  0.4268
 4360SOL    HW224010   8.235   4.563   0.476 -3.3029 -1.0479  1.2225
 4361SOL     OW24011   8.319   2.551   4.945 -0.3976  0.3552 -0.0843
 4361SOL    HW124012   8.301   2.560   5.043  1.2614  1.6392  0.1265
 4361SOL    HW224013   8.369   2.466   4.928  0.8586  0.9736  0.4273
 4362SOL     OW24014   0.232   5.821   4.855 -0.2410  0.1976  0.5403
 4362SOL    HW124015   0.209   5.900   4.798 -0.6008 -0.1604  0.1885
 4362SOL    HW224016   0.245   5.741   4.797  1.4674  0.2920  0.7633
 4363SOL     OW24017   2.466   5.050   2.468  0.3365 -0.0961 -0.0293
 4363SOL    HW124018   2.382   4.998   2.456  1.9925 -3.0875  0.6105
 4363SOL    HW224019   2.490   5.052   2.565 -0.5118  3.3368  0.1811
 4364SOL     OW24020   2.022   7.233   4.928 -0.2991 -0.6117  0.0419
 4364SOL    HW124021   2.032   7.174   4.847 -1.6033  0.1579 -0.6838
 4364SOL    HW224022   1.999   7.326   4.899 -0.9861 -0.3766  1.3143
 4365SOL     OW24023   8.150   4.270   4.686  0.4663  0.7584 -0.5104
 4365SOL    HW124024   8.146   4.298   4.590 -0.0977 -2.5367 -1.5264
 4365SOL    HW224025   8.204   4.186   4.693  0.7281  1.1167  2.1074
 4366SOL     OW24026   1.873   7.228   0.455 -0.6807  0.0037  0.2223
 4366SOL    HW124027   1.887   7.148   0.396 -0.0182  0.6081 -0.4589
 4366SOL    HW224028   1.881   7.311   0.400 -0.9881  0.5496  0.9973
 4367SOL     OW24029   5.745   3.366   0.035  0.3800  0.6017 -0.1806
 4367SOL    HW124030   5.795   3.281   0.017  1.0294  0.9933 -0.2398
 4367SOL    HW224031   5.762   3.395   0.130  1.2633  1.3932 -0.5728
 4368SOL     OW24032   4.811   3.336   1.089 -0.0647  0.1650  0.0730
 4368SOL    HW124033   4.905   3.333   1.122  0.2924 -2.7418 -1.0645
 4368SOL    HW224034   4.749   3.351   1.166  1.2862  2.3633  0.7969
 4369SOL     OW24035   9.315   8.593   1.666 -0.3252 -0.0281 -0.0049
 4369SOL    HW124036   9.299   8.691   1.663 -0.2847  0.0225  1.2014
 4369SOL    HW224037   9.398   8.571   1.613 -0.0389  0.6458  0.1555
 4370SOL     OW24038   3.700   2.390   4.597 -0.0044 -0.0618  0.1200
 4370SOL    HW124039   3.681   2.292   4.608 -3.1637  0.4034 -0.7139
 4370SOL    HW224040   3.748   2.405   4.511 -1.1462 -0.7112 -0.6448
 4371SOL     OW24041   8.187   6.541   4.066  0.2115  0.0156  0.3568
 4371SOL    HW124042   8.124   6.473   4.104  0.5563  0.1550  1.2054
 4371SOL    HW224043   8.247   6.574   4.139  1.4416 -0.3110 -0.5062
 4372SOL     OW24044   1.647   1.737   3.135  0.1069 -0.0421 -0.4572
 4372SOL    HW124045   1.703   1.721   3.055  0.3094  1.9195 -0.7370
 4372SOL    HW224046   1.571   1.797   3.111  0.5897  1.1807  0.9691
 4373SOL     OW24047   5.848   1.140   0.602 -0.2640  0.0694  0.3793
 4373SOL    HW124048   5.877   1.144   0.507  2.6601  2.4405  1.3005
 4373SOL    HW224049   5.912   1.084   0.654 -1.9113 -1.3140  0.9594
 4374SOL     OW24050   9.048   3.075   4.910  0.1713 -0.7577 -0.6758
 4374SOL    HW124051   9.015   3.000   4.853  1.1574 -0.8193 -1.1810
 4374SOL    HW224052   9.140   3.053   4.944 -0.2571 -0.5569  0.6311
 4375SOL     OW24053   7.846   2.302   6.651  0.7364 -0.2362 -0.4888
 4375SOL    HW124054   7.918   2.306   6.721 -0.5008  0.2156  0.7740
 4375SOL    HW224055   7.873   2.238   6.580  1.8516 -0.9836  0.5860
 4376SOL     OW24056   2.409   9.148   3.164  0.6847  0.0767 -0.3283
 4376SOL    HW124057   2.508   9.135   3.165  0.4457 -2.0067 -0.1411
 4376SOL    HW224058   2.365   9.063   3.192 -1.0759  1.8427  2.5248
 4377SOL     OW24059   7.910   8.290   3.367  0.2486 -0.7495 -0.2328
 4377SOL    HW124060   7.818   8.296   3.406  0.4249  1.5736 -0.1207
 4377SOL    HW224061   7.906   8.306   3.268  0.7909  1.9091  0.1357
 4378SOL     OW24062   2.785   4.650   3.872  0.0742 -0.0348 -0.1891
 4378SOL    HW124063   2.858   4.605   3.819 -1.4588 -0.9437 -1.5692
 4378SOL    HW224064   2.766   4.596   3.954  1.0574  0.2870  0.2562
 4379SOL     OW24065   4.319   9.642   1.054 -0.3756  0.6950 -0.1475
 4379SOL    HW124066   4.247   9.605   0.996  0.0399 -1.1442  0.4736
 4379SOL    HW224067   4.337   9.737   1.028 -0.5251  0.0693 -2.7080
 4380SOL     OW24068   6.870   0.995   4.015 -0.8952 -0.0972  0.5919
 4380SOL    HW124069   6.940   0.932   4.048  0.6957  1.7796  0.9188
 4380SOL    HW224070   6.898   1.033   3.927 -1.3168  0.9380  0.8945
 4381SOL     OW24071   7.295   1.228   6.734 -0.3977 -0.2597  0.3161
 4381SOL    HW124072   7.324   1.152   6.675  0.9972 -0.8559  1.7390
 4381SOL    HW224073   7.201   1.213   6.765 -1.9399  1.0950 -3.3851
 4382SOL     OW24074   4.014   4.853   0.372 -0.3265 -0.1774 -0.0131
 4382SOL    HW124075   3.957   4.910   0.431  0.0965  1.7179 -1.3841
 4382SOL    HW224076   3.967   4.839   0.284  0.8016  0.4471 -0.7289
 4383SOL     OW24077   5.533   1.469   4.695 -0.0590  0.6184  0.2682
 4383SOL    HW124078   5.569   1.545   4.749  1.6471 -0.5039  0.7422
 4383SOL    HW224079   5.601   1.396   4.690 -1.0742 -0.2453 -1.4971
 4384SOL     OW24080   0.183   6.682   6.093 -0.4585 -0.2537 -0.1769
 4384SOL    HW124081   0.233   6.622   6.155  1.0107 -0.0009 -1.1147
 4384SOL    HW224082   0.174   6.639   6.004  0.6100  0.9061 -0.8623
 4385SOL     OW24083   9.130   6.516   5.032  0.0287  0.2473 -0.0773
 4385SOL    HW124084   9.113   6.475   5.122 -0.7980 -1.2550 -0.8871
 4385SOL    HW224085   9.229   6.524   5.018  0.1898 -0.5507  0.5278
 4386SOL     OW24086   4.227   2.249   3.300  0.4262 -0.1936  0.6504
 4386SOL    HW124087   4.178   2.169   3.265  0.4223 -0.4194  1.1724
 4386SOL    HW224088   4.312   2.219   3.345  0.5751  0.1192  0.5756
 4387SOL     OW24089   1.938   7.970   3.230  0.2951 -0.2581  0.3366
 4387SOL    HW124090   1.863   7.934   3.287  0.5719 -1.0982  0.1782
 4387SOL    HW224091   1.976   7.896   3.175  3.0459 -0.4442  2.3918
 4388SOL     OW24092   3.400   0.489   3.917  0.0787 -0.2076 -0.1905
 4388SOL    HW124093   3.435   0.414   3.861  1.2191 -0.6533  1.0928
 4388SOL    HW224094   3.474   0.525   3.974 -1.2863 -0.3885  1.7294
 4389SOL     OW24095   2.782   0.345   4.279 -0.4842 -0.0724  0.2243
 4389SOL    HW124096   2.818   0.438   4.269 -0.6139  0.2442  2.4392
 4389SOL    HW224097   2.830   0.284   4.217  1.7077  0.9364  0.8747
 4390SOL     OW24098   6.077   0.692   1.413  0.0884 -0.0267  0.1007
 4390SOL    HW124099   6.162   0.641   1.408  0.3939  0.7102 -3.9581
 4390SOL    HW224100   6.002   0.637   1.378  0.2037  1.7611 -3.1373
 4391SOL     OW24101   1.898   0.692   3.878  0.0954 -0.5442 -0.2725
 4391SOL    HW124102   1.873   0.768   3.819  0.9423  0.1786  0.2827
 4391SOL    HW224103   1.931   0.616   3.823 -0.0844 -0.2455 -0.7929
 4392SOL     OW24104   5.272   2.198   3.846  0.2746  0.0857 -0.2145
 4392SOL    HW124105   5.329   2.162   3.772 -0.0130  1.2786 -1.0323
 4392SOL    HW224106   5.176   2.179   3.825  0.0224  2.3844 -1.2731
 4393SOL     OW24107   0.315   4.770   3.739  0.4761  0.4170  0.4332
 4393SOL    HW124108   0.414   4.775   3.752  0.5867 -2.1646  0.7052
 4393SOL    HW224109   0.271   4.836   3.800  2.0378  2.1876 -0.2842
 4394SOL     OW24110   5.999   8.880   5.022 -0.3154  0.3247  0.0671
 4394SOL    HW124111   5.960   8.793   5.054  2.3826 -0.6365  0.8263
 4394SOL    HW224112   5.990   8.886   4.923 -1.8854 -0.1036  0.1647
 4395SOL     OW24113   9.220   0.315   4.578  0.1713  0.0415 -0.1293
 4395SOL    HW124114   9.248   0.319   4.483  0.8111  1.3688  0.1077
 4395SOL    HW224115   9.286   0.260   4.630  0.3043  0.0715 -0.2699
 4396SOL     OW24116   7.681   0.016   2.509  0.3590  0.3059 -0.0172
 4396SOL    HW124117   7.668   0.114   2.497  0.0826  0.1852 -0.7254
 4396SOL    HW224118   7.772  -0.001   2.547  0.0403  0.8927  1.0507
 4397SOL     OW24119   9.651   3.459   3.106 -0.7852  0.7959  0.2106
 4397SOL    HW124120   9.563   3.437   3.065 -0.4658 -2.0968  0.9560
 4397SOL    HW224121   9.647   3.439   3.204  0.0241  2.8231  0.6843
 4398SOL     OW24122   4.464   1.952   0.887  0.2912 -0.3360  0.7103
 4398SOL    HW124123   4.402   1.883   0.850 -0.4684  0.6959  0.0321
 4398SOL    HW224124   4.422   1.992   0.969 -0.5538  1.2929 -0.5015
 4399SOL     OW24125   1.482   9.532   4.304 -0.4244  0.3834  0.4093
 4399SOL    HW124126   1.559   9.468   4.315  0.0356  1.1455  1.7630
 4399SOL    HW224127   1.417   9.495   4.237  0.5068 -0.8514  0.1680
 4400SOL     OW24128   4.506   3.230   3.642 -0.0477 -0.3564  0.6290
 4400SOL    HW124129   4.431   3.221   3.708 -0.8996 -1.8303 -0.5210
 4400SOL    HW224130   4.515   3.326   3.616 -0.1412  0.1414  2.3642
 4401SOL     OW24131   0.047   6.441   2.117 -0.4189  0.5690  0.0347
 4401SOL    HW124132   0.086   6.484   2.198  1.4143  1.9933 -1.5843
 4401SOL    HW224133   0.005   6.354   2.144  0.2105  0.9719  2.4947
 4402SOL     OW24134   0.443   5.355   5.569  0.1768 -0.6223  0.5178
 4402SOL    HW124135   0.354   5.397   5.554  0.4036 -0.1054  0.5919
 4402SOL    HW224136   0.505   5.422   5.611  1.2808 -0.2637 -1.6211
 4403SOL     OW24137   2.134   4.925   1.656 -0.2742 -0.1511  0.2565
 4403SOL    HW124138   2.214   4.892   1.606 -0.3058 -1.0057  0.7580
 4403SOL    HW224139   2.117   5.020   1.632  0.5814 -0.1185 -0.2538
 4404SOL     OW24140   9.650   3.735   2.179  0.2200  0.2297  0.1610
 4404SOL    HW124141   9.645   3.797   2.257  0.9330  1.6764 -0.9398
 4404SOL    HW224142   9.562   3.735   2.131  0.8393  1.9468 -1.0129
 4405SOL     OW24143   0.335   4.435   2.029 -0.3444  0.3003 -0.4099
 4405SOL    HW124144   0.382   4.440   1.941 -0.1241 -0.5932 -0.3491
 4405SOL    HW224145   0.402   4.418   2.102 -0.4331  1.7664  0.0299
 4406SOL     OW24146   4.871   2.938   0.490 -0.6596  0.1306 -0.0530
 4406SOL    HW124147   4.901   2.990   0.569 -0.6692 -0.8583  0.6049
 4406SOL    HW224148   4.943   2.938   0.421 -0.1145 -0.1658  0.5178
 4407SOL     OW24149   5.582   9.168   2.106 -0.2606  0.4105 -0.0729
 4407SOL    HW124150   5.610   9.231   2.034  0.7877  0.5269  0.4264
 4407SOL    HW224151   5.483   9.172   2.117 -0.5881 -0.5310 -2.3493
 4408SOL     OW24152   3.544   7.764   1.739  0.2945 -0.0920  0.2651
 4408SOL    HW124153   3.599   7.831   1.788  1.9290 -0.9100 -0.4078
 4408SOL    HW224154   3.523   7.688   1.800 -1.1849  0.7985  0.8964
 4409SOL     OW24155   8.725   6.762   3.089 -0.9777 -0.5961  0.3243
 4409SOL    HW124156   8.752   6.755   3.185 -0.1627  0.3809  0.1707
 4409SOL    HW224157   8.663   6.839   3.077 -3.4767 -2.5110  0.5821
 4410SOL     OW24158   0.659   7.561   1.105  0.6093  0.8683  0.3041
 4410SOL    HW124159   0.630   7.493   1.171  0.1453  1.9872  1.2685
 4410SOL    HW224160   0.728   7.521   1.043 -1.3315 -1.1446 -0.6128
 4411SOL     OW24161   7.800   0.220   1.123 -0.0500 -0.3585  0.3536
 4411SOL    HW124162   7.865   0.273   1.178  0.8939 -1.5759  0.4328
 4411SOL    HW224163   7.839   0.204   1.033 -0.7515 -0.0889 -0.0004
 4412SOL     OW24164   1.649   2.078   3.182  0.0836  0.0962  0.4288
 4412SOL    HW124165   1.718   2.113   3.246  0.3158  1.6841 -0.6678
 4412SOL    HW224166   1.559   2.110   3.210  0.0666 -0.0503  0.5412
 4413SOL     OW24167   8.805   4.793   5.823  0.7818 -0.0358 -0.4323
 4413SOL    HW124168   8.790   4.712   5.766 -1.3677  0.7602 -1.0859
 4413SOL    HW224169   8.831   4.766   5.915  0.2559 -1.4688 -0.6979
 4414SOL     OW24170   1.942   1.133   3.294  0.3824  0.0478 -0.0469
 4414SOL    HW124171   1.967   1.037   3.286  1.8930  0.3849  0.3329
 4414SOL    HW224172   2.022   1.185   3.326 -0.1015  1.5899 -1.3060
 4415SOL     OW24173   1.363   5.665   2.465 -0.1984  0.0999 -0.0289
 4415SOL    HW124174   1.264   5.647   2.470 -0.1118 -0.2121  0.5398
 4415SOL    HW224175   1.395   5.646   2.372 -0.6631  0.1689 -0.2097
 4416SOL     OW24176   3.179   7.370   3.873  0.4106  0.3243  0.3861
 4416SOL    HW124177   3.137   7.443   3.819 -0.0019 -0.2289 -0.0547
 4416SOL    HW224178   3.206   7.295   3.812 -0.0458 -0.3019  0.9463
 4417SOL     OW24179   2.670   6.802   4.822 -0.0307 -0.2786  0.7022
 4417SOL    HW124180   2.647   6.898   4.808  3.4433  0.4605 -0.4032
 4417SOL    HW224181   2.769   6.791   4.824 -0.3270 -4.0119 -0.3680
 4418SOL     OW24182   1.166   5.206   6.633 -0.1107  0.2352  0.1050
 4418SOL    HW124183   1.100   5.255   6.577  0.1918  1.8103  1.1072
 4418SOL    HW224184   1.120   5.135   6.687 -0.4347 -1.1626 -1.9442
 4419SOL     OW24185   8.284   2.851   0.343 -0.3169  0.0042 -0.2605
 4419SOL    HW124186   8.248   2.784   0.408  1.4209  0.0548  0.7929
 4419SOL    HW224187   8.369   2.889   0.379 -0.5956  1.8169 -1.4570
 4420SOL     OW24188   7.132   2.414   3.386 -0.6821  0.1756  0.2994
 4420SOL    HW124189   7.201   2.486   3.386 -0.3830 -0.1081  1.1562
 4420SOL    HW224190   7.165   2.334   3.436  0.0507 -1.6272 -2.8890
 4421SOL     OW24191   6.037   0.838   4.516  0.7714  0.1040 -0.4198
 4421SOL    HW124192   6.003   0.821   4.609  0.1137 -1.7959 -0.9854
 4421SOL    HW224193   5.971   0.895   4.467 -0.4456 -1.4836 -0.6964
 4422SOL     OW24194   1.087   2.510   1.427 -0.8124 -0.0912 -1.0341
 4422SOL    HW124195   1.110   2.414   1.439  1.0519  0.5063  0.5510
 4422SOL    HW224196   1.155   2.554   1.369  0.4408  1.0285  1.1863
 4423SOL     OW24197   1.155   1.061   3.500  0.0215  0.1265 -0.0067
 4423SOL    HW124198   1.132   1.033   3.593  1.9464 -0.8223  0.1893
 4423SOL    HW224199   1.107   1.003   3.435 -1.9800  1.3069  0.3424
 4424SOL     OW24200   7.385   9.392   5.054 -0.0298  0.3639 -0.2969
 4424SOL    HW124201   7.373   9.395   5.153 -0.5857 -1.0181 -0.3109
 4424SOL    HW224202   7.482   9.401   5.032  0.7315 -4.1231  0.6738
 4425SOL     OW24203   0.671   8.206   2.385 -0.3053 -0.5549  0.0211
 4425SOL    HW124204   0.617   8.227   2.466  0.8764  2.6475  0.0678
 4425SOL    HW224205   0.714   8.117   2.396 -1.7356 -1.0371  2.0399
 4426SOL     OW24206   1.653   5.073   3.767 -0.2968 -0.2423 -0.1730
 4426SOL    HW124207   1.590   4.996   3.780 -1.3678  0.8013  0.9575
 4426SOL    HW224208   1.676   5.082   3.670 -1.1223 -1.2228 -0.4677
 4427SOL     OW24209   3.655   3.876   3.613  0.4065  0.0466  0.1528
 4427SOL    HW124210   3.636   3.878   3.711  0.5963  0.1619  0.1871
 4427SOL    HW224211   3.701   3.791   3.589 -0.8700 -0.6063 -0.0644
 4428SOL     OW24212   1.655   7.907   3.286 -0.2495  0.3495 -0.4002
 4428SOL    HW124213   1.674   7.809   3.285 -0.8748  0.2077 -4.4328
 4428SOL    HW224214   1.557   7.922   3.275  0.0044  1.4279 -1.2606
 4429SOL     OW24215   9.680   5.507   4.564 -0.1501  0.4146  0.6150
 4429SOL    HW124216   9.643   5.507   4.471 -0.2322  0.2373  0.6476
 4429SOL    HW224217   9.770   5.464   4.564 -0.5859 -0.5143  0.7879
 4430SOL     OW24218   7.178   1.545   2.700 -0.2437 -0.0395 -0.4654
 4430SOL    HW124219   7.182   1.523   2.797 -1.5636 -2.0796 -0.8295
 4430SOL    HW224220   7.246   1.490   2.651  1.2102  1.8224 -0.5741
 4431SOL     OW24221   0.627   9.341   1.929  0.0233 -0.2670  0.3537
 4431SOL    HW124222   0.605   9.424   1.879  1.5479  0.3247  0.6298
 4431SOL    HW224223   0.633   9.264   1.865 -1.5935 -0.2179  0.1268
 4432SOL     OW24224   7.465   3.127   1.294  0.3975  0.1248 -0.5894
 4432SOL    HW124225   7.400   3.200   1.274  1.9265  1.1912 -1.8299
 4432SOL    HW224226   7.539   3.163   1.351  0.4852 -0.8032 -0.0986
 4433SOL     OW24227   8.839   4.355   4.417  0.8571 -0.3853 -0.3617
 4433SOL    HW124228   8.872   4.265   4.387  2.5269 -0.0228  0.3002
 4433SOL    HW224229   8.899   4.426   4.380  0.6662  0.3230  0.6810
 4434SOL     OW24230   0.022   3.825   6.727 -0.2898  0.4357  0.3240
 4434SOL    HW124231   0.019   3.789   6.820 -0.3073 -0.1925  0.0797
 4434SOL    HW224232  -0.043   3.775   6.669  2.1018 -1.4620 -0.8119
 4435SOL     OW24233   5.743   0.192   2.015 -0.8897  0.7732 -0.3950
 4435SOL    HW124234   5.819   0.193   1.951 -1.2191  0.9016 -0.7916
 4435SOL    HW224235   5.746   0.274   2.072  1.1043 -0.7478  1.8070
 4436SOL     OW24236   2.555   6.146   0.451  0.5106 -0.5026  0.5729
 4436SOL    HW124237   2.578   6.164   0.355 -0.1572 -0.7520  0.3633
 4436SOL    HW224238   2.613   6.202   0.510  1.3071 -0.7667  0.0381
 4437SOL     OW24239   0.156   8.532   4.037 -0.1866  0.5482 -0.3320
 4437SOL    HW124240   0.200   8.551   3.949 -1.7143  2.3846 -0.7171
 4437SOL    HW224241   0.224   8.541   4.110  0.9592 -0.4189 -1.2671
 4438SOL     OW24242   0.215   1.971   4.823 -0.2673  0.4645  0.1397
 4438SOL    HW124243   0.148   2.034   4.862 -0.2844  1.4378 -1.4507
 4438SOL    HW224244   0.307   2.001   4.847 -0.2999  0.7163 -0.0510
 4439SOL     OW24245   4.635   3.203   3.904 -0.1219 -0.1262 -0.4142
 4439SOL    HW124246   4.617   3.288   3.955  4.0868  1.4074 -1.3259
 4439SOL    HW224247   4.613   3.217   3.807  2.0400  0.4416 -0.8298
 4440SOL     OW24248   6.989   0.924   3.667 -0.1543  0.3881  0.0219
 4440SOL    HW124249   7.035   0.904   3.753 -3.5586 -0.6953  1.6549
 4440SOL    HW224250   6.921   0.996   3.681 -0.8561  0.0876 -1.6960
 4441SOL     OW24251   6.644   1.339   4.041 -0.2334 -0.2015 -0.6530
 4441SOL    HW124252   6.743   1.325   4.040 -0.2855 -0.5702 -0.6624
 4441SOL    HW224253   6.620   1.413   3.977  0.2485  1.3244  0.8824
 4442SOL     OW24254   2.941   3.250   2.286 -0.0208  0.2100 -0.9749
 4442SOL    HW124255   2.874   3.181   2.257  1.2380 -0.9016 -1.2561
 4442SOL    HW224256   2.893   3.323   2.336 -1.2619 -1.3138  0.1183
 4443SOL     OW24257   2.775   6.743   5.687 -0.5375  0.4584 -0.3840
 4443SOL    HW124258   2.735   6.755   5.778 -1.7734 -0.4257 -0.7934
 4443SOL    HW224259   2.870   6.715   5.696 -1.4341 -2.4467  0.7107
 4444SOL     OW24260   1.362   9.130   4.184 -0.1159 -0.0497  0.9025
 4444SOL    HW124261   1.377   9.228   4.172 -0.7281 -0.0679 -0.0910
 4444SOL    HW224262   1.265   9.112   4.199  0.0585 -0.4642  1.5678
 4445SOL     OW24263   4.217   4.993   2.156  0.6713 -0.2677  0.6465
 4445SOL    HW124264   4.234   4.895   2.149  0.2072 -0.3773  1.0119
 4445SOL    HW224265   4.170   5.012   2.243  0.1745  0.1964  0.2790
 4446SOL     OW24266   2.937   8.782   2.824  0.4769  0.1029  0.1817
 4446SOL    HW124267   2.896   8.844   2.757 -2.1815 -1.1125  0.6200
 4446SOL    HW224268   2.984   8.836   2.894 -0.7790  1.5871 -0.0789
 4447SOL     OW24269   9.677   7.144   5.101 -0.4376  0.1549 -0.6993
 4447SOL    HW124270   9.627   7.228   5.082  0.0568  0.7565  0.5839
 4447SOL    HW224271   9.666   7.119   5.197  0.2696 -0.6703 -0.8225
 4448SOL     OW24272   5.067   2.139   0.868  0.9129  0.1414  0.2547
 4448SOL    HW124273   5.044   2.184   0.781  0.9378 -0.6300 -0.1556
 4448SOL    HW224274   5.052   2.203   0.943  0.9444  0.8390 -0.3213
 4449SOL     OW24275   1.856   6.317   2.138 -0.6652 -0.4321  0.2105
 4449SOL    HW124276   1.947   6.281   2.158 -0.6709 -0.1201  0.7847
 4449SOL    HW224277   1.828   6.380   2.210 -0.8350  0.4123 -0.5883
 4450SOL     OW24278   5.237   9.347   1.293 -0.5095  0.0756 -0.0324
 4450SOL    HW124279   5.142   9.315   1.294 -0.5864  0.3077  0.0647
 4450SOL    HW224280   5.298   9.271   1.315 -0.6900 -0.0136  0.1632
 4451SOL     OW24281   2.664   7.607   3.047  0.8901  0.5745 -0.3071
 4451SOL    HW124282   2.599   7.637   3.117  0.8262 -0.9981  0.3146
 4451SOL    HW224283   2.682   7.509   3.057  1.6177  0.5288 -1.8925
 4452SOL     OW24284   3.265   3.296   4.286  0.6702  0.0305  0.0120
 4452SOL    HW124285   3.333   3.261   4.221 -0.1045 -0.1042 -0.7309
 4452SOL    HW224286   3.194   3.345   4.236 -1.5642 -2.6455  0.4697
 4453SOL     OW24287   2.711   2.202   1.491 -0.6542  0.4177 -0.0103
 4453SOL    HW124288   2.744   2.130   1.430  2.2629  0.5902  1.2792
 4453SOL    HW224289   2.685   2.162   1.579  0.4328  0.8404  0.5141
 4454SOL     OW24290   4.054   4.276   3.214  0.4047 -0.0741 -0.6094
 4454SOL    HW124291   4.056   4.350   3.281 -2.4413 -0.1786 -0.3690
 4454SOL    HW224292   4.115   4.298   3.138  1.1482  1.5491  0.4268
 4455SOL     OW24293   9.955   0.924   3.427  0.0921 -0.3553  0.0862
 4455SOL    HW124294  10.042   0.971   3.443 -0.0223  0.2354 -0.9273
 4455SOL    HW224295   9.955   0.836   3.473  1.0682 -0.1723  0.4414
 4456SOL     OW24296   3.617   8.719   4.507  0.4520  0.2210  0.2683
 4456SOL    HW124297   3.687   8.790   4.510 -0.0942  0.8135 -0.4539
 4456SOL    HW224298   3.584   8.700   4.599  1.5317 -0.0387  0.6073
 4457SOL     OW24299   0.140   3.208   0.553  0.2704  0.1021 -0.0977
 4457SOL    HW124300   0.140   3.155   0.468  2.8405  2.1086 -1.4135
 4457SOL    HW224301   0.195   3.160   0.622  0.4827 -0.1792 -0.4567
 4458SOL     OW24302   7.928   9.117   0.527  0.3976 -0.4554 -0.3607
 4458SOL    HW124303   7.960   9.130   0.433 -0.4123  1.8325 -0.3527
 4458SOL    HW224304   7.993   9.059   0.576  1.9055 -0.0103 -1.7569
 4459SOL     OW24305   3.291   4.837   5.398  0.0516  0.3865 -0.2443
 4459SOL    HW124306   3.369   4.782   5.368 -1.9068 -3.2337  0.9826
 4459SOL    HW224307   3.303   4.863   5.494 -0.8577 -1.4259  0.3872
 4460SOL     OW24308   6.038   4.325   0.869 -0.4115  0.4623 -0.2088
 4460SOL    HW124309   5.961   4.263   0.856 -0.1535 -0.3296  1.8225
 4460SOL    HW224310   6.124   4.275   0.861 -0.2084  0.4421  1.8030
 4461SOL     OW24311   0.710   8.049   3.589  0.1509  0.7033  0.1668
 4461SOL    HW124312   0.629   8.036   3.532  0.5938 -0.5142 -0.2000
 4461SOL    HW224313   0.779   7.981   3.566  0.1382 -0.1572  2.4997
 4462SOL     OW24314   8.630   1.470   1.014 -0.0320 -0.4188 -0.1175
 4462SOL    HW124315   8.686   1.394   1.046 -1.2070 -1.8258 -1.3670
 4462SOL    HW224316   8.689   1.545   0.984  1.1279 -0.9867  0.6981
 4463SOL     OW24317   3.093   3.529   0.695 -0.2585  1.2061  0.1191
 4463SOL    HW124318   3.130   3.591   0.625 -1.4775  0.8230 -0.8870
 4463SOL    HW224319   3.167   3.499   0.756  0.8682  1.3977 -1.1310
 4464SOL     OW24320   0.806   8.196   0.129 -0.1617 -0.0030 -0.0612
 4464SOL    HW124321   0.840   8.290   0.135  0.6106 -0.2809 -0.0081
 4464SOL    HW224322   0.711   8.193   0.160  0.1166  0.5865  0.8684
 4465SOL     OW24323   0.693   7.754   5.384 -0.3082 -0.3026 -0.0645
 4465SOL    HW124324   0.741   7.812   5.319  0.8671 -1.5785 -0.3483
 4465SOL    HW224325   0.736   7.762   5.474 -1.2100  0.5672  0.2994
 4466SOL     OW24326   7.110   0.850   6.251  0.2694 -0.1706 -0.0367
 4466SOL    HW124327   7.054   0.768   6.238 -0.7834  0.5762 -0.2442
 4466SOL    HW224328   7.160   0.870   6.167 -0.4649  0.1369 -0.4004
 4467SOL     OW24329   5.061   2.517   0.768  0.0302  0.0806  0.1617
 4467SOL    HW124330   5.104   2.445   0.713 -2.1981 -1.6656  0.6137
 4467SOL    HW224331   5.082   2.502   0.864 -0.5353 -0.0240  0.2675
 4468SOL     OW24332   1.259   2.390   2.554 -0.3096  0.0920  0.0916
 4468SOL    HW124333   1.182   2.432   2.506 -1.3966 -0.9447  0.9091
 4468SOL    HW224334   1.226   2.340   2.634  0.8956 -2.6070 -1.0295
 4469SOL     OW24335   7.598   1.614   0.729  0.2035 -0.4085 -0.0764
 4469SOL    HW124336   7.566   1.697   0.684  1.1996 -0.5412 -1.0672
 4469SOL    HW224337   7.520   1.563   0.766 -0.5209  0.3326 -0.5786
 4470SOL     OW24338   0.682   4.269   3.432  0.4654 -0.0041 -0.1669
 4470SOL    HW124339   0.674   4.189   3.373 -0.4697  0.7702 -1.1181
 4470SOL    HW224340   0.723   4.345   3.380 -1.5751  1.0785 -0.2234
 4471SOL     OW24341   0.353   2.486   0.643 -0.0350 -0.2505  0.2674
 4471SOL    HW124342   0.442   2.528   0.624 -0.7276  0.9448 -0.3934
 4471SOL    HW224343   0.286   2.519   0.576 -0.8155 -1.6877  0.3275
 4472SOL     OW24344   5.223   0.959   4.425  0.2436  0.0107 -0.2536
 4472SOL    HW124345   5.157   0.922   4.491 -0.5388  1.2932 -0.3176
 4472SOL    HW224346   5.226   1.058   4.432  2.1443 -0.0211 -0.2893
 4473SOL     OW24347   1.097   5.007   0.384 -0.3104  0.0796 -0.6106
 4473SOL    HW124348   1.065   5.066   0.458  0.2235 -1.2240  0.6687
 4473SOL    HW224349   1.197   5.004   0.385 -0.3114 -0.2145 -1.1717
 4474SOL     OW24350   5.351   8.128   2.132  0.7950  0.4295 -0.1174
 4474SOL    HW124351   5.272   8.076   2.165 -0.2995  1.0320 -1.7544
 4474SOL    HW224352   5.430   8.068   2.127  0.2974 -0.3350  0.9329
 4475SOL     OW24353   8.743   6.080   0.300 -0.5784  0.1938 -0.0554
 4475SOL    HW124354   8.719   6.032   0.215  0.5257 -1.6305  0.6367
 4475SOL    HW224355   8.668   6.071   0.365 -0.5694 -0.2127 -0.0976
 4476SOL     OW24356   2.203   0.732   4.508 -0.2901  0.6833  0.3968
 4476SOL    HW124357   2.296   0.730   4.470 -0.5950  0.5394 -0.3463
 4476SOL    HW224358   2.172   0.639   4.526 -0.5634  0.6851 -0.0410
 4477SOL     OW24359   7.595   7.918   4.806  0.0449  0.3836 -0.0349
 4477SOL    HW124360   7.503   7.896   4.837 -0.5626  1.2512 -1.1805
 4477SOL    HW224361   7.659   7.913   4.883 -1.0114  0.0863  0.8280
 4478SOL     OW24362   7.209   2.211   2.249 -0.0174  0.2524  0.0277
 4478SOL    HW124363   7.123   2.260   2.266 -0.4828 -0.1445 -1.1141
 4478SOL    HW224364   7.223   2.202   2.150  1.0146 -0.2640  0.2135
 4479SOL     OW24365   4.988   0.037   4.464  0.2382  0.7369  0.1511
 4479SOL    HW124366   4.930   0.116   4.440 -0.2292  0.1286 -0.7426
 4479SOL    HW224367   5.065   0.069   4.519 -0.4477  1.6906  0.5996
 4480SOL     OW24368   8.553   4.719   1.381  0.1018 -0.4283 -0.1472
 4480SOL    HW124369   8.538   4.814   1.407 -1.6241 -0.6054 -0.4771
 4480SOL    HW224370   8.547   4.709   1.282 -0.7531 -1.0489 -0.0430
 4481SOL     OW24371   9.508   2.002   3.702 -0.1637  0.0500 -0.5461
 4481SOL    HW124372   9.602   2.034   3.717  0.0171 -0.7664  0.1093
 4481SOL    HW224373   9.447   2.047   3.767 -0.2600  0.7100 -1.0846
 4482SOL     OW24374   5.691   7.983   4.299 -0.3504  0.4023 -0.4199
 4482SOL    HW124375   5.749   8.038   4.358  0.2951 -0.3343 -0.3678
 4482SOL    HW224376   5.618   7.941   4.353 -1.4008  1.9092 -0.5995
 4483SOL     OW24377   9.180   0.488   4.988  0.0842  0.1427 -0.0126
 4483SOL    HW124378   9.199   0.577   4.946  0.3126 -0.3946 -1.0673
 4483SOL    HW224379   9.257   0.427   4.974 -0.3814 -0.4692  0.0446
 4484SOL     OW24380   2.006   7.372   2.104 -0.4508 -0.3360 -0.3590
 4484SOL    HW124381   2.062   7.300   2.063 -0.4378 -0.6584  0.2135
 4484SOL    HW224382   1.961   7.336   2.186  0.4899  0.6509  0.6114
 4485SOL     OW24383   2.851   2.203   3.053  0.6475 -0.1392  0.3804
 4485SOL    HW124384   2.774   2.218   3.114  0.3161  1.0168 -0.3009
 4485SOL    HW224385   2.928   2.260   3.082  1.2923 -1.3770  1.1284
 4486SOL     OW24386   3.913   9.686   1.109 -0.0459 -0.4481  0.1436
 4486SOL    HW124387   3.906   9.587   1.118  0.8043 -0.4457  0.9236
 4486SOL    HW224388   3.948   9.710   1.019  2.2352 -0.9770  0.8476
 4487SOL     OW24389   1.957   4.896   1.343  0.5084 -0.1794 -0.4507
 4487SOL    HW124390   2.045   4.943   1.349 -0.4674  1.5793  0.2684
 4487SOL    HW224391   1.900   4.922   1.420 -1.0900 -0.3979 -1.5387
 4488SOL     OW24392   1.203   7.450   5.201 -0.6703 -0.0502  0.2002
 4488SOL    HW124393   1.208   7.410   5.109 -1.3052  0.4401 -0.0539
 4488SOL    HW224394   1.295   7.475   5.232 -0.6324  1.5441 -1.1019
 4489SOL     OW24395   3.614   4.481   6.526 -0.3430  0.3502  0.2135
 4489SOL    HW124396   3.650   4.396   6.488  1.3993  0.6975  1.0340
 4489SOL    HW224397   3.542   4.516   6.467 -0.1179 -0.9766 -0.8676
 4490SOL     OW24398   4.003   7.663   1.358 -0.0142 -0.0321  0.4885
 4490SOL    HW124399   3.987   7.727   1.434 -0.6368  0.7568 -0.3005
 4490SOL    HW224400   3.921   7.609   1.341 -0.5046  1.1142 -0.8482
 4491SOL     OW24401   8.464   6.274   3.457 -0.1191  0.3482  0.3779
 4491SOL    HW124402   8.441   6.369   3.438  1.1678  0.4192 -0.9067
 4491SOL    HW224403   8.562   6.260   3.443  0.0789 -0.6855  2.6151
 4492SOL     OW24404   0.517   9.665   2.676  0.4152 -0.2984  0.6111
 4492SOL    HW124405   0.442   9.668   2.610  1.2882 -1.9841 -0.4782
 4492SOL    HW224406   0.480   9.653   2.768 -0.7220  0.4909  0.2647
 4493SOL     OW24407   4.521   0.764   0.431  0.5424  0.0624  0.4303
 4493SOL    HW124408   4.571   0.840   0.390  0.6373 -0.0253  0.3833
 4493SOL    HW224409   4.582   0.711   0.490 -0.0667  1.2850  2.1658
 4494SOL     OW24410   8.341   2.699   2.796 -0.2285 -0.1977  0.2338
 4494SOL    HW124411   8.310   2.740   2.710 -0.8007  1.2200  1.0925
 4494SOL    HW224412   8.266   2.649   2.838 -0.5612  0.8608  0.9207
 4495SOL     OW24413   7.783   4.014   1.103 -0.5788  0.0540 -0.2883
 4495SOL    HW124414   7.767   4.112   1.092  0.4491  0.3184  0.5092
 4495SOL    HW224415   7.880   3.998   1.122 -0.8548 -1.0610  0.1930
 4496SOL     OW24416   7.652   1.614   1.996 -0.5964 -0.2598 -0.1718
 4496SOL    HW124417   7.652   1.546   2.069 -1.2464  0.3012  0.3755
 4496SOL    HW224418   7.724   1.681   2.013  0.3698 -1.0904 -0.9840
 4497SOL     OW24419   4.858   1.573   2.212 -0.2426 -0.2889  0.0838
 4497SOL    HW124420   4.841   1.497   2.275 -2.2354 -1.6905 -2.0896
 4497SOL    HW224421   4.906   1.646   2.261  1.4427 -2.7722  2.3092
 4498SOL     OW24422   2.621   0.139   2.905  0.1426  0.2665  0.2548
 4498SOL    HW124423   2.690   0.167   2.838  0.4509 -1.0806 -0.0169
 4498SOL    HW224424   2.666   0.111   2.990 -0.1087 -0.0399  0.2874
 4499SOL     OW24425   8.583   6.716   1.835  0.5036 -0.1648 -0.4810
 4499SOL    HW124426   8.520   6.786   1.801 -0.9028 -1.1638  0.0325
 4499SOL    HW224427   8.610   6.738   1.929  1.3765  0.5628 -0.8960
 4500SOL     OW24428   0.927   0.525   4.519 -0.0989 -0.1591 -0.3501
 4500SOL    HW124429   0.894   0.578   4.597 -0.9179 -0.3840 -0.5391
 4500SOL    HW224430   1.023   0.546   4.502 -0.3785  1.1419 -0.3317
 4501SOL     OW24431   2.583   6.703   2.568 -0.3244  0.5385  0.6225
 4501SOL    HW124432   2.500   6.758   2.581  0.2112  1.0140  2.1926
 4501SOL    HW224433   2.663   6.761   2.580  0.2468 -0.1330  0.1043
 4502SOL     OW24434   8.382   5.636   3.688 -0.3644  0.0015 -0.2231
 4502SOL    HW124435   8.432   5.620   3.773  0.9597  0.8246 -0.8356
 4502SOL    HW224436   8.314   5.708   3.703 -0.5535 -0.2760  0.2837
 4503SOL     OW24437   9.158   7.657   4.243  0.0715 -0.2270  0.8503
 4503SOL    HW124438   9.125   7.635   4.151 -1.9206 -0.5755  1.6365
 4503SOL    HW224439   9.167   7.756   4.252 -3.6301  0.1328  1.5248
 4504SOL     OW24440   4.094   6.755   2.975  0.1502  0.0235  0.1524
 4504SOL    HW124441   3.999   6.765   2.946 -0.0615 -2.1899  0.0025
 4504SOL    HW224442   4.145   6.837   2.950 -1.4813  0.8033 -0.7076
 4505SOL     OW24443   0.479   6.408   0.507 -0.0808  0.7237 -0.0954
 4505SOL    HW124444   0.531   6.390   0.424  1.0651 -0.0777  0.7756
 4505SOL    HW224445   0.539   6.399   0.587 -1.2613  1.0339  0.8491
 4506SOL     OW24446   3.662   7.941   4.081 -0.3872  0.7554 -0.3721
 4506SOL    HW124447   3.658   8.031   4.038 -2.0376  2.6091  3.4043
 4506SOL    HW224448   3.742   7.936   4.141 -0.0399 -0.4946 -0.9158
 4507SOL     OW24449   9.188   7.249   1.602  0.4361 -0.0782  0.2818
 4507SOL    HW124450   9.221   7.194   1.679  0.5313 -0.5267 -0.0779
 4507SOL    HW224451   9.149   7.334   1.637  0.7242 -0.1560  0.8083
 4508SOL     OW24452   4.291   3.738   2.056  0.4818 -0.5362  0.0490
 4508SOL    HW124453   4.213   3.800   2.058  1.2552  0.4597 -0.1333
 4508SOL    HW224454   4.349   3.755   2.136  1.5116  0.0537 -0.8179
 4509SOL     OW24455   4.036   9.711   3.355  0.2073 -0.3438 -0.7143
 4509SOL    HW124456   4.131   9.685   3.333  0.1649 -1.6558  0.5721
 4509SOL    HW224457   4.010   9.790   3.300  1.7269 -0.5619 -1.7963
 4510SOL     OW24458   9.351   5.902   6.706  0.2598  0.3001 -0.3991
 4510SOL    HW124459   9.344   5.802   6.698  1.3388 -0.2273  4.0293
 4510SOL    HW224460   9.281   5.935   6.770  0.7027  2.2441 -0.8974
 4511SOL     OW24461   8.826   2.285   2.653 -0.3756 -0.1559  0.4293
 4511SOL    HW124462   8.911   2.232   2.648  0.8908  1.9115 -1.0970
 4511SOL    HW224463   8.841   2.375   2.610 -3.4087  0.1400 -0.1022
 4512SOL     OW24464   2.881   4.361   6.654  0.2696 -0.1162 -0.1956
 4512SOL    HW124465   2.890   4.439   6.715 -0.0947  1.1861 -1.7629
 4512SOL    HW224466   2.972   4.322   6.637  0.4318 -0.1631  0.7470
 4513SOL     OW24467   4.157   9.297   3.906  0.0171 -0.4667  0.4637
 4513SOL    HW124468   4.153   9.200   3.928  1.4819 -1.0899 -1.8021
 4513SOL    HW224469   4.227   9.341   3.962 -0.6487 -0.7124  1.4957
 4514SOL     OW24470   0.761   9.859   4.077  0.1114 -0.4543 -0.6884
 4514SOL    HW124471   0.796   9.950   4.098 -0.5489 -0.0309 -1.3845
 4514SOL    HW224472   0.833   9.791   4.093 -0.4524 -0.2450  3.2977
 4515SOL     OW24473   6.160   2.428   3.493 -0.2536  0.0423 -0.0513
 4515SOL    HW124474   6.130   2.332   3.485 -0.3181  0.0658 -0.0891
 4515SOL    HW224475   6.104   2.475   3.562  0.4757 -0.2300  0.7420
 4516SOL     OW24476   9.195   7.831   1.794 -0.5961  0.4916 -0.0163
 4516SOL    HW124477   9.258   7.848   1.719  1.5310 -1.8227  1.1892
 4516SOL    HW224478   9.201   7.906   1.860 -0.1582  0.9730 -0.5964
 4517SOL     OW24479   2.802   3.549   2.139  0.3626 -0.4203  0.0289
 4517SOL    HW124480   2.798   3.564   2.238 -0.6189 -0.8938  0.0691
 4517SOL    HW224481   2.882   3.495   2.117  0.2690 -0.8111  0.6378
 4518SOL     OW24482   8.908   5.148   6.637  0.8110  0.0195  0.2306
 4518SOL    HW124483   8.830   5.182   6.689  0.7042 -0.7732  0.6043
 4518SOL    HW224484   8.930   5.212   6.564 -0.2283  0.2232  0.0850
 4519SOL     OW24485   5.682   7.936   3.228 -0.7556 -0.4329 -0.1534
 4519SOL    HW124486   5.638   7.907   3.313  1.4297 -0.2234  1.0738
 4519SOL    HW224487   5.705   7.856   3.173  0.0844 -0.7243  0.6120
 4520SOL     OW24488   0.412   5.138   6.013 -0.5271 -0.3097  0.1803
 4520SOL    HW124489   0.465   5.098   6.088  0.3009 -0.0867 -0.2793
 4520SOL    HW224490   0.384   5.065   5.950  0.2398 -0.2914 -0.1949
 4521SOL     OW24491   2.286   1.066   2.739  0.2319 -0.1404 -0.5538
 4521SOL    HW124492   2.246   1.151   2.706  1.9406  0.6849 -0.5900
 4521SOL    HW224493   2.273   0.994   2.671 -2.4613 -0.2910  0.0907
 4522SOL     OW24494   0.754   5.012   5.766 -0.3236 -0.2925  0.2926
 4522SOL    HW124495   0.774   4.943   5.696 -0.1032 -0.8592  0.9018
 4522SOL    HW224496   0.664   5.051   5.750 -0.6028 -0.9872  0.1494
 4523SOL     OW24497   2.566   6.092   2.801  0.3933 -0.1014  0.1227
 4523SOL    HW124498   2.627   6.045   2.864  0.8761  1.7008  1.0378
 4523SOL    HW224499   2.543   6.032   2.725  1.8173 -1.4349  0.7313
 4524SOL     OW24500   0.493   5.275   1.211 -0.2873  0.0973 -0.2698
 4524SOL    HW124501   0.466   5.179   1.219  1.1443 -0.3021 -0.2650
 4524SOL    HW224502   0.523   5.309   1.300  1.2731 -0.0721 -0.7246
 4525SOL     OW24503   2.550   9.467   4.314  0.3631 -0.7533  0.1228
 4525SOL    HW124504   2.495   9.396   4.272 -0.5082  1.1817 -2.1295
 4525SOL    HW224505   2.612   9.506   4.245  0.0438  1.3976  1.0142
 4526SOL     OW24506   9.417   5.796   2.359  0.2069 -0.1868 -0.3708
 4526SOL    HW124507   9.448   5.880   2.316 -0.3810 -0.1800 -0.7795
 4526SOL    HW224508   9.496   5.741   2.387  0.5989  0.9394  0.7696
 4527SOL     OW24509   7.853   0.687   0.515  0.2237  0.4203  0.2048
 4527SOL    HW124510   7.913   0.676   0.594 -0.8224  0.6850  1.0489
 4527SOL    HW224511   7.764   0.646   0.536  0.4537 -0.9463 -1.4306
 4528SOL     OW24512   3.272   7.778   0.784 -0.5920 -0.0922  0.5589
 4528SOL    HW124513   3.229   7.829   0.859  0.5421 -0.5427  1.5433
 4528SOL    HW224514   3.312   7.842   0.719  0.4303  0.3091  1.5520
 4529SOL     OW24515   3.412   6.567   2.796 -0.4316 -0.1287  0.2879
 4529SOL    HW124516   3.351   6.623   2.741 -1.0014 -1.3458 -0.3171
 4529SOL    HW224517   3.495   6.619   2.816 -0.3200  0.4167 -1.5017
 4530SOL     OW24518   2.223   8.354   1.530 -0.3122  0.0244 -0.1975
 4530SOL    HW124519   2.240   8.295   1.451  0.2467 -1.1394  0.7840
 4530SOL    HW224520   2.214   8.449   1.499  2.2176 -0.0963 -1.4011
 4531SOL     OW24521   1.095   5.958   2.016 -0.1385  0.3185  0.6056
 4531SOL    HW124522   1.136   5.878   2.060  0.7812 -0.1619 -1.0699
 4531SOL    HW224523   1.144   6.040   2.043  0.2074  0.0661  0.7477
 4532SOL     OW24524   0.505   3.812   6.281  0.0532  0.3375 -0.4145
 4532SOL    HW124525   0.554   3.752   6.217  1.6542  0.5094  0.6014
 4532SOL    HW224526   0.477   3.895   6.234  0.0269 -0.1306 -1.2265
 4533SOL     OW24527   1.518   5.943   6.603  0.2729  0.4169 -0.8802
 4533SOL    HW124528   1.606   5.914   6.641  0.5235  0.0032 -1.7678
 4533SOL    HW224529   1.448   5.939   6.675  0.7495 -0.3060 -0.4484
 4534SOL     OW24530   1.712   3.289   4.176 -0.4567  0.3129  0.2014
 4534SOL    HW124531   1.709   3.292   4.276  0.6598  0.7831  0.2325
 4534SOL    HW224532   1.621   3.270   4.140 -0.7778 -0.3057  1.3262
 4535SOL     OW24533   8.592   7.479   4.605 -0.3189  0.0739  0.3715
 4535SOL    HW124534   8.583   7.384   4.635 -1.0927 -0.4780 -1.5273
 4535SOL    HW224535   8.510   7.505   4.553  1.4896  0.5467 -2.3733
 4536SOL     OW24536   0.130   8.327   3.267 -0.2329  0.6982 -0.0474
 4536SOL    HW124537   0.086   8.416   3.278 -2.3402 -0.2516 -0.5499
 4536SOL    HW224538   0.112   8.292   3.175  2.4370  0.7119 -0.6135
 4537SOL     OW24539   7.964   4.096   4.842  0.6443  0.4033 -0.0310
 4537SOL    HW124540   8.016   4.163   4.788  1.4173  0.5841  0.9166
 4537SOL    HW224541   7.925   4.141   4.921 -1.7716  0.4596 -1.2214
 4538SOL     OW24542   6.992   0.608   1.635  0.6235 -0.8413  0.2926
 4538SOL    HW124543   6.987   0.693   1.583  1.8165 -0.6017  0.5485
 4538SOL    HW224544   6.933   0.615   1.715  4.1020  1.6039  2.8592
 4539SOL     OW24545   4.314   6.390   2.678  0.0526  0.5356  0.0802
 4539SOL    HW124546   4.256   6.444   2.617  0.6422 -1.3624 -2.2205
 4539SOL    HW224547   4.410   6.419   2.667  0.3174 -0.6659 -0.8475
 4540SOL     OW24548   3.639   1.481   1.348 -0.3382  0.2302  1.2347
 4540SOL    HW124549   3.604   1.575   1.343  1.2006  0.7939  0.6982
 4540SOL    HW224550   3.666   1.461   1.443  1.6784  1.2439  0.9189
 4541SOL     OW24551   7.632   3.792   1.445 -0.1426  0.1160  0.3272
 4541SOL    HW124552   7.725   3.781   1.479  0.3860  0.0453 -1.1133
 4541SOL    HW224553   7.567   3.765   1.516  0.9429 -0.3985  1.1316
 4542SOL     OW24554   8.161   9.631   5.369 -0.4670 -0.2249  0.1474
 4542SOL    HW124555   8.190   9.659   5.278  0.7449  1.6959  1.1084
 4542SOL    HW224556   8.139   9.533   5.368  2.3892 -0.8945 -1.5160
 4543SOL     OW24557   5.027   8.943   1.083 -0.3641 -0.6056 -0.4320
 4543SOL    HW124558   5.080   8.971   1.003 -0.2271  0.1718 -0.0840
 4543SOL    HW224559   4.936   8.986   1.080 -0.0347  0.1636  0.2751
 4544SOL     OW24560   5.753   9.878   3.131  0.6994  0.6172 -0.2741
 4544SOL    HW124561   5.775   9.940   3.055  1.5029  1.0515  0.2921
 4544SOL    HW224562   5.688   9.923   3.192  0.5231  0.5137 -0.3871
 4545SOL     OW24563   2.286   3.266   4.570 -0.5573  0.3074 -0.4387
 4545SOL    HW124564   2.188   3.253   4.584 -0.5340  0.4835 -0.1154
 4545SOL    HW224565   2.302   3.352   4.522 -0.5024  0.7277  0.3298
 4546SOL     OW24566   1.459   2.528   0.720  0.3603 -0.4734  0.1602
 4546SOL    HW124567   1.507   2.512   0.807  1.9560 -0.7740 -0.7684
 4546SOL    HW224568   1.485   2.617   0.683  0.7617 -0.9504 -0.7151
 4547SOL     OW24569   1.235   7.294   0.805 -0.4274  0.5182  0.5215
 4547SOL    HW124570   1.280   7.375   0.843  1.8444 -0.0783 -0.8209
 4547SOL    HW224571   1.273   7.212   0.847 -0.0663 -0.0099 -0.8293
 4548SOL     OW24572   3.100   1.734   4.367 -0.5641  0.4367  0.6968
 4548SOL    HW124573   3.111   1.638   4.340  0.0377  0.5679  0.4545
 4548SOL    HW224574   3.013   1.746   4.414 -1.8786  0.3158 -1.6455
 4549SOL     OW24575   6.258   1.217   2.705 -0.1397  0.0033  0.0408
 4549SOL    HW124576   6.174   1.268   2.685  0.6194  1.6348  0.9497
 4549SOL    HW224577   6.297   1.248   2.791  0.8038 -1.5556  0.2059
 4550SOL     OW24578   7.162   0.680   6.003  0.0945  0.2877 -0.3397
 4550SOL    HW124579   7.074   0.643   5.975 -0.4632  1.8348 -0.6790
 4550SOL    HW224580   7.223   0.605   6.030 -0.1556 -1.0841 -3.3774
 4551SOL     OW24581   9.659   2.607   2.788 -0.1582  0.2002  0.3360
 4551SOL    HW124582   9.723   2.585   2.861 -0.7464 -2.0451  0.2151
 4551SOL    HW224583   9.703   2.596   2.699 -0.7052 -1.4903  0.2477
 4552SOL     OW24584   3.065   3.556   3.428  0.3261 -0.1992  0.0838
 4552SOL    HW124585   2.999   3.627   3.452  0.7636  0.4832 -0.7382
 4552SOL    HW224586   3.016   3.472   3.403 -0.2381  0.3803 -0.7740
 4553SOL     OW24587   4.795   2.554   4.955  0.6060 -0.1142  0.2109
 4553SOL    HW124588   4.841   2.562   4.866 -0.0942 -1.6248 -0.3042
 4553SOL    HW224589   4.863   2.554   5.028  1.3014 -0.5773 -0.4343
 4554SOL     OW24590   1.464   0.157   2.625  0.3965  0.0581  0.7131
 4554SOL    HW124591   1.379   0.203   2.601  0.0225 -0.5250  0.9049
 4554SOL    HW224592   1.518   0.216   2.685  1.1118  1.3205 -1.1292
 4555SOL     OW24593   9.670   5.863   1.616 -0.3314 -0.8889 -0.3068
 4555SOL    HW124594   9.744   5.813   1.661 -0.0164  0.3027  0.5240
 4555SOL    HW224595   9.700   5.956   1.594 -1.6332 -0.3311  0.2099
 4556SOL     OW24596   8.631   2.769   3.825 -0.1928  0.4421 -0.6603
 4556SOL    HW124597   8.545   2.728   3.854  1.4642 -0.6382  3.0047
 4556SOL    HW224598   8.652   2.848   3.883  2.1894 -0.4174 -0.3000
 4557SOL     OW24599   1.629   1.785   1.977  0.1719  0.1528  0.4368
 4557SOL    HW124600   1.679   1.819   2.057 -0.6091  0.5852  0.7446
 4557SOL    HW224601   1.694   1.747   1.911  0.8538  0.1168  1.1188
 4558SOL     OW24602   1.344   3.338   3.199 -0.1318 -0.2317 -0.0856
 4558SOL    HW124603   1.333   3.342   3.298 -0.4631 -0.5640 -0.1109
 4558SOL    HW224604   1.318   3.427   3.159 -1.5835 -0.6267 -0.0302
 4559SOL     OW24605   0.205   6.035   0.759  0.1638  0.6396  0.1895
 4559SOL    HW124606   0.184   6.131   0.776 -1.4797  0.0723  1.4932
 4559SOL    HW224607   0.198   6.016   0.661 -3.1405  1.0638  0.2844
 4560SOL     OW24608   8.473   9.283   4.809 -0.0897 -0.5933  0.0606
 4560SOL    HW124609   8.549   9.340   4.781  0.0359 -0.4964  0.5972
 4560SOL    HW224610   8.420   9.330   4.880 -1.5098 -0.0199 -1.3421
 4561SOL     OW24611   3.770   7.647   4.907 -0.2682 -0.4348 -0.2053
 4561SOL    HW124612   3.693   7.705   4.932  0.4816  1.2066 -1.5757
 4561SOL    HW224613   3.779   7.644   4.807  2.5860  1.0332 -0.0525
 4562SOL     OW24614   1.153   1.635   2.597 -0.5488 -0.1119  0.4689
 4562SOL    HW124615   1.192   1.726   2.586 -0.8015 -0.2312 -1.4780
 4562SOL    HW224616   1.082   1.620   2.529  0.7497 -2.4422 -0.4437
 4563SOL     OW24617   8.555   1.822   1.050 -0.4052  0.3992 -0.3601
 4563SOL    HW124618   8.474   1.794   0.997 -1.4769  1.6998  0.5658
 4563SOL    HW224619   8.630   1.843   0.988 -0.8280 -0.6499 -1.2415
 4564SOL     OW24620   3.871   9.179   4.422  0.0363 -0.5332 -0.1115
 4564SOL    HW124621   3.848   9.153   4.328 -0.6105  0.0317 -0.1211
 4564SOL    HW224622   3.829   9.268   4.442  1.0028 -0.1791  0.3786
 4565SOL     OW24623   7.759   6.874   4.182 -0.2478  0.4675  0.1616
 4565SOL    HW124624   7.715   6.940   4.121 -0.9225  0.5415  0.7286
 4565SOL    HW224625   7.842   6.914   4.220  0.0720  0.4924 -0.5636
 4566SOL     OW24626   7.991   0.356   5.592  0.1228  0.8960  0.1911
 4566SOL    HW124627   8.009   0.275   5.537  2.0593  1.2255  0.2907
 4566SOL    HW224628   7.911   0.404   5.557  1.1105  0.9104 -2.1239
 4567SOL     OW24629   8.813   4.662   3.052  0.0667 -0.0593  0.3122
 4567SOL    HW124630   8.831   4.675   3.150 -1.9705 -0.1113  0.7186
 4567SOL    HW224631   8.798   4.565   3.034 -1.4474  0.1564  0.3153
 4568SOL     OW24632   7.976   0.191   2.179 -0.2494  0.2785 -0.5596
 4568SOL    HW124633   7.934   0.278   2.204 -0.6976  0.3594 -1.5756
 4568SOL    HW224634   7.904   0.125   2.155  0.0781 -0.4023  0.2945
 4569SOL     OW24635   0.409   3.791   4.289 -0.2649  0.0088  0.4401
 4569SOL    HW124636   0.311   3.800   4.272 -0.1317  1.1311  0.2228
 4569SOL    HW224637   0.451   3.882   4.294  0.2316 -0.3268  3.5979
 4570SOL     OW24638   7.718   8.682   4.421  0.0704 -0.1470 -0.3593
 4570SOL    HW124639   7.783   8.754   4.446 -0.5152  1.1545 -2.4969
 4570SOL    HW224640   7.688   8.695   4.327 -2.8425 -1.0585  0.3838
 4571SOL     OW24641   7.335   0.216   6.381  0.0495 -0.4061 -0.0481
 4571SOL    HW124642   7.370   0.310   6.383  1.0788 -0.7212 -1.8985
 4571SOL    HW224643   7.236   0.218   6.374 -0.1075  0.5204  2.0581
 4572SOL     OW24644   1.001   5.341   4.260 -0.2893  0.0430 -0.0847
 4572SOL    HW124645   0.969   5.302   4.346  0.1175 -1.0383 -0.4194
 4572SOL    HW224646   1.093   5.377   4.272 -0.8612  1.4209  0.3644
 4573SOL     OW24647   4.510   9.184   5.042  0.0958 -0.1791 -0.1036
 4573SOL    HW124648   4.594   9.210   4.995  0.9123 -1.1437  0.8102
 4573SOL    HW224649   4.489   9.253   5.112 -1.0856  1.2182 -1.7977
 4574SOL     OW24650   5.020   1.577   3.801  0.4976  0.2708 -0.4258
 4574SOL    HW124651   5.089   1.512   3.832  0.4514  0.2271 -0.4147
 4574SOL    HW224652   5.064   1.662   3.774  0.5580  0.2355 -0.4394
 4575SOL     OW24653   6.938   4.656   0.519  0.5255 -0.5424  0.6509
 4575SOL    HW124654   6.888   4.722   0.463 -0.1571 -2.2017 -0.7415
 4575SOL    HW224655   7.028   4.692   0.540 -0.1843  1.2419  0.7352
 4576SOL     OW24656   1.478   7.802   5.047 -0.5876  0.2170 -0.2568
 4576SOL    HW124657   1.528   7.786   5.132 -1.4217 -1.1377 -0.0014
 4576SOL    HW224658   1.510   7.886   5.004  0.9324  0.0811  0.6044
 4577SOL     OW24659   4.854   3.774   1.201 -0.5830 -0.3768 -0.7101
 4577SOL    HW124660   4.843   3.719   1.284 -1.6678 -0.1416 -0.6827
 4577SOL    HW224661   4.909   3.724   1.135  0.2339 -0.5943  0.1318
 4578SOL     OW24662   7.005   0.327   1.205 -0.2201 -0.6133  0.1761
 4578SOL    HW124663   6.972   0.381   1.282 -2.8898  0.0281 -1.3667
 4578SOL    HW224664   7.077   0.379   1.157 -0.9928  0.4874  0.1908
 4579SOL     OW24665   7.517   7.358   2.876 -0.1035 -0.3764  0.2401
 4579SOL    HW124666   7.460   7.438   2.855  0.9449  0.3785  0.2707
 4579SOL    HW224667   7.613   7.381   2.863  0.2126 -1.6070  0.3529
 4580SOL     OW24668   8.097   8.153   5.275 -0.0575 -0.1789  0.3519
 4580SOL    HW124669   8.180   8.198   5.243  0.0581  0.1933  1.1548
 4580SOL    HW224670   8.045   8.216   5.333 -1.6141  0.0669 -1.2778
 4581SOL     OW24671   4.518   2.642   0.589 -0.3523 -0.3690  0.5049
 4581SOL    HW124672   4.583   2.635   0.665  0.7334  0.7018 -0.2902
 4581SOL    HW224673   4.427   2.614   0.620  0.3999 -1.5130  1.7528
 4582SOL     OW24674   3.953   2.883   2.795  0.8066  0.7663  0.0503
 4582SOL    HW124675   3.958   2.983   2.805  1.7131  0.7775 -0.5064
 4582SOL    HW224676   3.985   2.857   2.704  0.8529 -0.0634  0.3012
 4583SOL     OW24677   1.609   5.369   4.217  0.3334 -0.1499 -0.3627
 4583SOL    HW124678   1.635   5.342   4.310  0.3123 -0.1039 -0.3429
 4583SOL    HW224679   1.537   5.308   4.184 -0.8384  0.8430  0.2892
 4584SOL     OW24680   3.062   3.866   3.478 -0.1444 -0.8768  0.0395
 4584SOL    HW124681   3.152   3.826   3.495 -0.4887 -1.2368  1.0497
 4584SOL    HW224682   3.002   3.848   3.556 -1.1581 -0.8126 -0.7177
 4585SOL     OW24683   9.672   9.972   4.787 -0.0185  0.1618  0.1389
 4585SOL    HW124684   9.623   9.960   4.874  1.1349 -0.6038  0.6922
 4585SOL    HW224685   9.611   9.946   4.712 -2.0585  3.7116  0.4653
 4586SOL     OW24686   5.035   8.015   2.532 -0.2286  0.7994 -0.1645
 4586SOL    HW124687   4.974   8.030   2.609  0.5090 -2.6225  1.1552
 4586SOL    HW224688   5.119   8.068   2.545 -0.6873  1.3348  0.6341
 4587SOL     OW24689   9.044   5.961   0.733 -0.2158 -0.8083 -0.0253
 4587SOL    HW124690   9.008   6.013   0.656  0.5109 -1.8197 -1.0677
 4587SOL    HW224691   9.027   5.863   0.719  0.2376 -1.0332  0.9159
 4588SOL     OW24692   8.879   1.085   4.475 -0.0658 -0.2594  0.0329
 4588SOL    HW124693   8.845   0.991   4.478  0.7450 -0.5498  0.5037
 4588SOL    HW224694   8.895   1.112   4.380 -0.3154 -0.5900 -0.1040
 4589SOL     OW24695   2.768   5.963   4.899 -0.3205 -0.3244 -0.1914
 4589SOL    HW124696   2.736   5.958   4.994 -0.2192 -1.2107 -0.2002
 4589SOL    HW224697   2.763   5.872   4.857  0.1008 -0.0332 -0.8827
 4590SOL     OW24698   7.887   9.277   5.961  0.1493  0.1710  0.8764
 4590SOL    HW124699   7.939   9.357   5.932  0.0374 -0.0014  0.1982
 4590SOL    HW224700   7.883   9.274   6.061  1.4811  0.1534  0.9255
 4591SOL     OW24701   2.063   2.541   1.314  0.9081  0.0227 -0.0322
 4591SOL    HW124702   1.985   2.591   1.350 -1.1970 -2.1594 -1.4321
 4591SOL    HW224703   2.080   2.461   1.371  1.5448 -0.0080 -0.2633
 4592SOL     OW24704   7.321   4.139   0.660 -0.1814  0.3682  0.4759
 4592SOL    HW124705   7.229   4.114   0.629 -0.2808 -1.2508  1.9773
 4592SOL    HW224706   7.388   4.083   0.612 -0.2817 -1.5226  2.4532
 4593SOL     OW24707   3.757   6.246   1.967  0.9008 -0.0031  0.4681
 4593SOL    HW124708   3.842   6.261   1.915  1.0783 -0.1927  0.7006
 4593SOL    HW224709   3.696   6.188   1.914  0.5728  0.8150 -0.0562
 4594SOL     OW24710   8.543   3.017   3.508  0.4258  0.0081  0.8663
 4594SOL    HW124711   8.608   3.033   3.581 -0.4313 -0.8214  1.8373
 4594SOL    HW224712   8.453   3.052   3.535  0.1975  0.0711  0.0444
 4595SOL     OW24713   3.113   7.632   3.783 -0.1069  0.2092  0.1233
 4595SOL    HW124714   3.093   7.690   3.704 -1.2702  0.0907  0.3277
 4595SOL    HW224715   3.184   7.675   3.839  0.4718  0.4627 -0.7940
 4596SOL     OW24716   4.045   4.755   3.353  0.1553 -0.3275  0.2188
 4596SOL    HW124717   4.132   4.798   3.328 -0.1243 -0.5167 -1.1542
 4596SOL    HW224718   3.969   4.807   3.313 -0.2193 -1.6905 -0.9041
 4597SOL     OW24719   6.452   7.128   4.267  0.3120 -0.7477  0.5454
 4597SOL    HW124720   6.395   7.054   4.303 -0.8968 -0.1015 -0.0132
 4597SOL    HW224721   6.436   7.211   4.320  1.6929 -0.8806  1.1896
 4598SOL     OW24722   2.018   4.598   1.132  0.1734  0.4547 -0.9300
 4598SOL    HW124723   2.062   4.593   1.042 -1.2986  0.6508 -1.6758
 4598SOL    HW224724   1.928   4.554   1.128  0.8432 -1.1569  0.9240
 4599SOL     OW24725   9.237   2.159   1.404  0.0127  0.5031  0.1487
 4599SOL    HW124726   9.140   2.180   1.417  0.5406  2.5117  1.0179
 4599SOL    HW224727   9.283   2.155   1.493  0.6909 -0.6915 -0.2378
 4600SOL     OW24728   7.817   9.333   0.947  0.3760  0.6164 -0.4697
 4600SOL    HW124729   7.793   9.276   0.869  1.1875 -1.4413  0.7280
 4600SOL    HW224730   7.790   9.286   1.032  2.7347  1.1476  0.6266
 4601SOL     OW24731   0.730   2.400   1.599  0.2391 -0.3211  0.1999
 4601SOL    HW124732   0.760   2.494   1.615  0.7505 -0.6675  1.3121
 4601SOL    HW224733   0.633   2.400   1.575  0.6612  0.6449 -1.6453
 4602SOL     OW24734   0.794   7.980   3.051 -0.6172  0.0229 -0.3087
 4602SOL    HW124735   0.815   7.918   2.975  0.0566  1.9678 -1.7343
 4602SOL    HW224736   0.880   8.017   3.088 -0.9766 -0.4184  0.9950
 4603SOL     OW24737   0.506   9.256   2.916 -0.4452 -0.1944 -0.5079
 4603SOL    HW124738   0.546   9.346   2.902  1.3460 -0.9682 -0.4361
 4603SOL    HW224739   0.428   9.244   2.854 -1.7232  1.9887  0.5975
 4604SOL     OW24740   0.992   7.381   2.623 -0.5035  0.4406 -0.0998
 4604SOL    HW124741   0.960   7.398   2.530 -0.3220 -0.0390 -0.2518
 4604SOL    HW224742   0.914   7.385   2.686 -0.4263  2.1017 -0.0849
 4605SOL     OW24743   5.182   0.697   0.674  0.0888 -0.2912  0.2128
 4605SOL    HW124744   5.188   0.764   0.747  2.7252 -1.6666  1.3353
 4605SOL    HW224745   5.256   0.630   0.684 -0.8797 -1.8322 -2.3908
 4606SOL     OW24746   1.307   4.150   1.326  0.4357  0.4007 -0.0859
 4606SOL    HW124747   1.374   4.154   1.253  1.0913 -1.8059  0.3822
 4606SOL    HW224748   1.349   4.183   1.411  0.8221 -0.6380  0.1278
 4607SOL     OW24749   7.333   9.371   1.703  0.5860  0.4763  0.0725
 4607SOL    HW124750   7.388   9.328   1.775  0.3367  0.0769  0.0241
 4607SOL    HW224751   7.236   9.357   1.722  0.5336 -0.5965 -0.9172
 4608SOL     OW24752   8.999   7.167   0.792  0.4371  0.1214 -0.3358
 4608SOL    HW124753   9.002   7.187   0.694 -1.4906 -4.4616 -1.4814
 4608SOL    HW224754   8.905   7.172   0.824  0.9052  0.3789  1.0051
 4609SOL     OW24755   2.998   5.534   0.309 -0.2058 -0.0363 -0.3160
 4609SOL    HW124756   2.983   5.436   0.326 -0.3887  0.0668  0.1083
 4609SOL    HW224757   2.910   5.580   0.299 -0.1451  0.2852  0.6006
 4610SOL     OW24758   6.775   9.791   3.372 -0.1863 -0.4761 -0.1471
 4610SOL    HW124759   6.833   9.850   3.429  0.4435 -0.2444 -1.0105
 4610SOL    HW224760   6.827   9.763   3.291 -1.1763 -0.5391 -0.7604
 4611SOL     OW24761   8.973   6.225   0.227 -0.3195 -0.0472  0.2804
 4611SOL    HW124762   8.886   6.177   0.236  0.5710 -2.2436 -2.3133
 4611SOL    HW224763   8.956   6.322   0.208 -2.1838 -0.4956 -0.3657
 4612SOL     OW24764   4.377   5.379   1.687  0.1844  0.7229 -0.7527
 4612SOL    HW124765   4.357   5.285   1.659 -0.0489  0.7888 -0.8028
 4612SOL    HW224766   4.471   5.402   1.661  0.4713  0.2740 -0.1395
 4613SOL     OW24767   8.354   7.818   3.839  0.3758  0.1862  0.1421
 4613SOL    HW124768   8.311   7.800   3.750 -0.5456  0.8426  0.4543
 4613SOL    HW224769   8.438   7.764   3.846 -0.2699 -0.9458 -0.5608
 4614SOL     OW24770   7.982   2.382   2.123  0.8110  0.5154  0.8089
 4614SOL    HW124771   8.080   2.391   2.105  1.1871  0.0743  2.4835
 4614SOL    HW224772   7.934   2.462   2.088  1.5071 -0.0926 -1.6649
 4615SOL     OW24773   1.661   6.181   1.544 -0.4261  0.2767 -0.2522
 4615SOL    HW124774   1.738   6.136   1.499  0.4012  1.2897  0.1252
 4615SOL    HW224775   1.577   6.162   1.493 -0.1560 -1.9066  0.0554
 4616SOL     OW24776   2.790   6.444   0.365  0.1877 -0.0172 -0.2761
 4616SOL    HW124777   2.703   6.460   0.413  0.6564 -0.5575  0.7796
 4616SOL    HW224778   2.865   6.480   0.420  0.7636 -0.9311 -0.4438
 4617SOL     OW24779   0.062   0.622   1.741 -0.3498 -0.7490 -0.1460
 4617SOL    HW124780   0.013   0.538   1.767 -1.2072 -0.4379 -0.7263
 4617SOL    HW224781   0.147   0.598   1.694 -0.5508 -1.3022 -0.2296
 4618SOL     OW24782   1.011   3.760   0.536 -0.5282 -0.1036  0.0163
 4618SOL    HW124783   0.976   3.713   0.455  2.6906  2.3573 -2.9556
 4618SOL    HW224784   1.111   3.757   0.535 -0.3489  3.0461  2.0033
 4619SOL     OW24785   9.717   6.973   3.903 -0.3943  0.4910  0.4240
 4619SOL    HW124786   9.739   7.005   3.995 -1.6363  0.8784  0.6031
 4619SOL    HW224787   9.800   6.947   3.855  0.0745 -1.6481  2.3615
 4620SOL     OW24788   6.916   2.538   4.172 -0.1859  0.3695  0.4027
 4620SOL    HW124789   6.965   2.616   4.133 -0.9307  0.6172 -0.0526
 4620SOL    HW224790   6.970   2.455   4.161 -0.1795  0.5160 -0.7451
 4621SOL     OW24791   0.055   3.247   5.223  0.3593 -0.1573 -0.0821
 4621SOL    HW124792   0.048   3.229   5.125  1.7066 -0.1731 -0.1900
 4621SOL    HW224793   0.066   3.345   5.238  1.5977 -0.2990 -0.0428
 4622SOL     OW24794   0.492   0.658   3.616 -0.2841  0.0309  0.3588
 4622SOL    HW124795   0.456   0.670   3.709  0.8349 -1.6464  1.0180
 4622SOL    HW224796   0.516   0.562   3.601  0.8962  0.5418 -1.1781
 4623SOL     OW24797   7.628   0.985   2.897  0.2093  0.2420  0.3396
 4623SOL    HW124798   7.605   1.079   2.924  0.7076  0.0294  1.5159
 4623SOL    HW224799   7.624   0.925   2.977  1.8842 -0.3750 -0.0220
 4624SOL     OW24800   4.312   1.922   3.914 -0.2098 -0.2461 -0.3269
 4624SOL    HW124801   4.408   1.952   3.915  0.3275 -1.9346  1.5576
 4624SOL    HW224802   4.308   1.825   3.892 -1.7064  0.3790 -3.0255
 4625SOL     OW24803   9.200   2.789   4.062 -0.4780  0.1140  0.3221
 4625SOL    HW124804   9.172   2.880   4.094 -2.0928 -0.1504 -0.2548
 4625SOL    HW224805   9.140   2.720   4.102 -0.0541 -0.5711 -0.2218
 4626SOL     OW24806   0.922   5.379   6.715  0.1787 -0.2200 -0.7618
 4626SOL    HW124807   0.848   5.314   6.700  0.9964 -1.0676 -1.2386
 4626SOL    HW224808   0.890   5.472   6.699 -0.9864 -0.5096 -0.1500
 4627SOL     OW24809   8.130   7.637   3.065 -0.1039  0.0510  0.0337
 4627SOL    HW124810   8.120   7.730   3.099  0.1828  0.4073 -0.8207
 4627SOL    HW224811   8.086   7.573   3.127 -0.0451  0.7305  0.7817
 4628SOL     OW24812   9.695   6.847   0.093 -0.6109  0.6233  0.6250
 4628SOL    HW124813   9.774   6.907   0.097 -0.2371  0.0868  1.3793
 4628SOL    HW224814   9.686   6.796   0.179  0.2195 -1.8258 -0.6894
 4629SOL     OW24815   0.600   5.761   1.480  0.2213 -0.2188  0.0790
 4629SOL    HW124816   0.539   5.839   1.469  0.7590 -0.0076 -1.6364
 4629SOL    HW224817   0.662   5.776   1.557  0.3779  1.0832 -0.2956
 4630SOL     OW24818   9.812   4.570   0.584 -0.1570  0.0107 -0.1818
 4630SOL    HW124819   9.837   4.663   0.609 -1.1745  0.1176  0.4524
 4630SOL    HW224820   9.834   4.554   0.487  1.4939  0.3817  0.1072
 4631SOL     OW24821   8.490   5.907   0.779  0.1894  0.0892 -0.2928
 4631SOL    HW124822   8.407   5.908   0.723 -0.1656 -0.7746  0.2029
 4631SOL    HW224823   8.517   6.000   0.801  0.0482  0.4146 -1.4849
 4632SOL     OW24824   2.756   3.676   4.138 -0.1080  0.3927 -0.2398
 4632SOL    HW124825   2.777   3.601   4.075  1.6782  0.7777 -0.1279
 4632SOL    HW224826   2.799   3.657   4.227  0.0793  1.3877 -0.1188
 4633SOL     OW24827   5.609   1.757   1.876  0.5990 -0.0866 -0.2936
 4633SOL    HW124828   5.509   1.751   1.874  0.4665  0.8039  2.1501
 4633SOL    HW224829   5.644   1.700   1.950  1.9321 -0.3080 -1.0663
 4634SOL     OW24830   3.257   8.325   2.831 -0.4025  0.0931 -0.9851
 4634SOL    HW124831   3.326   8.260   2.863  0.7609  1.2712 -1.0532
 4634SOL    HW224832   3.187   8.276   2.779 -0.8183 -1.4375  0.9461
 4635SOL     OW24833   9.741   5.308   5.408  0.0907 -0.2850  0.1802
 4635SOL    HW124834   9.646   5.315   5.378  1.1897  4.4286 -2.7546
 4635SOL    HW224835   9.751   5.357   5.495  0.0303  0.3032 -0.1373
 4636SOL     OW24836   1.363   5.892   3.854  0.2046  0.5239  0.6999
 4636SOL    HW124837   1.395   5.817   3.911 -0.7070  1.3796  2.3694
 4636SOL    HW224838   1.434   5.962   3.847 -0.1040  0.9487  1.7524
 4637SOL     OW24839   8.865   6.492   5.764 -0.6466  0.2282  0.1916
 4637SOL    HW124840   8.884   6.580   5.806 -0.2130  0.6273 -0.8075
 4637SOL    HW224841   8.925   6.480   5.684  0.1091 -1.4594  0.9699
 4638SOL     OW24842   9.012   1.377   0.804  0.5257  0.3989 -0.1397
 4638SOL    HW124843   9.057   1.352   0.890  2.3147  0.4714 -1.0409
 4638SOL    HW224844   8.993   1.294   0.751 -0.7284  0.3409  0.3873
 4639SOL     OW24845   1.015   2.585   3.207 -0.1694 -0.7580 -0.2040
 4639SOL    HW124846   0.927   2.602   3.162  0.1632 -0.8837 -0.9127
 4639SOL    HW224847   1.035   2.487   3.205  0.3095 -0.6584 -0.6770
 4640SOL     OW24848   0.300   5.326   2.948  0.2804  0.1181 -0.4830
 4640SOL    HW124849   0.321   5.346   2.853  0.0560  0.0528 -0.5457
 4640SOL    HW224850   0.342   5.395   3.007  1.4016 -0.5000 -0.5554
 4641SOL     OW24851   4.394   2.455   2.563  0.3761 -0.3264 -0.4081
 4641SOL    HW124852   4.304   2.415   2.554  0.1619  0.4814 -2.1339
 4641SOL    HW224853   4.436   2.425   2.649 -1.7787 -0.1869  0.7345
 4642SOL     OW24854   4.914   1.866   4.187 -0.2161  0.2379  0.0720
 4642SOL    HW124855   4.900   1.779   4.140 -0.3675  0.3673 -0.1222
 4642SOL    HW224856   4.995   1.912   4.150 -0.6164  0.5684 -0.4046
 4643SOL     OW24857   8.229   3.735   1.570  0.3311 -0.1920  0.3445
 4643SOL    HW124858   8.185   3.702   1.653 -0.4585  0.2778  0.1234
 4643SOL    HW224859   8.266   3.827   1.586  0.2839 -0.1492  0.2097
 4644SOL     OW24860   9.838   3.460   6.373 -0.1180 -0.0406  0.2876
 4644SOL    HW124861   9.741   3.482   6.366  0.0135  1.2641  2.1330
 4644SOL    HW224862   9.849   3.363   6.398 -0.9327 -0.2936 -0.3404
 4645SOL     OW24863   3.077   3.405   1.389 -0.3843 -0.0820 -0.1882
 4645SOL    HW124864   3.120   3.443   1.308 -0.1998  1.7398  0.7367
 4645SOL    HW224865   3.039   3.479   1.445  0.6399 -1.1874  2.0514
 4646SOL     OW24866   5.001   9.585   1.559 -0.5065  0.4130 -0.0163
 4646SOL    HW124867   4.960   9.499   1.588 -1.6043  0.7724 -0.4760
 4646SOL    HW224868   4.936   9.659   1.573 -0.3051  0.8800 -1.4887
 4647SOL     OW24869   0.632   8.612   5.050 -0.0626  0.3621 -0.1787
 4647SOL    HW124870   0.605   8.693   4.998 -1.2915  1.2993  1.8205
 4647SOL    HW224871   0.568   8.538   5.031 -0.5820  0.7400  0.0649
 4648SOL     OW24872   4.097   6.917   1.742  0.2648 -0.1705 -0.1942
 4648SOL    HW124873   4.155   6.842   1.712  1.3945  0.5903  0.0343
 4648SOL    HW224874   4.069   6.971   1.663 -1.7093 -1.6332 -0.5136
 4649SOL     OW24875   4.907   8.706   2.806 -0.3856 -0.4481  0.5911
 4649SOL    HW124876   4.941   8.780   2.863  0.9021 -0.5514 -0.0141
 4649SOL    HW224877   4.977   8.680   2.740 -1.1621 -1.5910  0.1935
 4650SOL     OW24878   4.296   9.471   4.172 -0.1839  0.6232 -0.5949
 4650SOL    HW124879   4.329   9.533   4.243 -1.6363  2.1460 -1.2305
 4650SOL    HW224880   4.213   9.425   4.203  0.6335 -0.6864 -0.3032
 4651SOL     OW24881   3.908   9.483   4.418  0.6068 -0.3778  0.4279
 4651SOL    HW124882   4.004   9.468   4.394  0.3034 -0.9177 -0.4609
 4651SOL    HW224883   3.868   9.551   4.356  0.6945  0.6397  1.4645
 4652SOL     OW24884   5.570   0.265   3.947  0.2280 -0.1554  0.5639
 4652SOL    HW124885   5.657   0.264   3.995 -0.4394 -0.4361  1.7903
 4652SOL    HW224886   5.558   0.354   3.901  0.7117  0.2479  1.2184
 4653SOL     OW24887   8.502   4.916   6.727 -0.0692 -0.1914  0.7588
 4653SOL    HW124888   8.443   4.848   6.684  1.6117 -0.3601 -1.3978
 4653SOL    HW224889   8.529   4.885   6.818 -0.5698 -1.6742  0.4139
 4654SOL     OW24890   0.843   7.265   4.324  0.0064  0.2230  0.3972
 4654SOL    HW124891   0.766   7.304   4.375 -1.4439  0.5267 -1.9673
 4654SOL    HW224892   0.855   7.314   4.238  0.7577 -1.9056 -0.7538
 4655SOL     OW24893   9.800   1.871   3.530 -0.3202 -0.2921 -0.2009
 4655SOL    HW124894   9.863   1.796   3.552 -2.3052 -1.6202  1.1837
 4655SOL    HW224895   9.706   1.836   3.527 -0.9651  1.5293 -2.8047
 4656SOL     OW24896   4.030   7.310   1.969  0.8675  0.1934  0.6081
 4656SOL    HW124897   3.962   7.371   2.010  1.5714 -0.4016  2.7563
 4656SOL    HW224898   4.121   7.351   1.978  1.3030 -0.9805  1.7483
 4657SOL     OW24899   3.575   3.193   0.239  0.4283 -0.1288  0.8751
 4657SOL    HW124900   3.606   3.113   0.292  0.1828 -0.7801  0.0514
 4657SOL    HW224901   3.511   3.163   0.169  1.3804  0.6125 -0.3266
 4658SOL     OW24902   1.725   3.961   6.685  0.3718  0.5175  0.2151
 4658SOL    HW124903   1.825   3.966   6.682  0.3596  0.3238 -0.5594
 4658SOL    HW224904   1.693   3.997   6.773  1.0637  1.4857  0.0785
 4659SOL     OW24905   6.550   8.620   5.163 -0.2111  0.2426  0.3414
 4659SOL    HW124906   6.492   8.616   5.245 -0.4988 -1.0788  0.0875
 4659SOL    HW224907   6.494   8.645   5.084 -0.3924 -0.7003  0.1580
 4660SOL     OW24908   8.159   1.825   2.165 -0.2638 -0.2952  0.6024
 4660SOL    HW124909   8.175   1.910   2.115 -2.6113 -0.0276  0.2408
 4660SOL    HW224910   8.137   1.846   2.260 -1.2033 -0.4666  0.4263
 4661SOL     OW24911   0.710   5.568   1.282  0.3119  0.7822 -0.6336
 4661SOL    HW124912   0.670   5.635   1.343  1.2826  0.8556 -0.0631
 4661SOL    HW224913   0.744   5.613   1.199  1.1090  1.0329 -0.1791
 4662SOL     OW24914   9.957   5.686   4.003 -0.9441 -0.7007 -0.3012
 4662SOL    HW124915  10.020   5.696   3.926 -1.0267 -1.0630 -0.4179
 4662SOL    HW224916   9.982   5.750   4.076 -0.8925 -0.3262 -0.6467
 4663SOL     OW24917   1.513   1.636   3.945 -0.0578 -0.5170  0.2287
 4663SOL    HW124918   1.420   1.602   3.931 -0.0294 -0.2354 -0.6486
 4663SOL    HW224919   1.541   1.618   4.039 -0.6940 -1.3453  0.2608
 4664SOL     OW24920   7.168   1.631   3.531 -0.1475  0.2636 -0.0172
 4664SOL    HW124921   7.168   1.682   3.617 -0.5847  0.4396 -0.1203
 4664SOL    HW224922   7.178   1.533   3.551 -0.6952  0.2638  0.2590
 4665SOL     OW24923   6.914   0.477   5.029  0.2552 -0.0915  0.3357
 4665SOL    HW124924   6.945   0.444   4.941 -0.4135  1.5776 -0.5532
 4665SOL    HW224925   6.837   0.421   5.060  0.4372 -0.6287 -0.1733
 4666SOL     OW24926   6.364   9.067   3.896  0.2337  0.3199  0.4632
 4666SOL    HW124927   6.398   8.976   3.873 -0.8003  0.6938 -2.7384
 4666SOL    HW224928   6.433   9.135   3.873 -0.2492  0.5967 -0.1556
 4667SOL     OW24929   5.057   9.541   3.969 -0.0845  0.4523  0.2283
 4667SOL    HW124930   5.129   9.486   4.012  0.5666 -1.0226 -2.6234
 4667SOL    HW224931   4.968   9.515   4.007  0.4693 -0.7627  0.7269
 4668SOL     OW24932   1.814   8.158   1.850  0.4917 -0.3917  0.3015
 4668SOL    HW124933   1.899   8.196   1.886  0.3281  0.0476  0.2239
 4668SOL    HW224934   1.776   8.094   1.916  0.3397  0.1987  0.7860
 4669SOL     OW24935   4.220   0.279   4.172  0.0699  0.0841 -0.0059
 4669SOL    HW124936   4.263   0.367   4.154  0.1022 -0.3875 -2.3239
 4669SOL    HW224937   4.121   0.291   4.182  0.4113  0.8166  2.9203
 4670SOL     OW24938   8.030   7.907   2.432  0.0758 -0.1646 -0.5148
 4670SOL    HW124939   8.111   7.884   2.377  0.4357 -1.8816  0.7148
 4670SOL    HW224940   8.058   7.952   2.516 -0.0739 -2.3823  0.7715
 4671SOL     OW24941   8.458   1.508   5.200 -0.3968  1.0932  0.1194
 4671SOL    HW124942   8.523   1.434   5.185 -0.4516  1.3337 -1.3165
 4671SOL    HW224943   8.457   1.569   5.121 -3.3502  0.3324 -0.4893
 4672SOL     OW24944   7.339   9.691   1.819 -0.0823 -0.1691 -0.2490
 4672SOL    HW124945   7.297   9.632   1.750  0.8203 -1.8180  0.5901
 4672SOL    HW224946   7.272   9.759   1.848 -0.2873  0.9418 -3.1593
 4673SOL     OW24947   9.080   6.895   6.620  0.2882  0.4918  0.4113
 4673SOL    HW124948   9.128   6.945   6.548  1.3279  0.7517  1.2919
 4673SOL    HW224949   9.080   6.949   6.704 -2.4568  0.9798  0.1544
 4674SOL     OW24950   8.634   3.738   4.594 -0.2929  0.0967  0.6600
 4674SOL    HW124951   8.677   3.674   4.530  2.0636  0.9048  1.3995
 4674SOL    HW224952   8.693   3.818   4.607 -1.3719  0.5962  2.7701
 4675SOL     OW24953   2.632   6.154   6.445  0.1266 -0.5103 -0.3361
 4675SOL    HW124954   2.627   6.064   6.402  2.4802 -0.2373 -1.2902
 4675SOL    HW224955   2.587   6.152   6.534 -2.2050 -1.8825 -1.5306
 4676SOL     OW24956   2.333   2.562   4.249  0.2541 -0.3418 -0.3930
 4676SOL    HW124957   2.367   2.643   4.296  0.4916  0.1587 -1.4164
 4676SOL    HW224958   2.393   2.542   4.171  0.4360 -1.7351  0.0913
 4677SOL     OW24959   9.736   7.420   6.556 -0.0029 -0.3258 -0.0452
 4677SOL    HW124960   9.783   7.507   6.574 -0.5565 -0.0869  0.2613
 4677SOL    HW224961   9.665   7.406   6.624 -0.5342 -0.5753 -0.6456
 4678SOL     OW24962   4.773   0.109   3.880  0.0411  0.0924 -0.3817
 4678SOL    HW124963   4.801   0.196   3.841  0.1261  0.2156 -0.0484
 4678SOL    HW224964   4.834   0.036   3.849 -0.4777  0.0244 -1.2576
 4679SOL     OW24965   2.306   8.407   5.240  0.2645 -0.1943  0.4527
 4679SOL    HW124966   2.232   8.391   5.175 -0.8225  0.4671  1.5189
 4679SOL    HW224967   2.322   8.505   5.250  1.5750 -0.3434 -0.0898
 4680SOL     OW24968   0.039   7.722   1.322  0.3089  0.3200  0.2064
 4680SOL    HW124969   0.081   7.687   1.406  3.2008 -0.2962 -1.4232
 4680SOL    HW224970  -0.017   7.651   1.281  0.7790 -0.1622  0.3964
 4681SOL     OW24971   4.611   3.587   2.118 -0.2301  0.1927  0.9152
 4681SOL    HW124972   4.706   3.571   2.090 -0.6627  0.8081 -0.9502
 4681SOL    HW224973   4.549   3.544   2.052 -1.3044  3.1943 -0.0711
 4682SOL     OW24974   0.524   6.316   6.106 -0.4716  0.1397 -0.5153
 4682SOL    HW124975   0.587   6.327   6.030  1.0138  2.2816  0.9719
 4682SOL    HW224976   0.435   6.283   6.072  0.6490 -0.4724 -2.9221
 4683SOL     OW24977   1.703   6.619   4.523 -0.0621 -0.0316 -0.5215
 4683SOL    HW124978   1.794   6.582   4.506 -0.0878  0.4832 -1.8974
 4683SOL    HW224979   1.654   6.562   4.589  1.3721 -0.1215  0.4665
 4684SOL     OW24980   0.138   7.755   1.834 -0.1273 -0.1348 -0.0837
 4684SOL    HW124981   0.097   7.821   1.771  0.5553  0.7755  0.4130
 4684SOL    HW224982   0.158   7.800   1.921 -3.9000 -2.1053  1.9135
 4685SOL     OW24983   0.974   7.767   0.391  0.4616  0.4770 -0.9834
 4685SOL    HW124984   1.057   7.822   0.381  0.4864  0.5050 -0.6434
 4685SOL    HW224985   0.897   7.826   0.415  0.5037  0.3594 -0.5438
 4686SOL     OW24986   7.004   2.189   2.948  0.4139 -0.5509 -0.0584
 4686SOL    HW124987   7.093   2.191   2.903  0.3620 -1.1190 -0.1911
 4686SOL    HW224988   6.936   2.150   2.886  0.4631 -1.9248  0.7299
 4687SOL     OW24989   3.284   4.445   5.103 -0.1585 -0.1913  0.6158
 4687SOL    HW124990   3.246   4.369   5.051  1.4193  0.2465 -1.2307
 4687SOL    HW224991   3.381   4.455   5.082 -0.1122  1.7116  1.5881
 4688SOL     OW24992   8.558   5.944   3.821 -0.2329  0.0418  0.2186
 4688SOL    HW124993   8.498   5.961   3.742 -1.6234  0.5933  1.3698
 4688SOL    HW224994   8.530   6.004   3.896  2.8625  1.5357  0.2402
 4689SOL     OW24995   9.322   1.719   0.481  0.6529  0.2119 -0.7263
 4689SOL    HW124996   9.282   1.637   0.521  0.8149  0.3438 -0.2892
 4689SOL    HW224997   9.250   1.779   0.446  0.6156 -1.3602 -3.5428
 4690SOL     OW24998   3.137   5.885   4.514 -0.6574 -0.2691 -0.4947
 4690SOL    HW124999   3.110   5.968   4.563 -0.3730 -0.1886 -0.4745
 4690SOL    HW225000   3.055   5.831   4.494 -0.8171 -0.1133 -0.2746
 4691SOL     OW25001   1.420   3.972   0.980 -0.4121  0.4208 -0.0514
 4691SOL    HW125002   1.333   3.925   0.997 -0.0683  0.1462  0.9618
 4691SOL    HW225003   1.416   4.064   1.020 -0.1769  0.3520  0.1293
 4692SOL     OW25004   3.014   2.401   4.238  0.2419  0.2143 -0.2357
 4692SOL    HW125005   3.099   2.452   4.247  0.3917  0.4774 -2.7438
 4692SOL    HW225006   3.033   2.308   4.207 -0.3530  0.2512 -0.7395
 4693SOL     OW25007   5.003   8.412   3.151 -0.1274  0.1550  0.0524
 4693SOL    HW125008   4.918   8.464   3.143 -0.8467 -0.8541  0.9989
 4693SOL    HW225009   5.036   8.389   3.059 -0.0455  1.8639 -0.3582
 4694SOL     OW25010   9.264   6.547   5.710  0.1041  0.4064 -0.4077
 4694SOL    HW125011   9.265   6.588   5.619 -2.6405 -0.4059 -0.8360
 4694SOL    HW225012   9.275   6.448   5.703  0.6254  0.4207  0.1841
 4695SOL     OW25013   4.286   7.716   2.599 -0.2548 -0.5257 -0.4460
 4695SOL    HW125014   4.280   7.623   2.635 -1.2981  0.1561  1.2259
 4695SOL    HW225015   4.374   7.756   2.624  0.9123 -1.6335 -2.6568
 4696SOL     OW25016   4.726   0.432   2.576 -0.2062  0.2994  0.1503
 4696SOL    HW125017   4.768   0.344   2.601 -1.8737 -0.8651 -1.0252
 4696SOL    HW225018   4.781   0.477   2.506  0.5093  0.0742  0.5595
 4697SOL     OW25019   0.865   4.368   0.850  0.3580 -0.4975  0.0751
 4697SOL    HW125020   0.889   4.438   0.783 -0.3193 -0.1371  0.2081
 4697SOL    HW225021   0.900   4.279   0.819  1.1614 -0.1168 -0.1228
 4698SOL     OW25022   2.728   8.031   3.328 -0.3612 -0.6340 -0.0141
 4698SOL    HW125023   2.715   8.099   3.256  0.6764 -0.2480  0.1589
 4698SOL    HW225024   2.767   8.075   3.409 -0.3112 -1.3134  0.3359
 4699SOL     OW25025   7.978   1.929   1.756 -0.1850 -0.4670  0.5052
 4699SOL    HW125026   8.011   2.000   1.818 -0.9694 -1.0544  1.6150
 4699SOL    HW225027   8.049   1.909   1.688  1.1730 -0.6653  1.9453
 4700SOL     OW25028   8.302   3.977   1.744  0.2013  0.2088 -0.0955
 4700SOL    HW125029   8.272   3.990   1.649 -2.4516  1.2345  0.8449
 4700SOL    HW225030   8.292   4.062   1.794  1.6577 -0.3127  1.1383
 4701SOL     OW25031   2.405   8.893   4.877  0.4019  0.2761 -0.3512
 4701SOL    HW125032   2.402   8.993   4.874 -0.7198  0.2527 -0.5694
 4701SOL    HW225033   2.338   8.856   4.812 -0.2626 -0.5962  0.8042
 4702SOL     OW25034   4.948   8.465   1.587 -0.6910  0.0102 -0.1575
 4702SOL    HW125035   4.851   8.453   1.567 -0.8959  1.5600 -0.1397
 4702SOL    HW225036   4.979   8.553   1.550  1.3952 -1.7310 -2.7127
 4703SOL     OW25037   0.894   5.891   2.382  0.0431 -0.2694 -0.0990
 4703SOL    HW125038   0.933   5.808   2.343 -0.4375 -0.5976  0.1003
 4703SOL    HW225039   0.962   5.965   2.382  1.3224 -1.3998  2.1438
 4704SOL     OW25040   8.757   4.912   6.573 -0.7834  0.2726  0.5861
 4704SOL    HW125041   8.829   4.978   6.595 -1.9350  1.2897  1.4273
 4704SOL    HW225042   8.693   4.907   6.650 -1.8450 -0.2887 -0.3238
 4705SOL     OW25043   0.496   1.458   1.475  0.3471  0.2921 -0.1244
 4705SOL    HW125044   0.476   1.545   1.430  2.6120  1.3707  0.8712
 4705SOL    HW225045   0.500   1.386   1.406 -0.0481  1.2362 -1.1568
 4706SOL     OW25046   9.106   7.830   2.415  0.0930  0.3845 -0.4024
 4706SOL    HW125047   9.204   7.826   2.434 -0.1331 -2.0487  0.4435
 4706SOL    HW225048   9.078   7.745   2.370 -2.2492 -0.4268  2.4736
 4707SOL     OW25049   9.646   1.458   2.254 -0.6833  0.0660 -0.1016
 4707SOL    HW125050   9.619   1.371   2.296  0.5657 -0.5422 -0.5155
 4707SOL    HW225051   9.627   1.454   2.156 -0.3068  0.1335 -0.1760
 4708SOL     OW25052   2.999   5.076   5.417  0.5893  0.1211  0.1333
 4708SOL    HW125053   3.011   5.147   5.486  3.1559 -0.2767  0.1712
 4708SOL    HW225054   3.037   5.108   5.330 -1.0205 -0.0490 -0.6379
 4709SOL     OW25055   5.608   9.042   2.775 -0.0279  0.4988 -0.6325
 4709SOL    HW125056   5.581   9.081   2.687 -1.3152  1.4240  0.1431
 4709SOL    HW225057   5.527   9.005   2.821  0.9452 -1.7847 -0.6856
 4710SOL     OW25058   2.336   3.497   4.392 -0.4291  0.1602 -0.0121
 4710SOL    HW125059   2.247   3.544   4.388 -0.5781 -0.0425  0.8156
 4710SOL    HW225060   2.393   3.529   4.317 -0.8771  0.9755 -0.0222
 4711SOL     OW25061   3.747   5.633   6.282  0.4871 -0.1585 -0.2186
 4711SOL    HW125062   3.690   5.610   6.204 -1.7050 -2.2814  1.9614
 4711SOL    HW225063   3.710   5.714   6.328 -1.5479 -2.1569  1.8296
 4712SOL     OW25064   8.145   8.929   5.049  0.1090 -0.0953 -0.1231
 4712SOL    HW125065   8.124   8.891   5.139 -0.0303 -2.2627 -1.0514
 4712SOL    HW225066   8.243   8.926   5.034  0.0262 -0.9023 -0.5392
 4713SOL     OW25067   2.153   2.823   2.472  0.2408 -0.3221  0.0543
 4713SOL    HW125068   2.170   2.893   2.541  0.6858  0.6220 -0.9879
 4713SOL    HW225069   2.062   2.784   2.486 -0.8149  1.8208 -0.4595
 4714SOL     OW25070   4.811   3.804   2.216  0.9351  0.0680 -0.4526
 4714SOL    HW125071   4.882   3.870   2.194 -1.9922  3.2282 -0.9281
 4714SOL    HW225072   4.756   3.839   2.292 -1.3662 -1.2619 -1.4531
 4715SOL     OW25073   0.915   7.385   4.097  0.1520  0.3673 -0.1121
 4715SOL    HW125074   0.970   7.466   4.119 -2.3769  2.3954 -0.9737
 4715SOL    HW225075   0.932   7.358   4.002 -0.2505  0.9187 -0.3429
 4716SOL     OW25076   8.975   1.008   0.713  0.4552  0.7491  0.0414
 4716SOL    HW125077   8.971   1.027   0.811  0.3251  0.8918  0.0088
 4716SOL    HW225078   8.887   1.031   0.671  0.7828  1.4865 -0.2524
 4717SOL     OW25079   7.291   0.391   5.739  0.3847 -0.0675 -0.1476
 4717SOL    HW125080   7.304   0.430   5.830  1.6888 -0.1830 -0.2761
 4717SOL    HW225081   7.214   0.435   5.694 -2.5310 -2.4013  2.3321
 4718SOL     OW25082   7.963   8.460   5.322 -0.3424  0.0205 -0.1674
 4718SOL    HW125083   7.898   8.454   5.246 -0.6212 -3.9567  0.2837
 4718SOL    HW225084   7.916   8.494   5.403 -1.4703 -1.0819 -0.3285
 4719SOL     OW25085   5.275   4.632   6.515 -0.1295  0.9815 -0.1169
 4719SOL    HW125086   5.366   4.591   6.520 -1.0755 -1.7555 -3.2454
 4719SOL    HW225087   5.213   4.583   6.576 -0.5510 -0.2748 -1.5302
 4720SOL     OW25088   9.041   9.627   3.683 -0.2387 -0.3314  0.6780
 4720SOL    HW125089   9.079   9.671   3.602  0.7816 -0.0789  1.2822
 4720SOL    HW225090   9.077   9.534   3.690 -0.3144 -0.3487  0.8435
 4721SOL     OW25091   4.107   0.256   2.859  0.0354  0.4696  0.2935
 4721SOL    HW125092   4.199   0.281   2.887 -0.0137  1.1440 -0.1367
 4721SOL    HW225093   4.041   0.317   2.903 -0.1620  0.3929  0.1041
 4722SOL     OW25094   3.397   1.138   1.979 -0.3610 -0.7453  0.3291
 4722SOL    HW125095   3.344   1.120   1.897 -0.5892  0.6382  0.1668
 4722SOL    HW225096   3.346   1.199   2.040  1.0313  0.6326  0.1531
 4723SOL     OW25097   7.603   2.826   2.297 -0.2714 -0.1530 -0.0619
 4723SOL    HW125098   7.590   2.850   2.393 -0.4986  1.7591 -0.5440
 4723SOL    HW225099   7.582   2.905   2.239 -0.7071 -1.4392 -1.7298
 4724SOL     OW25100   4.484   2.878   2.249 -0.1430  0.0638 -0.0729
 4724SOL    HW125101   4.533   2.846   2.168  0.5699 -0.3500  0.5149
 4724SOL    HW225102   4.549   2.895   2.323 -0.4691  3.2771 -0.4875
 4725SOL     OW25103   2.592   7.481   0.971  0.1562 -0.4411 -0.3186
 4725SOL    HW125104   2.557   7.489   0.878 -2.3371  0.8758  0.6683
 4725SOL    HW225105   2.677   7.533   0.980 -0.7103  1.1834 -1.3462
 4726SOL     OW25106   9.410   2.796   4.438  0.2892 -0.3191  0.4488
 4726SOL    HW125107   9.418   2.703   4.402  1.0515 -0.6832  1.5301
 4726SOL    HW225108   9.452   2.800   4.529 -1.6896  0.5444  1.3555
 4727SOL     OW25109   0.226   9.868   2.170  0.3088 -0.1700 -0.1100
 4727SOL    HW125110   0.130   9.877   2.143  0.3417  1.1126  0.2010
 4727SOL    HW225111   0.241   9.777   2.209 -0.3181 -1.1053 -2.0115
 4728SOL     OW25112   2.141   5.115   3.311  0.2608 -0.1234 -0.3460
 4728SOL    HW125113   2.095   5.204   3.310 -0.1610 -0.3146  0.9710
 4728SOL    HW225114   2.138   5.075   3.219 -2.0964 -0.0621 -0.3320
 4729SOL     OW25115   8.009   0.400   6.143 -0.1566 -0.0003  0.0502
 4729SOL    HW125116   7.975   0.310   6.168  2.0658 -0.6772  0.6768
 4729SOL    HW225117   8.000   0.413   6.044 -1.9382 -0.2688  0.1578
 4730SOL     OW25118   9.344   2.524   2.514 -0.1960  0.3866 -0.0965
 4730SOL    HW125119   9.311   2.582   2.439  0.9130  0.0222 -0.8654
 4730SOL    HW225120   9.282   2.446   2.525  0.0082  0.0792 -1.0791
 4731SOL     OW25121   8.762   0.599   1.202 -0.4071  0.2869 -0.6328
 4731SOL    HW125122   8.675   0.627   1.241 -0.4862  0.7136 -1.1172
 4731SOL    HW225123   8.803   0.528   1.260 -0.7217  0.6145 -0.0032
 4732SOL     OW25124   1.779   7.290   2.496  0.3114 -0.2880  0.1028
 4732SOL    HW125125   1.831   7.372   2.520 -1.6189  1.4578 -1.5388
 4732SOL    HW225126   1.818   7.249   2.413  0.9805 -0.7578  0.6489
 4733SOL     OW25127   8.637   1.975   0.579  0.5546  0.1287 -0.2530
 4733SOL    HW125128   8.542   1.987   0.607 -0.2846 -2.5859 -1.8140
 4733SOL    HW225129   8.658   2.039   0.505 -0.7159 -0.6819 -1.3404
 4734SOL     OW25130   0.522   1.456   2.278  0.5813  0.0644 -0.8131
 4734SOL    HW125131   0.439   1.469   2.224 -0.7648 -0.1506  1.1718
 4734SOL    HW225132   0.597   1.429   2.217 -0.8409  0.0139 -2.5851
 4735SOL     OW25133   4.001   1.722   1.757  0.7364  0.1865  0.3680
 4735SOL    HW125134   3.975   1.815   1.729 -0.6997 -0.6227 -1.0184
 4735SOL    HW225135   3.925   1.681   1.808  0.9242 -0.6618 -0.0394
 4736SOL     OW25136   7.878   8.010   5.317  0.0166 -0.1387  0.6184
 4736SOL    HW125137   7.824   7.998   5.234 -0.0321  1.3756  0.4241
 4736SOL    HW225138   7.966   8.053   5.295 -0.5304  1.4844  1.4904
 4737SOL     OW25139   3.727   6.481   3.714  1.0124  0.0576  0.2378
 4737SOL    HW125140   3.673   6.481   3.798  1.9559 -2.5479  0.8875
 4737SOL    HW225141   3.824   6.469   3.735  1.3286 -0.0754 -1.1805
 4738SOL     OW25142   1.598   1.262   2.243  0.2623  1.2248 -0.0448
 4738SOL    HW125143   1.555   1.237   2.330 -0.3046  0.4183 -0.5471
 4738SOL    HW225144   1.591   1.360   2.229 -0.4336  1.2388  0.3963
 4739SOL     OW25145   6.056   8.946   1.974 -0.0138  0.6516 -0.6924
 4739SOL    HW125146   6.001   9.028   1.960 -0.5543  0.2458 -0.9433
 4739SOL    HW225147   6.066   8.897   1.887  1.2764  1.0603 -0.7801
 4740SOL     OW25148   4.781   2.422   0.944  0.3104 -0.6668  0.3535
 4740SOL    HW125149   4.734   2.346   0.900 -1.5479 -0.3354  1.7240
 4740SOL    HW225150   4.738   2.508   0.918 -0.6300 -0.4481  2.5466
 4741SOL     OW25151   1.948   8.220   6.138 -0.0793  0.1525 -0.1417
 4741SOL    HW125152   1.859   8.177   6.125  0.9877 -1.4138 -2.6028
 4741SOL    HW225153   1.981   8.201   6.231 -1.0147 -1.7359 -0.1813
 4742SOL     OW25154   3.802   7.365   3.643 -0.3866 -0.1193 -0.4035
 4742SOL    HW125155   3.823   7.445   3.700 -1.5958  0.6995 -1.0821
 4742SOL    HW225156   3.703   7.357   3.633 -0.2103 -0.7142 -1.7370
 4743SOL     OW25157   8.172   7.215   2.296  0.3363  0.5129  0.6595
 4743SOL    HW125158   8.266   7.200   2.326  0.5303 -1.9849 -1.0102
 4743SOL    HW225159   8.115   7.139   2.327 -0.2957  0.0048 -1.6158
 4744SOL     OW25160   0.176   4.430   1.023 -0.2744  0.0414 -0.1067
 4744SOL    HW125161   0.141   4.399   0.934  1.6209 -0.2754 -0.7787
 4744SOL    HW225162   0.174   4.530   1.027 -2.0597  0.0127  0.2324
 4745SOL     OW25163   1.167   8.050   3.178 -0.1179  0.0955  0.0439
 4745SOL    HW125164   1.182   8.107   3.259 -0.1234  0.9969 -0.5871
 4745SOL    HW225165   1.194   8.101   3.096 -0.8377 -0.5289 -0.5844
 4746SOL     OW25166   3.346   5.330   5.720 -0.1260  0.0388 -0.7466
 4746SOL    HW125167   3.426   5.375   5.680  0.4273  0.5911  0.9324
 4746SOL    HW225168   3.349   5.232   5.700  0.9132  0.0769 -0.8016
 4747SOL     OW25169   5.160   0.407   1.157  0.4999  0.5404 -0.4096
 4747SOL    HW125170   5.189   0.447   1.070 -0.0655  0.8964 -0.4353
 4747SOL    HW225171   5.063   0.425   1.171  0.3859 -0.3066 -0.1310
 4748SOL     OW25172   0.884   1.423   1.431 -0.0975  0.0147  0.0055
 4748SOL    HW125173   0.979   1.422   1.462  0.2635  0.3813 -1.0751
 4748SOL    HW225174   0.857   1.517   1.412 -0.5752 -0.1268 -0.0104
 4749SOL     OW25175   8.784   1.184   3.587  0.0770  0.1260 -0.1474
 4749SOL    HW125176   8.692   1.153   3.609 -0.0072  1.2824  1.2536
 4749SOL    HW225177   8.790   1.210   3.491 -1.6255  1.9672  0.2232
 4750SOL     OW25178   5.631   8.620   1.762 -0.0266  0.5552  0.3163
 4750SOL    HW125179   5.691   8.552   1.720  1.8518  3.4379 -1.8341
 4750SOL    HW225180   5.541   8.617   1.718  0.8162  1.0845 -1.4941
 4751SOL     OW25181   8.439   2.255   3.426  0.1802  0.4595 -0.6728
 4751SOL    HW125182   8.498   2.177   3.448  0.8183  0.9429 -0.6544
 4751SOL    HW225183   8.466   2.294   3.338 -1.5849 -0.7187 -1.7564
 4752SOL     OW25184   4.817   8.155   2.648 -0.6163 -0.1919 -0.5243
 4752SOL    HW125185   4.832   8.233   2.586  0.5036 -1.1988 -1.5457
 4752SOL    HW225186   4.741   8.176   2.709 -1.5012  0.9750 -1.9906
 4753SOL     OW25187   2.966   6.500   5.797  0.4960  0.0968 -0.3317
 4753SOL    HW125188   3.020   6.566   5.745 -1.4802  2.6442  0.7671
 4753SOL    HW225189   2.983   6.512   5.895 -0.2917 -0.6864 -0.0890
 4754SOL     OW25190   1.093   7.571   5.793  0.1243  0.2537  0.5850
 4754SOL    HW125191   1.185   7.538   5.770 -0.0340 -0.0689  0.4182
 4754SOL    HW225192   1.032   7.493   5.808 -0.2598  0.4715  0.1581
 4755SOL     OW25193   0.766   7.821   1.122 -0.3502 -0.4222 -0.1866
 4755SOL    HW125194   0.739   7.725   1.129  2.1088 -0.9943  2.4088
 4755SOL    HW225195   0.685   7.880   1.127 -1.8691 -2.3253 -1.7910
 4756SOL     OW25196   6.707   9.411   3.176 -0.1452 -0.9730  0.0046
 4756SOL    HW125197   6.774   9.362   3.233 -0.5657 -1.0407  0.4467
 4756SOL    HW225198   6.755   9.476   3.117  0.0749  1.6576  2.9444
 4757SOL     OW25199   7.905   2.563   2.405  0.1999  0.7204 -0.3758
 4757SOL    HW125200   7.881   2.576   2.308 -0.5990  0.7323 -0.1780
 4757SOL    HW225201   7.823   2.572   2.461  0.8549  1.9322  0.4223
 4758SOL     OW25202   7.825   0.591   1.460 -0.3635  0.3153 -0.0647
 4758SOL    HW125203   7.919   0.580   1.490 -1.1331 -0.4452  2.1075
 4758SOL    HW225204   7.785   0.672   1.502 -1.7048 -1.2121  1.6881
 4759SOL     OW25205   0.842   5.979   5.073  0.2001  0.4901  0.1275
 4759SOL    HW125206   0.761   6.032   5.047  0.1239  0.6931  0.7487
 4759SOL    HW225207   0.849   5.898   5.016  0.3629  1.2112 -0.8981
 4760SOL     OW25208   0.596   5.161   4.746 -0.0346 -0.0284  0.8945
 4760SOL    HW125209   0.557   5.105   4.819 -3.8636  1.0686 -0.2090
 4760SOL    HW225210   0.597   5.257   4.774  0.3505  0.1514  0.2793
 4761SOL     OW25211   7.185   1.492   1.070  0.0981  0.3736  0.2492
 4761SOL    HW125212   7.185   1.435   1.152  0.6574 -0.9109 -0.6369
 4761SOL    HW225213   7.279   1.515   1.045 -0.1055  1.3529  0.3669
 4762SOL     OW25214   9.480   3.233   4.869 -0.2583  0.1559 -0.4953
 4762SOL    HW125215   9.498   3.293   4.791  1.0815  0.5215  0.0851
 4762SOL    HW225216   9.460   3.289   4.950 -0.3297 -0.2055 -0.2625
 4763SOL     OW25217   0.305   6.060   0.490  0.1520 -0.0693 -0.0268
 4763SOL    HW125218   0.242   6.096   0.421  0.5818  1.0707  0.1631
 4763SOL    HW225219   0.361   6.135   0.527  0.3231 -0.7581  1.1446
 4764SOL     OW25220   4.379   6.842   1.027 -0.1391 -0.2014  0.0463
 4764SOL    HW125221   4.416   6.930   1.056 -0.3475  0.4812 -1.6896
 4764SOL    HW225222   4.317   6.856   0.949  0.8600 -2.0299 -1.0965
 4765SOL     OW25223   0.499   4.387   5.389  0.0886 -0.3179  0.1313
 4765SOL    HW125224   0.471   4.319   5.322 -1.6427  0.7769 -0.3120
 4765SOL    HW225225   0.511   4.344   5.479 -0.0525 -1.3575 -0.3473
 4766SOL     OW25226   7.533   8.739   4.184  0.1937  0.1728 -0.3841
 4766SOL    HW125227   7.444   8.698   4.168  0.4993 -0.5504 -0.2300
 4766SOL    HW225228   7.521   8.835   4.211 -0.5994 -0.3067  0.9971
 4767SOL     OW25229   0.900   8.238   3.620 -0.4848 -0.0485  0.1540
 4767SOL    HW125230   0.846   8.163   3.583  0.3275  0.3457 -1.9165
 4767SOL    HW225231   0.839   8.307   3.658 -1.3267 -0.7455  0.0874
 4768SOL     OW25232   8.428   3.909   4.248  0.4297  0.2270  0.1663
 4768SOL    HW125233   8.348   3.961   4.278 -0.6189 -0.8011 -0.7685
 4768SOL    HW225234   8.403   3.812   4.241  0.5908  0.3722 -3.9377
 4769SOL     OW25235   2.072   0.110   4.785 -0.5467  0.2929  0.2033
 4769SOL    HW125236   1.991   0.143   4.833  0.4283  0.8930  1.4834
 4769SOL    HW225237   2.141   0.182   4.782  0.0343 -0.2898 -0.6498
 4770SOL     OW25238   2.580   5.490   1.846 -0.1286 -0.3350  0.5069
 4770SOL    HW125239   2.638   5.414   1.817 -0.9583 -0.1587 -1.6643
 4770SOL    HW225240   2.498   5.455   1.891 -1.5586 -0.8512 -2.3979
 4771SOL     OW25241   6.274   4.243   0.756 -0.0961  0.1514  0.0867
 4771SOL    HW125242   6.354   4.189   0.783  0.1638  0.9324  0.8884
 4771SOL    HW225243   6.305   4.329   0.714 -0.5172  0.5653  0.6222
 4772SOL     OW25244   4.324   0.159   4.404  0.1673 -0.1216 -0.3358
 4772SOL    HW125245   4.279   0.218   4.471 -0.1253 -0.1037 -0.5455
 4772SOL    HW225246   4.287   0.178   4.313  0.8157  0.0959 -0.5515
 4773SOL     OW25247   2.902   5.844   2.799 -0.0678  0.0948 -0.5882
 4773SOL    HW125248   2.967   5.920   2.796 -0.9580  1.0189  2.1679
 4773SOL    HW225249   2.949   5.759   2.776  2.0163  0.8450  0.7436
 4774SOL     OW25250   3.773   4.745   2.957 -0.0366 -0.2308 -0.1715
 4774SOL    HW125251   3.867   4.777   2.945 -0.0792 -0.3367 -0.7657
 4774SOL    HW225252   3.772   4.645   2.966 -0.2811 -0.4029 -2.0610
 4775SOL     OW25253   8.903   7.188   4.478 -0.5341 -0.4659  0.4670
 4775SOL    HW125254   8.814   7.144   4.486 -0.3173 -1.1831 -0.8937
 4775SOL    HW225255   8.890   7.285   4.457 -0.9884 -0.6720 -0.2141
 4776SOL     OW25256   2.338   9.622   1.745 -0.5334 -0.8009 -0.3752
 4776SOL    HW125257   2.319   9.568   1.663  0.1990  0.0547 -1.1251
 4776SOL    HW225258   2.270   9.695   1.754  0.5486  0.3529 -1.3529
 4777SOL     OW25259   9.316   2.482   3.732  0.5974  0.1855  0.1224
 4777SOL    HW125260   9.329   2.505   3.636  0.5148 -2.6627 -0.6127
 4777SOL    HW225261   9.242   2.415   3.740  1.4013 -0.5027  2.0286
 4778SOL     OW25262   3.687   4.770   4.923 -0.4342  0.4627 -0.3510
 4778SOL    HW125263   3.768   4.712   4.929 -1.5184 -1.1942 -1.5108
 4778SOL    HW225264   3.701   4.852   4.980  1.0677 -0.9528  1.3903
 4779SOL     OW25265   8.800   5.035   5.685  0.4480  0.1044 -0.0567
 4779SOL    HW125266   8.857   5.109   5.721 -0.2715  0.0546  1.2361
 4779SOL    HW225267   8.808   4.955   5.744 -1.2887  0.2474  0.4141
 4780SOL     OW25268   8.870   2.413   1.109  0.2011  0.0929  0.2067
 4780SOL    HW125269   8.785   2.369   1.081  0.4949  0.9358 -2.1793
 4780SOL    HW225270   8.869   2.509   1.079  2.8653 -0.4546 -1.8356
 4781SOL     OW25271   5.150   5.111   1.425  0.2037 -0.1677 -0.2207
 4781SOL    HW125272   5.140   5.050   1.346  0.0128  0.2230 -0.4978
 4781SOL    HW225273   5.135   5.206   1.397 -1.0503 -0.1288  0.5137
 4782SOL     OW25274   8.049   2.831   3.953 -0.3145 -0.3608 -0.0935
 4782SOL    HW125275   8.051   2.744   3.905 -0.6787 -0.6201  0.3513
 4782SOL    HW225276   8.115   2.831   4.028 -0.3229 -0.2606 -0.0852
 4783SOL     OW25277   9.067   0.757   2.401 -0.0928  0.4667  0.7572
 4783SOL    HW125278   8.992   0.760   2.468 -1.4698  0.1106 -0.7486
 4783SOL    HW225279   9.030   0.746   2.309  1.5622  4.6852 -0.5388
 4784SOL     OW25280   0.414   3.681   6.520  0.9494 -0.5623  0.0251
 4784SOL    HW125281   0.407   3.581   6.525  0.2122 -0.5047  0.2585
 4784SOL    HW225282   0.443   3.708   6.428  2.7928 -1.0683  0.4383
 4785SOL     OW25283   2.038   5.326   1.067  0.0837  0.5048 -0.2171
 4785SOL    HW125284   2.112   5.391   1.047  0.2964  0.5630  0.7326
 4785SOL    HW225285   1.961   5.375   1.108  0.6237  0.0254  1.4003
 4786SOL     OW25286   4.078   4.758   1.161  0.2441 -0.1845  0.6748
 4786SOL    HW125287   4.039   4.782   1.250 -2.2427  0.1074 -0.4531
 4786SOL    HW225288   4.040   4.671   1.131  1.6356 -0.6386  0.2196
 4787SOL     OW25289   2.997   5.315   4.206 -0.4104  1.0846  0.3735
 4787SOL    HW125290   2.933   5.327   4.282  1.2566 -0.0186  1.9957
 4787SOL    HW225291   2.973   5.378   4.132 -1.0756  3.4373  2.4951
 4788SOL     OW25292   9.063   2.360   5.313 -0.2231  0.0583  0.0630
 4788SOL    HW125293   9.143   2.420   5.320 -0.7799  0.5671  2.4897
 4788SOL    HW225294   9.091   2.272   5.275  0.9904  1.0933 -1.5472
 4789SOL     OW25295   4.342   1.067   0.851  0.1146 -0.1867 -0.3640
 4789SOL    HW125296   4.368   0.985   0.801 -0.0497 -0.1628 -0.4867
 4789SOL    HW225297   4.245   1.062   0.875 -0.6521  1.3217 -2.9512
 4790SOL     OW25298   3.164   7.114   4.660 -0.2083  0.0816 -0.5631
 4790SOL    HW125299   3.072   7.075   4.653 -0.5755  0.7084  0.6517
 4790SOL    HW225300   3.181   7.174   4.581 -1.5949  1.5112  0.2059
 4791SOL     OW25301   4.367   9.992   1.115 -0.3627  0.7141  0.0127
 4791SOL    HW125302   4.451  10.039   1.087  0.6205 -0.9488  0.0820
 4791SOL    HW225303   4.296  10.007   1.047  0.2306  1.4867 -0.4488
 4792SOL     OW25304   7.301   1.711   6.667 -0.1768  0.2489  0.2023
 4792SOL    HW125305   7.217   1.765   6.657  0.1518  0.6403 -0.4808
 4792SOL    HW225306   7.330   1.677   6.578  0.7675  0.6908  0.3277
 4793SOL     OW25307   9.052   5.446   4.656 -0.1476 -0.1858 -0.1144
 4793SOL    HW125308   8.960   5.485   4.650 -0.8350 -1.9859 -2.1309
 4793SOL    HW225309   9.062   5.397   4.742 -0.6773  0.9792  0.6213
 4794SOL     OW25310   4.357   7.473   4.073  0.0381  0.4353 -0.2194
 4794SOL    HW125311   4.284   7.540   4.062 -1.4613 -0.4710  3.3940
 4794SOL    HW225312   4.329   7.385   4.034 -0.6048  0.2423  0.6601
 4795SOL     OW25313   2.996   4.461   0.550 -0.4800  0.1018  0.6949
 4795SOL    HW125314   3.059   4.409   0.492 -1.0533  0.7549 -0.5262
 4795SOL    HW225315   3.006   4.431   0.645  0.6003 -0.8485  0.2930
 4796SOL     OW25316   9.719   4.663   4.224 -0.5080 -0.2698  0.7733
 4796SOL    HW125317   9.696   4.737   4.288 -0.1936 -0.0369  0.6236
 4796SOL    HW225318   9.812   4.678   4.189 -0.1550 -1.1542  1.3224
 4797SOL     OW25319   1.554   6.242   6.300 -0.9684 -0.1319  0.6893
 4797SOL    HW125320   1.524   6.327   6.256 -2.0258 -1.2423 -0.7413
 4797SOL    HW225321   1.508   6.233   6.389 -0.1316  1.2369  1.2890
 4798SOL     OW25322   3.413   4.752   0.319  0.1616  0.0285  0.0212
 4798SOL    HW125323   3.422   4.842   0.362  0.0622 -0.1009  0.3192
 4798SOL    HW225324   3.401   4.762   0.220  1.1859  0.2900 -0.0731
 4799SOL     OW25325   9.620   1.223   1.683 -0.2907 -0.3135  1.1643
 4799SOL    HW125326   9.598   1.319   1.695  2.3688  0.5215 -0.1497
 4799SOL    HW225327   9.577   1.189   1.599  1.6801  0.7684 -0.3360
 4800SOL     OW25328   6.903   0.886   3.106  0.1758  0.5639  0.1033
 4800SOL    HW125329   6.810   0.857   3.082  0.2283 -0.6592  1.2597
 4800SOL    HW225330   6.904   0.917   3.201  1.1885 -0.6378  0.5019
 4801SOL     OW25331   3.809   2.097   2.762  0.4010  0.0408  0.1013
 4801SOL    HW125332   3.827   2.008   2.804  0.1804 -0.4576 -0.8447
 4801SOL    HW225333   3.807   2.167   2.833 -0.1712 -0.8155  0.9530
 4802SOL     OW25334   8.991   9.029   3.840 -0.2764  0.3247 -0.3523
 4802SOL    HW125335   9.066   9.095   3.848  0.4015 -0.3649 -0.9845
 4802SOL    HW225336   8.979   9.003   3.744  0.2129 -1.3304  0.0152
 4803SOL     OW25337   1.187   6.388   0.702 -0.0702 -0.7160 -0.4905
 4803SOL    HW125338   1.224   6.471   0.661  0.1387 -0.7344 -0.3376
 4803SOL    HW225339   1.251   6.353   0.771  0.1755 -1.3936 -1.0525
 4804SOL     OW25340   2.764   9.169   2.863 -0.6649  0.8357 -0.1386
 4804SOL    HW125341   2.828   9.190   2.937 -0.4025  2.8620 -0.9120
 4804SOL    HW225342   2.678   9.217   2.879 -0.5618  1.3831 -1.1969
 4805SOL     OW25343   3.445   3.363   1.507 -0.1573 -0.0704 -0.3954
 4805SOL    HW125344   3.386   3.286   1.482 -1.3978  0.2139  1.5864
 4805SOL    HW225345   3.539   3.343   1.480 -0.6099 -1.9235 -0.6491
 4806SOL     OW25346   8.640   0.034   2.894 -0.0035 -0.0679 -0.2336
 4806SOL    HW125347   8.695  -0.040   2.856 -0.8747 -0.0076 -1.6130
 4806SOL    HW225348   8.585  -0.001   2.970  0.0671 -0.6777 -0.4616
 4807SOL     OW25349   9.113   5.511   1.848  0.3156 -0.2594  0.4585
 4807SOL    HW125350   9.210   5.501   1.828  0.1391  0.0421 -0.5597
 4807SOL    HW225351   9.060   5.502   1.764 -0.3337  2.3247  0.5508
 4808SOL     OW25352   8.567   5.025   3.763 -0.2445  0.2190  0.1238
 4808SOL    HW125353   8.590   5.111   3.718  3.0982 -0.0967  1.0694
 4808SOL    HW225354   8.498   5.042   3.833 -0.0456  2.0421 -0.0835
 4809SOL     OW25355   3.259   8.684   3.745 -0.1215 -0.3398  0.4911
 4809SOL    HW125356   3.255   8.774   3.701  1.2701  0.2586  1.5478
 4809SOL    HW225357   3.183   8.628   3.713  0.6114  0.2206 -2.3551
 4810SOL     OW25358   1.304   9.456   2.863  0.5911 -0.1320  0.0896
 4810SOL    HW125359   1.314   9.366   2.821  0.9548 -0.0971  0.1035
 4810SOL    HW225360   1.394   9.499   2.871  0.5077 -0.0960  0.8079
 4811SOL     OW25361   1.200   7.654   3.676  0.4891  0.6654  0.2445
 4811SOL    HW125362   1.217   7.560   3.707 -2.0235  0.1229  0.0546
 4811SOL    HW225363   1.181   7.654   3.578 -1.4215  1.1110  0.5993
 4812SOL     OW25364   9.429   5.038   3.700  0.0052 -0.0384  0.1038
 4812SOL    HW125365   9.357   4.979   3.737  1.2077 -3.0502 -2.1337
 4812SOL    HW225366   9.391   5.095   3.627 -0.5843 -0.1056  0.3550
 4813SOL     OW25367   8.129   2.483   2.660  0.0424 -0.1064  0.2671
 4813SOL    HW125368   8.151   2.516   2.569 -1.2734 -0.3574 -0.1590
 4813SOL    HW225369   8.212   2.453   2.707  1.1857  3.1840  0.4434
 4814SOL     OW25370   2.653   2.128   1.082 -0.0023 -0.1977  0.2336
 4814SOL    HW125371   2.587   2.203   1.084 -1.4318 -1.4408  1.5550
 4814SOL    HW225372   2.742   2.163   1.054 -0.7277  1.9170  0.4282
 4815SOL     OW25373   0.416   9.260   0.505  0.2914  0.1649 -0.0658
 4815SOL    HW125374   0.476   9.230   0.579  0.9809  1.4110 -0.1015
 4815SOL    HW225375   0.472   9.286   0.426 -0.4038 -0.5499 -0.8045
 4816SOL     OW25376   3.315   3.873   4.079  0.2797 -0.2377  0.2079
 4816SOL    HW125377   3.311   3.931   4.161  0.2465 -0.8019  0.6131
 4816SOL    HW225378   3.374   3.916   4.010  0.4300  0.1690  0.5861
 4817SOL     OW25379   0.984   7.931   4.056 -0.5153  0.0308  0.0580
 4817SOL    HW125380   0.988   7.897   4.151  0.7836  0.8530  0.3070
 4817SOL    HW225381   0.925   8.012   4.052 -1.5877 -0.7468 -0.0760
 4818SOL     OW25382   3.442   8.075   2.073 -0.5234  0.1152  0.2900
 4818SOL    HW125383   3.513   8.118   2.128 -1.0992 -0.1633  1.2665
 4818SOL    HW225384   3.441   7.977   2.089  0.0917 -0.1437 -1.1394
 4819SOL     OW25385   7.621   0.730   2.604  0.1658 -0.2891 -0.0005
 4819SOL    HW125386   7.545   0.782   2.643 -0.8345  0.7471 -3.1370
 4819SOL    HW225387   7.618   0.636   2.637 -2.0818 -0.0944  0.4248
 4820SOL     OW25388   2.623   4.260   2.102 -0.0193 -0.1453  0.0445
 4820SOL    HW125389   2.652   4.346   2.143 -1.3000 -0.2796  1.2589
 4820SOL    HW225390   2.671   4.246   2.015  0.9733  1.2717  0.3625
 4821SOL     OW25391   9.500   5.375   6.651 -0.5256  0.3485 -0.4127
 4821SOL    HW125392   9.428   5.329   6.704  0.0704 -1.2374 -0.9377
 4821SOL    HW225393   9.536   5.452   6.703  0.6221 -1.6802  1.8780
 4822SOL     OW25394   5.039   3.188   0.982 -0.0475  0.4165 -0.1452
 4822SOL    HW125395   5.095   3.132   0.920 -0.8615  0.0721 -0.5848
 4822SOL    HW225396   4.952   3.210   0.937 -0.8781 -0.3025  1.0986
 4823SOL     OW25397   1.268   2.651   1.279 -0.0308  0.4824 -0.5719
 4823SOL    HW125398   1.226   2.684   1.194 -0.1011 -0.9443 -1.1023
 4823SOL    HW225399   1.354   2.700   1.295 -0.2772  1.1257 -1.1873
 4824SOL     OW25400   8.747   7.976   0.519  0.2643  0.3420  0.3553
 4824SOL    HW125401   8.668   7.924   0.487  0.6998 -0.1402  0.0477
 4824SOL    HW225402   8.822   7.913   0.538  1.0338  0.9281 -0.7140
 4825SOL     OW25403   9.679   8.886   1.188 -0.0756  0.6087  0.3043
 4825SOL    HW125404   9.772   8.852   1.205 -0.6774 -1.3945 -0.2374
 4825SOL    HW225405   9.615   8.841   1.251 -0.6142  2.3793  1.0423
 4826SOL     OW25406   4.595   2.891   0.498  0.3420 -0.3751 -0.2704
 4826SOL    HW125407   4.691   2.892   0.468  0.0015 -0.2966 -1.3878
 4826SOL    HW225408   4.563   2.796   0.501  0.1127 -0.3330 -1.0653
 4827SOL     OW25409   7.614   3.619   1.818  0.4111  0.0439  0.1227
 4827SOL    HW125410   7.621   3.605   1.917 -0.6164  0.7265  0.3038
 4827SOL    HW225411   7.632   3.715   1.797  2.3122 -0.4444 -0.5433
 4828SOL     OW25412   2.946   2.013   4.433 -1.1070 -0.8266 -0.2920
 4828SOL    HW125413   2.952   1.913   4.424 -1.5353 -0.9321  0.5401
 4828SOL    HW225414   3.010   2.056   4.369 -0.1398 -1.6568  0.1029
 4829SOL     OW25415   9.414   9.634   3.589 -0.0168 -0.6744  0.0127
 4829SOL    HW125416   9.391   9.701   3.660  0.4890  0.3331 -0.7723
 4829SOL    HW225417   9.499   9.587   3.614 -0.2240 -0.8381  0.4245
 4830SOL     OW25418   2.334   4.761   3.339  0.3365  0.1697 -0.3040
 4830SOL    HW125419   2.281   4.676   3.345 -1.1908  1.1148 -0.1728
 4830SOL    HW225420   2.328   4.810   3.425  2.2015 -0.1410  0.0201
 4831SOL     OW25421   8.794   5.241   4.512 -0.2782  0.2663 -0.3053
 4831SOL    HW125422   8.889   5.223   4.537 -0.8459 -0.1570  1.6237
 4831SOL    HW225423   8.776   5.339   4.521 -0.2408  0.2381  0.0651
 4832SOL     OW25424   0.817   9.743   2.417  0.3113  0.1821 -0.5427
 4832SOL    HW125425   0.824   9.834   2.377  1.0047  0.7947  0.9432
 4832SOL    HW225426   0.904   9.695   2.408  0.8740  0.7946  1.2905
 4833SOL     OW25427   8.395   6.723   6.592  0.2735  0.4207 -0.1980
 4833SOL    HW125428   8.490   6.694   6.598 -0.4999 -1.9417  1.1843
 4833SOL    HW225429   8.388   6.802   6.531  3.3414  1.6838  0.9567
 4834SOL     OW25430   3.577   6.552   5.280 -0.5623 -0.0443 -0.0857
 4834SOL    HW125431   3.676   6.539   5.273 -0.3212  2.1623 -1.0707
 4834SOL    HW225432   3.532   6.510   5.201 -0.1928  1.1923 -0.9533
 4835SOL     OW25433   1.991   8.225   4.594 -0.8240  0.5246  0.1691
 4835SOL    HW125434   1.947   8.180   4.516 -1.2772 -1.9398  1.8077
 4835SOL    HW225435   2.089   8.211   4.590 -0.7738  0.9709 -0.2888
 4836SOL     OW25436   6.568   2.711   2.814 -0.6364  0.0361  0.5374
 4836SOL    HW125437   6.549   2.615   2.835 -1.1006 -0.8965 -3.5875
 4836SOL    HW225438   6.494   2.748   2.758  0.0686  2.5127  1.1715
 4837SOL     OW25439   2.561   7.413   6.265  0.2393  0.2783 -0.1492
 4837SOL    HW125440   2.463   7.397   6.250 -0.0059  0.8556  0.8069
 4837SOL    HW225441   2.593   7.481   6.199 -0.0473  0.2236 -0.3486
 4838SOL     OW25442   9.077   1.709   4.536  0.1754 -0.4388 -0.0318
 4838SOL    HW125443   9.021   1.654   4.474 -0.0547 -0.1060 -0.1191
 4838SOL    HW225444   9.146   1.760   4.484 -0.9983  1.0281 -0.1881
 4839SOL     OW25445   8.761   5.743   1.040 -0.2919 -0.5056  0.2620
 4839SOL    HW125446   8.788   5.767   1.133 -0.5187  0.6253  0.0548
 4839SOL    HW225447   8.716   5.654   1.040  0.3433 -0.8340  1.1235
 4840SOL     OW25448   0.370   6.444   3.523 -0.1457 -0.1592 -0.3658
 4840SOL    HW125449   0.338   6.505   3.596 -1.3121  0.8557 -1.6981
 4840SOL    HW225450   0.329   6.354   3.536 -1.4921  0.4042 -0.5400
 4841SOL     OW25451   2.915   2.609   4.586 -0.2251  0.0737  0.4744
 4841SOL    HW125452   2.929   2.684   4.651 -3.5412  3.0572 -2.0308
 4841SOL    HW225453   3.004   2.572   4.559  1.4856  2.4995  2.4453
 4842SOL     OW25454   4.976   2.075   2.406 -0.3328 -0.0462 -0.2411
 4842SOL    HW125455   5.027   2.116   2.329  1.3143 -0.3292  0.6699
 4842SOL    HW225456   5.041   2.049   2.478 -1.8724  0.2395  1.2568
 4843SOL     OW25457   5.550   8.025   3.560 -0.3785 -0.6366  0.3982
 4843SOL    HW125458   5.607   7.961   3.612  0.4086  0.3373  0.7491
 4843SOL    HW225459   5.554   8.116   3.603 -1.6586 -0.3970  0.0325
 4844SOL     OW25460   0.920   7.489   5.182 -0.2083 -0.1291  0.5000
 4844SOL    HW125461   0.867   7.433   5.245  0.5849 -0.5034  0.8421
 4844SOL    HW225462   1.018   7.470   5.195 -0.0358 -0.1307 -0.7675
 4845SOL     OW25463   3.818   1.381   4.549  0.0519  0.0744  0.5419
 4845SOL    HW125464   3.828   1.465   4.603 -2.1117 -0.1383  1.3417
 4845SOL    HW225465   3.726   1.377   4.511  1.5033  0.1647 -3.1561
 4846SOL     OW25466   1.882   9.493   4.400  0.0542 -0.0882  0.3909
 4846SOL    HW125467   1.811   9.429   4.371 -0.5366  1.2656 -1.2206
 4846SOL    HW225468   1.886   9.495   4.500  1.0773 -3.7047  0.5111
 4847SOL     OW25469   0.904   4.914   4.445 -0.2371  0.1154  0.5852
 4847SOL    HW125470   0.992   4.915   4.492 -0.1422 -2.9307  0.5728
 4847SOL    HW225471   0.918   4.899   4.347 -0.6703  2.0058  0.2164
 4848SOL     OW25472   8.591   2.214   5.110  0.4386 -0.6376  0.3208
 4848SOL    HW125473   8.684   2.248   5.125  0.5757 -2.0002  2.9459
 4848SOL    HW225474   8.526   2.278   5.150  0.2943 -0.0588 -0.8432
 4849SOL     OW25475   8.684   5.963   0.031  0.4293  0.3271 -0.1901
 4849SOL    HW125476   8.755   6.019  -0.012 -0.2025 -0.0456 -1.7262
 4849SOL    HW225477   8.598   6.014   0.035  0.8429  0.9167  1.9991
 4850SOL     OW25478   0.887   7.429   2.375  0.2411 -0.0252 -0.3098
 4850SOL    HW125479   0.944   7.387   2.303  0.8100 -0.7060  0.5285
 4850SOL    HW225480   0.792   7.404   2.359  0.2383  0.6053 -1.3645
 4851SOL     OW25481   3.523   9.032   2.816 -0.2388 -0.2169 -0.0562
 4851SOL    HW125482   3.458   9.092   2.862 -0.7364  0.4928 -1.6414
 4851SOL    HW225483   3.494   9.019   2.721  0.4159 -2.1501 -0.0204
 4852SOL     OW25484   1.961   6.920   6.167  0.0248 -0.3603  0.0661
 4852SOL    HW125485   2.038   6.983   6.170 -0.1275 -0.1646 -0.1306
 4852SOL    HW225486   1.989   6.836   6.119  0.0767 -0.2382 -0.1192
 4853SOL     OW25487   1.598   3.382   3.340  0.2557 -0.1449 -0.1898
 4853SOL    HW125488   1.534   3.420   3.408  0.0095 -1.4664  0.3268
 4853SOL    HW225489   1.545   3.341   3.265  0.5097 -0.7013 -0.0610
 4854SOL     OW25490   7.189   0.951   0.932  0.2699 -0.0561 -0.0668
 4854SOL    HW125491   7.204   0.890   1.009 -0.5306  1.6039  1.4498
 4854SOL    HW225492   7.092   0.975   0.926  0.7688  2.1080  0.1911
 4855SOL     OW25493   0.099   4.306   1.321 -0.4711  0.8070 -0.1872
 4855SOL    HW125494   0.010   4.321   1.366 -0.2809  1.5363 -0.0489
 4855SOL    HW225495   0.100   4.353   1.233 -0.7199 -0.3442 -0.8161
 4856SOL     OW25496   0.039   3.488   4.635 -0.4050 -0.1967  0.0264
 4856SOL    HW125497   0.012   3.568   4.582 -0.2405 -0.7086 -0.8496
 4856SOL    HW225498   0.090   3.425   4.576 -1.6735 -1.5608  0.3488
 4857SOL     OW25499   1.781   0.713   4.456  0.5611  0.3098 -0.4412
 4857SOL    HW125500   1.876   0.723   4.425 -0.3372  0.9480 -3.1078
 4857SOL    HW225501   1.750   0.620   4.437 -0.3920  1.0497 -2.8155
 4858SOL     OW25502   3.647   5.842   4.449 -0.4095 -0.1074 -0.6444
 4858SOL    HW125503   3.568   5.894   4.483 -0.4496 -0.5954  0.0216
 4858SOL    HW225504   3.706   5.903   4.395  0.6916  1.2014  1.9255
 4859SOL     OW25505   1.558   7.060   1.374 -0.1107 -0.6013 -0.6352
 4859SOL    HW125506   1.536   7.017   1.462  0.1006 -0.3553 -0.4646
 4859SOL    HW225507   1.583   6.988   1.308  0.2628 -0.7450 -0.3432
 4860SOL     OW25508   5.997   1.738   3.833 -0.3207 -0.0452  0.6065
 4860SOL    HW125509   5.898   1.723   3.833 -0.5189  1.2804  0.7428
 4860SOL    HW225510   6.043   1.650   3.845 -1.5041 -0.4112  2.6741
 4861SOL     OW25511   9.273   3.876   2.239  0.4918 -0.6696 -0.6156
 4861SOL    HW125512   9.328   3.844   2.316 -0.5137 -4.7428 -1.5096
 4861SOL    HW225513   9.177   3.882   2.267  0.4578  0.1783 -0.8983
 4862SOL     OW25514   1.740   9.242   3.588  0.0955 -0.1080 -0.3428
 4862SOL    HW125515   1.832   9.272   3.565  0.2973  0.1785  0.7849
 4862SOL    HW225516   1.743   9.185   3.671 -0.9786  1.7098  0.9834
 4863SOL     OW25517   8.780   9.867   5.140 -0.2955 -0.1759  0.2290
 4863SOL    HW125518   8.754   9.834   5.049  0.6051 -0.0338 -0.0837
 4863SOL    HW225519   8.843   9.944   5.131  1.1342 -1.2386  0.9844
 4864SOL     OW25520   0.028   1.764   1.551  0.3095  0.3988 -0.2607
 4864SOL    HW125521   0.069   1.732   1.637 -1.1299 -0.8877 -0.0316
 4864SOL    HW225522   0.066   1.711   1.475  0.1052  0.1740 -0.2050
 4865SOL     OW25523   4.720   2.548   2.835  0.3777  0.1976 -0.4878
 4865SOL    HW125524   4.656   2.472   2.845  1.0722 -0.3131  0.1821
 4865SOL    HW225525   4.704   2.615   2.908  0.9539 -0.1983  0.0124
 4866SOL     OW25526   3.201   4.243   4.926 -0.1538  0.2191  0.0790
 4866SOL    HW125527   3.251   4.223   4.842  2.3945  3.4697  0.6831
 4866SOL    HW225528   3.128   4.308   4.907 -0.8023 -0.5059  0.0747
 4867SOL     OW25529   9.359   0.912   3.573 -0.2965  0.9301  0.2104
 4867SOL    HW125530   9.346   1.011   3.577 -1.1874  0.8495 -0.5123
 4867SOL    HW225531   9.410   0.889   3.490 -1.3909  0.6569 -0.3932
 4868SOL     OW25532   8.649   7.775   2.579 -0.7610 -0.5717  0.1640
 4868SOL    HW125533   8.613   7.813   2.494 -0.0604 -1.7332 -0.6827
 4868SOL    HW225534   8.628   7.677   2.583 -4.2666  0.1739  3.2104
 4869SOL     OW25535   2.878   6.192   3.623 -0.5866 -0.5039 -0.5294
 4869SOL    HW125536   2.951   6.255   3.596  0.4973 -1.7407 -0.5717
 4869SOL    HW225537   2.894   6.161   3.717 -1.1586 -0.6550 -0.4803
 4870SOL     OW25538   4.292   6.123   2.689  0.0399 -0.1215  1.1163
 4870SOL    HW125539   4.307   6.222   2.697  2.3959 -0.3993  0.7055
 4870SOL    HW225540   4.367   6.083   2.636 -2.8568 -1.6005 -2.0797
 4871SOL     OW25541   8.536   4.046   0.515 -0.1930  0.6723 -0.2405
 4871SOL    HW125542   8.598   4.071   0.440 -3.9106  1.9672 -3.0580
 4871SOL    HW225543   8.523   3.947   0.515  0.8241  0.5319 -0.4918
 4872SOL     OW25544   8.716   7.336   1.794  0.5603  0.1927 -0.1976
 4872SOL    HW125545   8.667   7.331   1.881  1.7073 -0.7427  0.4063
 4872SOL    HW225546   8.770   7.253   1.780  1.9501  1.1745 -0.8548
 4873SOL     OW25547   2.222   4.920   1.293 -0.1827 -0.4032 -0.0802
 4873SOL    HW125548   2.279   4.882   1.367  0.6179 -1.0470 -1.0213
 4873SOL    HW225549   2.251   4.881   1.206 -0.3017  1.2964 -0.8956
 4874SOL     OW25550   7.507   8.538   5.629  0.1178  0.0082  0.5650
 4874SOL    HW125551   7.503   8.619   5.687 -0.7325 -0.3839  1.0589
 4874SOL    HW225552   7.414   8.514   5.599  0.2777 -1.2589  1.0813
 4875SOL     OW25553   0.603   4.332   0.719 -0.2212 -0.0882  0.1523
 4875SOL    HW125554   0.666   4.339   0.796 -1.8662  0.9027  1.4603
 4875SOL    HW225555   0.588   4.236   0.696 -0.1595 -0.4062  1.4478
 4876SOL     OW25556   5.196   3.948   0.422  0.0889 -0.0306  0.5378
 4876SOL    HW125557   5.191   3.878   0.494 -0.2181  0.7994  1.3363
 4876SOL    HW225558   5.267   4.015   0.446 -0.6245  0.7466  0.5225
 4877SOL     OW25559   9.399   0.334   4.897  0.4596 -0.4618 -0.4828
 4877SOL    HW125560   9.361   0.393   4.826  0.2811 -2.3213 -1.9679
 4877SOL    HW225561   9.471   0.277   4.857  0.1814 -1.7110  0.7644
 4878SOL     OW25562   9.269   1.256   2.684 -0.9482 -0.1741  0.1604
 4878SOL    HW125563   9.219   1.183   2.731  1.1010 -1.7105  0.0213
 4878SOL    HW225564   9.300   1.324   2.751  0.0872 -1.2220  0.7654
 4879SOL     OW25565   4.619   4.588   3.863 -0.4466 -0.5392  0.3138
 4879SOL    HW125566   4.677   4.560   3.787 -0.3169 -0.9515  0.5649
 4879SOL    HW225567   4.666   4.572   3.949  0.3632  2.1672  0.4115
 4880SOL     OW25568   3.996   3.006   2.130 -0.4165 -0.0449 -0.3153
 4880SOL    HW125569   4.026   3.032   2.038  0.7933  0.2491  0.1532
 4880SOL    HW225570   4.057   2.936   2.167 -0.9991 -0.2895  0.2024
 4881SOL     OW25571   5.441   3.699   1.095 -0.1676 -0.1101  0.0289
 4881SOL    HW125572   5.496   3.625   1.056 -0.6554 -1.5798  2.0086
 4881SOL    HW225573   5.405   3.757   1.022  1.9749 -0.5651 -1.4446
 4882SOL     OW25574   1.755   1.344   3.314 -0.3336 -0.1735  0.3364
 4882SOL    HW125575   1.700   1.340   3.231 -1.3443  3.3966  0.7166
 4882SOL    HW225576   1.823   1.271   3.314 -2.3185 -2.0773 -2.1407
 4883SOL     OW25577   4.949   5.325   0.515 -0.1382  0.2751 -1.0180
 4883SOL    HW125578   4.927   5.400   0.453 -1.9546 -0.2722 -1.0663
 4883SOL    HW225579   5.036   5.284   0.488  0.8404  2.2884 -1.0378
 4884SOL     OW25580   6.465   8.414   4.440 -0.3545 -0.6497 -0.0815
 4884SOL    HW125581   6.500   8.419   4.347 -0.4517 -0.0520 -0.0869
 4884SOL    HW225582   6.542   8.411   4.504 -0.2900  0.1204 -0.1211
 4885SOL     OW25583   6.383   2.079   3.434  0.5158 -0.4201 -0.3888
 4885SOL    HW125584   6.385   2.176   3.410 -0.6460  0.0851  1.4081
 4885SOL    HW225585   6.336   2.027   3.363 -0.7141  0.6515 -0.3711
 4886SOL     OW25586   0.170   2.774   4.666 -0.2126 -0.0980 -0.1028
 4886SOL    HW125587   0.094   2.780   4.601 -0.3773  0.6345  0.1476
 4886SOL    HW225588   0.216   2.863   4.671  0.2635 -0.3617  0.2269
 4887SOL     OW25589   2.413   7.478   2.092 -0.2131 -0.5799 -0.0524
 4887SOL    HW125590   2.354   7.438   2.162  1.0538  1.5066  2.2734
 4887SOL    HW225591   2.427   7.411   2.018 -0.3656 -3.4117  2.3820
 4888SOL     OW25592   9.897   9.445   0.755  0.1411  0.1047 -0.0460
 4888SOL    HW125593   9.802   9.426   0.730 -0.0351 -0.2878  0.9076
 4888SOL    HW225594   9.946   9.359   0.769  0.6814  0.3048 -0.6829
 4889SOL     OW25595   7.477   2.428   3.392 -0.4555 -0.2866  0.4848
 4889SOL    HW125596   7.500   2.377   3.474  0.3541 -0.2630  0.2760
 4889SOL    HW225597   7.526   2.390   3.314  0.8660  1.3529  0.4735
 4890SOL     OW25598   5.740   1.801   2.587  0.5771  0.1181  0.1685
 4890SOL    HW125599   5.781   1.710   2.593 -0.6885 -0.4143  1.1243
 4890SOL    HW225600   5.654   1.797   2.536  0.0202  0.5826  1.0417
 4891SOL     OW25601   1.255   0.402   3.907  0.0197  0.0580  0.6653
 4891SOL    HW125602   1.156   0.408   3.920 -0.0068 -0.0882  0.5374
 4891SOL    HW225603   1.301   0.427   3.992 -0.0792  2.1333  0.1110
 4892SOL     OW25604   4.065   5.354   6.473 -0.4491 -0.3851 -0.9248
 4892SOL    HW125605   4.152   5.362   6.523 -1.4354  2.9019  0.4195
 4892SOL    HW225606   4.005   5.291   6.521 -0.5907  1.1147  0.9300
 4893SOL     OW25607   4.175   4.408   1.915  0.5091 -0.0740 -0.1905
 4893SOL    HW125608   4.260   4.368   1.879 -1.0683 -0.5803 -3.5407
 4893SOL    HW225609   4.103   4.340   1.914 -0.3857  0.8370  1.0071
 4894SOL     OW25610   3.327   6.552   3.274  0.7071 -0.1455  0.2541
 4894SOL    HW125611   3.240   6.541   3.227  2.0021 -4.9636 -1.2202
 4894SOL    HW225612   3.394   6.592   3.211  0.1596  1.6470  0.7740
 4895SOL     OW25613   7.133   0.695   3.109  1.0233  0.8412  0.2699
 4895SOL    HW125614   7.164   0.727   3.198  0.4917  0.0176  0.7596
 4895SOL    HW225615   7.073   0.764   3.068 -0.4018  0.3348  1.4711
 4896SOL     OW25616   1.907   6.769   4.231 -0.3542  0.1007  0.1888
 4896SOL    HW125617   2.005   6.785   4.241 -0.4485  0.3650  0.7079
 4896SOL    HW225618   1.866   6.843   4.177 -0.3438  0.2291  0.3562
 4897SOL     OW25619   6.379   8.271   3.875  0.2698  0.1422 -0.1738
 4897SOL    HW125620   6.425   8.352   3.838  0.5860  0.8161  1.6457
 4897SOL    HW225621   6.368   8.281   3.974  0.5479 -2.1737  0.1113
 4898SOL     OW25622   0.554   0.147   2.344 -0.4452 -0.7753 -0.2115
 4898SOL    HW125623   0.550   0.086   2.423 -3.1147  2.5925  2.4078
 4898SOL    HW225624   0.647   0.183   2.333  0.2277 -2.2693  0.6040
 4899SOL     OW25625   9.850   5.867   4.954  0.2609  0.3006  0.4437
 4899SOL    HW125626   9.902   5.839   4.872  0.1144  0.4310  0.3051
 4899SOL    HW225627   9.753   5.848   4.940  0.3159 -0.2978  0.8558
 4900SOL     OW25628   4.229   2.097   1.990  0.2445 -0.1286 -0.1648
 4900SOL    HW125629   4.265   2.036   2.060  0.8036  0.4875  0.0890
 4900SOL    HW225630   4.252   2.061   1.899  0.7777 -0.1697 -0.0116
 4901SOL     OW25631   8.952   5.873   3.752 -0.1354  0.0026  0.1274
 4901SOL    HW125632   8.891   5.951   3.736  0.5730  0.6430  0.5235
 4901SOL    HW225633   9.020   5.897   3.821  0.5152 -0.7371 -0.2460
 4902SOL     OW25634   8.841   6.761   0.919  0.3020  0.4950 -0.0873
 4902SOL    HW125635   8.842   6.679   0.862 -1.9206  0.9292 -0.8057
 4902SOL    HW225636   8.886   6.836   0.871  0.2549  0.3143 -0.4127
 4903SOL     OW25637   2.973   1.168   2.760 -0.7021  0.1480  0.2968
 4903SOL    HW125638   2.992   1.188   2.856  2.0589  3.1710 -0.7776
 4903SOL    HW225639   2.930   1.248   2.717 -0.3470 -0.5255 -1.3557
 4904SOL     OW25640   1.709   5.105   3.177 -0.2923  0.1195  0.2031
 4904SOL    HW125641   1.753   5.019   3.204 -1.6509 -0.2227  1.3381
 4904SOL    HW225642   1.725   5.174   3.247 -0.5692  0.3382  0.0527
 4905SOL     OW25643   1.142   4.986   4.992 -0.2415 -0.2191 -0.2456
 4905SOL    HW125644   1.186   5.035   5.068 -2.2692 -0.8755  1.3999
 4905SOL    HW225645   1.144   5.044   4.910  0.1217  1.3790  0.8602
 4906SOL     OW25646   8.193   0.494   1.133  0.0396  0.5054 -0.0806
 4906SOL    HW125647   8.242   0.568   1.179 -2.2100  0.7744  1.9867
 4906SOL    HW225648   8.236   0.407   1.155 -0.7900  0.6615  2.3343
 4907SOL     OW25649   1.901   4.161   0.145 -0.0197  0.3813  0.8120
 4907SOL    HW125650   1.815   4.176   0.194 -0.6615  0.1977 -0.2504
 4907SOL    HW225651   1.974   4.147   0.211 -0.9674 -0.3761  1.7221
 4908SOL     OW25652   6.449   8.815   2.302 -0.4763  0.3660  0.1371
 4908SOL    HW125653   6.525   8.816   2.237 -1.6741  0.5515 -1.2781
 4908SOL    HW225654   6.420   8.721   2.318 -0.5249  0.3617  0.0143
 4909SOL     OW25655   3.461   2.729   1.002  0.3448 -0.0708 -0.3093
 4909SOL    HW125656   3.373   2.697   0.968  0.4548  1.6018 -2.2401
 4909SOL    HW225657   3.456   2.826   1.023  0.8625 -0.6385  2.6450
 4910SOL     OW25658   4.979   6.814   2.437  0.2300  0.0179  0.4135
 4910SOL    HW125659   4.941   6.757   2.364  1.7319 -1.8551  1.0629
 4910SOL    HW225660   4.911   6.825   2.510 -0.5690  0.2586 -0.3532
 4911SOL     OW25661   7.442   9.552   2.049  0.1829 -0.2278 -0.1783
 4911SOL    HW125662   7.406   9.604   1.971  1.5658 -0.3838 -0.9410
 4911SOL    HW225663   7.455   9.614   2.126  1.0343  0.4124 -0.8222
 4912SOL     OW25664   8.937   0.498   4.077  0.3835 -0.3620 -0.0462
 4912SOL    HW125665   8.920   0.596   4.061  1.6617 -0.3413 -1.4181
 4912SOL    HW225666   8.983   0.487   4.165  2.7079  0.5571 -1.1086
 4913SOL     OW25667   0.472   4.065   4.195  0.2728  0.2852  0.2187
 4913SOL    HW125668   0.445   4.140   4.134  2.1091  0.1499 -0.8160
 4913SOL    HW225669   0.566   4.038   4.174  0.6836 -0.2711  2.6310
 4914SOL     OW25670   5.020   5.699   2.424  0.3876 -0.0764 -0.4144
 4914SOL    HW125671   4.957   5.776   2.412 -0.0097 -0.5292 -1.3563
 4914SOL    HW225672   5.012   5.662   2.516  1.0600  1.4276  0.2468
 4915SOL     OW25673   9.157   5.744   2.463 -0.3148 -0.3333  0.1007
 4915SOL    HW125674   9.241   5.761   2.411 -0.9072  0.4171 -0.6116
 4915SOL    HW225675   9.105   5.829   2.471 -1.2827 -0.9155  0.0622
 4916SOL     OW25676   0.856   7.635   3.535 -0.5103  0.0621  0.1190
 4916SOL    HW125677   0.917   7.713   3.552 -0.3995  0.0476 -0.2030
 4916SOL    HW225678   0.896   7.552   3.573 -0.4388  0.0957  0.1173
 4917SOL     OW25679   3.215   2.608   4.315  0.4254 -0.4848 -0.0330
 4917SOL    HW125680   3.270   2.691   4.317 -1.6592  1.0161 -2.4944
 4917SOL    HW225681   3.194   2.580   4.409 -0.1309  2.6402  0.8307
 4918SOL     OW25682   8.849   7.536   3.417 -0.0934 -0.3787  0.4059
 4918SOL    HW125683   8.822   7.477   3.341 -1.0438  0.3119  0.1869
 4918SOL    HW225684   8.924   7.595   3.389  0.2784 -0.8766  0.3493
 4919SOL     OW25685   2.514   2.664   2.799  0.3093 -0.2587 -0.5914
 4919SOL    HW125686   2.545   2.666   2.703  1.1956  0.7709 -0.2922
 4919SOL    HW225687   2.547   2.745   2.846  0.9482 -1.3811  0.9240
 4920SOL     OW25688   4.832   9.469   4.087 -0.1537  0.1190 -0.4900
 4920SOL    HW125689   4.744   9.504   4.121  0.1868  0.8002 -0.3038
 4920SOL    HW225690   4.817   9.385   4.036 -0.7196 -0.7538  1.0827
 4921SOL     OW25691   4.965   6.073   1.564 -0.0087  0.2005 -0.1408
 4921SOL    HW125692   4.913   6.001   1.520  0.8878 -0.8036  0.4151
 4921SOL    HW225693   4.981   6.049   1.660 -1.8138  2.2905  0.7173
 4922SOL     OW25694   0.595   8.684   1.931  0.1124  0.3324  0.5919
 4922SOL    HW125695   0.646   8.616   1.984  0.5226  0.1404 -0.0442
 4922SOL    HW225696   0.498   8.658   1.928  0.4655 -0.8694 -0.6547
 4923SOL     OW25697   4.035   2.702   0.722 -0.1868  0.0862  0.0842
 4923SOL    HW125698   3.942   2.734   0.704 -0.4094 -1.6258 -2.0552
 4923SOL    HW225699   4.093   2.780   0.743 -1.7698  1.3426 -0.0931
 4924SOL     OW25700   3.970   3.734   4.949 -0.2619  0.4492 -0.0454
 4924SOL    HW125701   3.927   3.714   4.861 -0.3023 -0.6472  0.2159
 4924SOL    HW225702   3.908   3.708   5.023  0.2195  0.3276  0.3181
 4925SOL     OW25703   8.696   2.072   2.544  0.5545 -0.2283 -0.0599
 4925SOL    HW125704   8.718   2.134   2.619 -0.3124  0.3754 -0.2959
 4925SOL    HW225705   8.620   2.110   2.491  0.8547 -0.8734 -0.9635
 4926SOL     OW25706   1.141   6.436   5.160 -0.0558 -0.0150  0.9366
 4926SOL    HW125707   1.238   6.459   5.170  0.2635  0.2150 -2.3240
 4926SOL    HW225708   1.089   6.520   5.144  0.0834 -0.6256 -3.3247
 4927SOL     OW25709   1.425   3.844   5.084  0.7584 -0.0225 -0.1799
 4927SOL    HW125710   1.402   3.787   5.163 -0.4247  1.2622  0.4121
 4927SOL    HW225711   1.356   3.832   5.013  0.0296  1.3366  0.2950
 4928SOL     OW25712   3.366   7.257   4.094 -0.1077 -0.1366 -0.2124
 4928SOL    HW125713   3.279   7.296   4.065 -0.7187 -1.1923  0.1428
 4928SOL    HW225714   3.398   7.303   4.177  0.6648  1.5728 -1.4547
 4929SOL     OW25715   1.890   5.708   5.235  0.1265  0.2918  0.4950
 4929SOL    HW125716   1.985   5.727   5.261  0.6126  0.2710 -1.2320
 4929SOL    HW225717   1.887   5.627   5.177 -0.8332  0.8975 -0.3139
 4930SOL     OW25718   3.713   8.656   2.038 -0.6931 -0.0007  0.1768
 4930SOL    HW125719   3.621   8.668   2.076  0.4396  0.7538  2.8106
 4930SOL    HW225720   3.751   8.745   2.014 -0.0058 -0.1355  0.7393
 4931SOL     OW25721   0.707   1.692   3.254 -0.9308  0.6430 -0.0340
 4931SOL    HW125722   0.705   1.664   3.158  1.2511 -0.4520  0.1932
 4931SOL    HW225723   0.771   1.768   3.265  0.4321 -0.6063  0.8610
 4932SOL     OW25724   4.641   0.484   3.632  0.0915 -0.1184 -0.5661
 4932SOL    HW125725   4.571   0.483   3.703 -1.1179  0.8141 -1.7108
 4932SOL    HW225726   4.703   0.560   3.646  0.1675 -0.2448 -0.2174
 4933SOL     OW25727   3.185   4.868   3.527 -0.2066  0.1450  0.2761
 4933SOL    HW125728   3.265   4.868   3.588 -0.4249  0.1248  0.5611
 4933SOL    HW225729   3.151   4.961   3.516 -1.2518 -0.0717  1.6073
 4934SOL     OW25730   3.894   9.768   4.107 -0.4794 -0.6041 -0.3474
 4934SOL    HW125731   3.858   9.757   4.200 -0.0575  0.8329  0.0072
 4934SOL    HW225732   3.873   9.687   4.053 -0.6087 -1.5216  1.0469
 4935SOL     OW25733   2.717   5.636   2.087  0.6726  0.1320  0.4677
 4935SOL    HW125734   2.645   5.614   2.152  1.9351  1.6220  2.4075
 4935SOL    HW225735   2.676   5.658   1.998 -1.1696 -0.2006  1.2140
 4936SOL     OW25736   1.105   9.638   4.622  0.2825  0.8542 -0.2002
 4936SOL    HW125737   1.193   9.600   4.593 -0.0557 -0.9433  1.0483
 4936SOL    HW225738   1.110   9.738   4.619  2.3109  0.7839 -0.3388
 4937SOL     OW25739   5.631   7.600   1.585  0.3355 -0.2091  0.2304
 4937SOL    HW125740   5.639   7.611   1.684  2.3323  1.9167 -0.1264
 4937SOL    HW225741   5.717   7.626   1.541 -1.1397  0.7650 -2.2215
 4938SOL     OW25742   3.765   4.040   0.845  0.4030  0.2158  0.1561
 4938SOL    HW125743   3.758   3.949   0.805 -3.7089  0.0101  1.1006
 4938SOL    HW225744   3.816   4.100   0.783  2.1465 -2.3744 -1.0152
 4939SOL     OW25745   0.534   5.944   5.307  0.1464  0.2600 -0.2078
 4939SOL    HW125746   0.490   5.986   5.387  0.8233 -1.1753  0.9344
 4939SOL    HW225747   0.632   5.935   5.323  0.4634  0.9949 -1.6723
 4940SOL     OW25748   4.238   1.411   4.573  0.0305 -0.3110  0.5217
 4940SOL    HW125749   4.181   1.491   4.595  0.8017  0.7139 -1.0764
 4940SOL    HW225750   4.179   1.336   4.544 -0.6189  0.2754  0.2939
 4941SOL     OW25751   9.543   5.962   0.596  0.3534 -0.2346 -0.8404
 4941SOL    HW125752   9.626   5.922   0.636  0.3182 -0.4061 -0.9344
 4941SOL    HW225753   9.467   5.949   0.659  0.2866 -0.5478 -0.9825
 4942SOL     OW25754   3.583   0.863   1.485  0.0488  0.2399  0.8095
 4942SOL    HW125755   3.516   0.797   1.518  1.1128 -2.5339 -2.3518
 4942SOL    HW225756   3.546   0.914   1.408  1.0337 -0.2344  0.0169
 4943SOL     OW25757   4.826   5.876   0.619 -0.0735  0.2656  0.3871
 4943SOL    HW125758   4.873   5.910   0.538 -0.6179  1.3654  0.5228
 4943SOL    HW225759   4.890   5.872   0.695  0.2032  0.1575  0.1503
 4944SOL     OW25760   0.737   7.740   0.577  0.1987 -0.0715 -0.2422
 4944SOL    HW125761   0.668   7.699   0.637 -1.0626 -1.3703 -2.5114
 4944SOL    HW225762   0.826   7.737   0.622 -0.5380 -1.9187  1.1532
 4945SOL     OW25763   4.803   4.474   0.018  0.1916  0.8913 -0.1139
 4945SOL    HW125764   4.739   4.397   0.013  3.7436 -2.1322 -1.7562
 4945SOL    HW225765   4.803   4.512   0.110 -2.3583 -0.4406  0.4644
 4946SOL     OW25766   1.786   3.558   3.567 -0.2620  0.4534 -0.0994
 4946SOL    HW125767   1.833   3.552   3.479  2.3107  0.4407  1.2176
 4946SOL    HW225768   1.753   3.467   3.594 -1.0453  0.4570 -1.0351
 4947SOL     OW25769   9.300   2.814   3.583 -0.0486 -0.5150 -0.5941
 4947SOL    HW125770   9.244   2.799   3.501  0.6062 -0.2137 -1.1066
 4947SOL    HW225771   9.396   2.794   3.561  0.3309  0.9273 -0.2812
 4948SOL     OW25772   9.487   1.422   3.236  0.2943 -0.3064  0.3432
 4948SOL    HW125773   9.533   1.432   3.147  0.0299  2.1804  0.4657
 4948SOL    HW225774   9.520   1.339   3.281  1.8409 -0.5829 -1.2538
 4949SOL     OW25775   4.961   4.201   1.579 -0.8588 -0.0744 -0.2742
 4949SOL    HW125776   4.970   4.168   1.485  3.3153 -0.0530 -0.0001
 4949SOL    HW225777   4.961   4.301   1.580  0.5596 -0.0569 -0.2143
 4950SOL     OW25778   0.274   8.795   4.675 -0.0065 -0.1879  0.0313
 4950SOL    HW125779   0.192   8.779   4.620  0.2782 -1.2335 -0.0921
 4950SOL    HW225780   0.355   8.772   4.621  0.4384  1.7952 -0.2037
 4951SOL     OW25781   1.108   2.907   5.319 -0.3554  0.3903  0.5771
 4951SOL    HW125782   1.025   2.877   5.367 -0.9697  0.9586 -0.1195
 4951SOL    HW225783   1.145   2.988   5.364 -0.0616  0.0210  1.0071
 4952SOL     OW25784   4.191   2.880   4.451  0.2494 -0.2115 -0.2739
 4952SOL    HW125785   4.235   2.892   4.362 -0.6679  1.4726 -0.5093
 4952SOL    HW225786   4.256   2.839   4.515  1.8036  1.2035 -0.9243
 4953SOL     OW25787   3.711   6.492   0.555 -0.5493  0.1356  0.1748
 4953SOL    HW125788   3.708   6.591   0.565  0.7423  0.0434  1.7168
 4953SOL    HW225789   3.618   6.456   0.549 -1.0936  1.3013  1.2915
 4954SOL     OW25790   2.354   3.581   3.720 -0.0011  0.3524  0.0637
 4954SOL    HW125791   2.453   3.575   3.717  0.0068  0.9681 -1.0586
 4954SOL    HW225792   2.314   3.501   3.673 -0.0443 -0.1020  0.8657
 4955SOL     OW25793   0.905   3.020   4.133  0.4331  0.0927 -0.3749
 4955SOL    HW125794   0.934   3.009   4.038  2.4607 -2.3929  0.4500
 4955SOL    HW225795   0.853   2.939   4.161  0.0547  0.6985  0.7109
 4956SOL     OW25796   4.633   4.443   4.359  0.6012 -0.2260  0.2044
 4956SOL    HW125797   4.635   4.349   4.395 -0.4918 -0.2272  0.2949
 4956SOL    HW225798   4.551   4.489   4.394  0.8524  0.5847 -0.2825
 4957SOL     OW25799   3.792   8.047   5.146 -0.3585 -0.8850  0.3042
 4957SOL    HW125800   3.840   8.047   5.234 -0.8872 -2.1679  0.6010
 4957SOL    HW225801   3.739   8.131   5.137 -1.1518 -1.2258  1.6916
 4958SOL     OW25802   2.460   8.274   3.969 -0.5021 -0.1103  0.5523
 4958SOL    HW125803   2.409   8.283   3.883  0.2273  1.0577  0.2309
 4958SOL    HW225804   2.399   8.242   4.041 -1.2519 -0.5528 -0.2714
 4959SOL     OW25805   8.700   4.227   4.043 -0.5237  0.1928  0.3542
 4959SOL    HW125806   8.628   4.221   3.974  0.5792 -1.7928 -0.6741
 4959SOL    HW225807   8.736   4.320   4.046  0.0031  0.1031 -2.3749
 4960SOL     OW25808   0.486   7.744   0.201 -0.3566  0.7622  0.0925
 4960SOL    HW125809   0.537   7.729   0.116  0.0356  1.8541  0.1348
 4960SOL    HW225810   0.545   7.789   0.268 -0.5529 -0.4137  1.0822
 4961SOL     OW25811   3.998   3.472   2.358 -0.0724  0.4434  0.0425
 4961SOL    HW125812   3.899   3.482   2.347 -0.3870  0.5603  2.7165
 4961SOL    HW225813   4.031   3.403   2.293 -1.7152  1.1957 -1.6400
 4962SOL     OW25814   9.130   7.097   0.070 -0.0009 -0.1119 -0.3077
 4962SOL    HW125815   9.221   7.117   0.107 -0.2821 -0.0733  0.3769
 4962SOL    HW225816   9.087   7.025   0.126 -0.6134  0.2718 -0.2875
 4963SOL     OW25817   7.798   8.519   5.111  0.0544 -0.5095  0.3358
 4963SOL    HW125818   7.817   8.449   5.042 -0.8091 -2.2628  1.8316
 4963SOL    HW225819   7.792   8.608   5.067  0.8470 -1.4055 -1.6646
 4964SOL     OW25820   0.261   5.516   5.713  0.3913 -0.1497  0.1928
 4964SOL    HW125821   0.275   5.610   5.743  0.8771 -0.4664  0.9525
 4964SOL    HW225822   0.228   5.461   5.790  1.5068 -0.9302  0.1178
 4965SOL     OW25823   4.794   3.909   0.023  0.4053  0.2331  0.1249
 4965SOL    HW125824   4.728   3.938  -0.046 -0.7529 -1.4019  0.5251
 4965SOL    HW225825   4.753   3.919   0.114  0.5301 -1.2429  0.3427
 4966SOL     OW25826   9.828   4.876   3.675 -0.1105  0.3931  0.2075
 4966SOL    HW125827   9.919   4.881   3.716  0.4515  0.6365 -1.0215
 4966SOL    HW225828   9.764   4.832   3.738  0.7020  0.8364  1.3548
 4967SOL     OW25829   1.356   7.487   5.737 -1.2860  0.3934  0.2961
 4967SOL    HW125830   1.326   7.396   5.768  0.5226 -0.2873  0.1066
 4967SOL    HW225831   1.396   7.479   5.646  2.1486  0.7487  1.7088
 4968SOL     OW25832   8.057   1.204   1.617 -0.1091  0.9825 -0.3386
 4968SOL    HW125833   8.093   1.188   1.709 -1.1128  0.2108 -0.0663
 4968SOL    HW225834   8.131   1.193   1.550  0.3079  0.0262  0.2601
 4969SOL     OW25835   9.358   1.728   2.289 -0.6420  0.3028 -0.5673
 4969SOL    HW125836   9.374   1.677   2.374  0.0561  0.5902 -0.5267
 4969SOL    HW225837   9.437   1.720   2.229 -0.7491  0.8926 -0.7917
 4970SOL     OW25838   1.539   2.871   5.169 -0.0024  0.0028  0.0602
 4970SOL    HW125839   1.543   2.842   5.073  3.8424 -1.9524  0.7089
 4970SOL    HW225840   1.631   2.867   5.209 -0.5732  5.7894  2.4403
 4971SOL     OW25841   9.091   4.501   0.631 -0.1300 -0.0965  0.2880
 4971SOL    HW125842   9.171   4.533   0.683  0.9753 -0.0605 -1.3891
 4971SOL    HW225843   9.113   4.414   0.586 -0.6215  0.4830 -1.1099
 4972SOL     OW25844   3.695   0.180   2.613  0.5099 -0.1296 -0.0438
 4972SOL    HW125845   3.652   0.263   2.649 -1.6783 -0.8844 -0.8702
 4972SOL    HW225846   3.755   0.141   2.683 -1.1032  0.2721  1.6085
 4973SOL     OW25847   4.540   8.094   1.313 -0.1719 -0.2577 -0.1859
 4973SOL    HW125848   4.639   8.094   1.326 -0.2358 -0.8684  0.3389
 4973SOL    HW225849   4.497   8.046   1.389 -0.7726 -1.2827 -1.1561
 4974SOL     OW25850   2.027   9.427   2.433  0.5077 -0.5361 -0.0212
 4974SOL    HW125851   1.985   9.358   2.375  1.9094 -1.6666  0.2728
 4974SOL    HW225852   2.036   9.513   2.382  0.0425 -0.9746 -0.8484
 4975SOL     OW25853   3.170   0.098   4.283 -0.2136 -0.2440 -0.1997
 4975SOL    HW125854   3.190   0.071   4.377 -0.4732  0.9588  0.2066
 4975SOL    HW225855   3.165   0.197   4.277  1.3081 -0.2187 -1.7762
 4976SOL     OW25856   5.027   8.751   1.286 -0.2808 -0.2506  0.3998
 4976SOL    HW125857   5.025   8.833   1.230  2.0055  0.6407  1.5552
 4976SOL    HW225858   5.076   8.678   1.238  0.8418  0.2118  0.8296
 4977SOL     OW25859   9.710   1.310   4.755  1.0968 -0.1404  0.2873
 4977SOL    HW125860   9.745   1.394   4.713 -0.0812  0.3640  0.3175
 4977SOL    HW225861   9.679   1.248   4.683 -0.7158  0.6331  0.3947
 4978SOL     OW25862   1.119   1.190   3.083 -0.0999  0.1219 -0.0835
 4978SOL    HW125863   1.046   1.145   3.134  2.1226 -0.3291  2.8472
 4978SOL    HW225864   1.154   1.267   3.137  1.6045  0.3028 -1.4212
 4979SOL     OW25865   0.949   8.691   1.367 -0.7389  0.4561 -0.0430
 4979SOL    HW125866   0.876   8.625   1.350 -1.1632  1.0876 -0.7275
 4979SOL    HW225867   1.032   8.643   1.393 -1.1069 -0.3310 -0.2950
 4980SOL     OW25868   2.530   9.585   2.295 -0.0345  0.0956  0.0402
 4980SOL    HW125869   2.454   9.529   2.328 -0.1183  0.3790  0.3375
 4980SOL    HW225870   2.559   9.553   2.205 -0.8791  0.3350 -0.3250
 4981SOL     OW25871   0.594   2.142   2.785 -0.5453 -0.5228 -0.1095
 4981SOL    HW125872   0.563   2.215   2.724  1.4505  0.7768  0.3902
 4981SOL    HW225873   0.518   2.112   2.843 -1.2026  1.6347  0.1702
 4982SOL     OW25874   9.925   4.884   6.207  0.1577  0.0972 -0.0079
 4982SOL    HW125875   9.924   4.961   6.271  0.0881  0.6196 -0.6300
 4982SOL    HW225876   9.892   4.915   6.117 -0.2303 -0.7472 -0.1627
 4983SOL     OW25877   3.758   3.764   3.248  0.6860  0.4059  0.1419
 4983SOL    HW125878   3.698   3.841   3.271  0.4571 -0.2013  1.6464
 4983SOL    HW225879   3.847   3.799   3.218 -0.0104  1.2879 -0.8999
 4984SOL     OW25880   1.998   9.654   4.233  0.1567 -0.2524  0.5765
 4984SOL    HW125881   1.966   9.591   4.304  0.6014 -0.1679  0.8573
 4984SOL    HW225882   1.987   9.611   4.144 -2.4374  0.4817  0.5053
 4985SOL     OW25883   7.830   0.360   4.948 -0.2798  0.8761  0.6007
 4985SOL    HW125884   7.833   0.448   4.995 -1.0771  0.2859  1.7735
 4985SOL    HW225885   7.739   0.347   4.907  0.5452  1.6008 -1.5653
 4986SOL     OW25886   5.043   3.232   4.419 -0.5409 -0.2130  0.5820
 4986SOL    HW125887   4.982   3.159   4.450 -0.0490 -0.4834  0.9160
 4986SOL    HW225888   5.050   3.301   4.491 -0.5973 -0.0905  0.4702
 4987SOL     OW25889   7.758   9.188   0.731 -0.0246 -0.6166  0.3165
 4987SOL    HW125890   7.824   9.153   0.664  3.0992  4.6566  0.3612
 4987SOL    HW225891   7.678   9.225   0.683 -1.3067 -3.5538  0.0561
 4988SOL     OW25892   2.666   9.187   1.331  0.4844  0.1450 -0.8360
 4988SOL    HW125893   2.717   9.262   1.374 -1.9446  0.7072  1.2777
 4988SOL    HW225894   2.695   9.100   1.369  0.1851  0.4308  0.0655
 4989SOL     OW25895   2.334   4.387   0.152  0.3786 -0.2094 -0.1036
 4989SOL    HW125896   2.302   4.422   0.240  0.7799  0.1518 -0.0986
 4989SOL    HW225897   2.431   4.410   0.140  0.1244  0.4056 -0.9829
 4990SOL     OW25898   6.905   1.372   0.859 -0.2182 -0.0546  0.0343
 4990SOL    HW125899   6.962   1.333   0.931 -0.3000  1.2102  0.7998
 4990SOL    HW225900   6.961   1.391   0.779  0.2420  0.2724  0.4351
 4991SOL     OW25901   8.805   7.913   1.287  0.0202 -0.5321  0.3202
 4991SOL    HW125902   8.805   7.993   1.348 -1.2962 -0.9832  0.9175
 4991SOL    HW225903   8.862   7.933   1.207  1.6267  0.1420  1.5914
 4992SOL     OW25904   1.180   8.685   4.587 -0.3608 -0.5050  0.0573
 4992SOL    HW125905   1.206   8.614   4.652 -1.2876 -3.0526 -2.2583
 4992SOL    HW225906   1.263   8.724   4.545  0.1989  0.6836  2.1985
 4993SOL     OW25907   2.547   6.687   2.947  0.0332  0.2373 -0.0613
 4993SOL    HW125908   2.490   6.681   2.865 -0.0197  1.2815 -0.1132
 4993SOL    HW225909   2.559   6.784   2.971 -1.3219 -0.1188  2.1103
 4994SOL     OW25910   4.014   4.265   3.606 -0.3523 -0.4094 -0.4639
 4994SOL    HW125911   3.943   4.322   3.648  1.7762  1.2694  0.9609
 4994SOL    HW225912   4.060   4.317   3.534  0.8199 -0.7193  0.0471
 4995SOL     OW25913   7.642   9.667   1.781  0.2361 -0.4703  0.0328
 4995SOL    HW125914   7.684   9.681   1.692 -1.0725  3.2316 -0.0936
 4995SOL    HW225915   7.549   9.631   1.768 -0.2561  0.8327 -0.1920
 4996SOL     OW25916   5.742   7.398   3.029  0.7493  0.5779  0.6649
 4996SOL    HW125917   5.759   7.399   2.931  0.4361  3.4276  0.5960
 4996SOL    HW225918   5.648   7.368   3.046  0.6403  0.5693  0.0605
 4997SOL     OW25919   9.483   8.045   2.330  0.2032 -0.0369  0.6871
 4997SOL    HW125920   9.439   8.126   2.368  0.0110 -0.0925  0.5839
 4997SOL    HW225921   9.583   8.054   2.339  0.1637  0.0163  1.0680
 4998SOL     OW25922   7.421   6.668   4.934  0.4067  0.1997 -0.8823
 4998SOL    HW125923   7.384   6.656   4.842  0.6143  1.5310 -1.1557
 4998SOL    HW225924   7.356   6.633   5.002 -0.5250  0.8421 -1.4410
 4999SOL     OW25925   3.217   6.090   3.290  0.1843 -0.6548 -0.2770
 4999SOL    HW125926   3.258   6.053   3.207 -0.8379  0.5146 -1.3101
 4999SOL    HW225927   3.257   6.179   3.311  0.1622 -0.7710  0.2832
 5000SOL     OW25928   8.048   3.950   1.969 -0.2094  0.2307 -0.2102
 5000SOL    HW125929   8.139   3.977   1.998  0.0742 -0.7494 -0.1753
 5000SOL    HW225930   7.983   3.967   2.043 -0.1626  1.5229 -0.4636
 5001SOL     OW25931   4.375   4.535   1.229  0.1051 -0.3215 -0.4488
 5001SOL    HW125932   4.436   4.534   1.149  1.2708 -0.6440  0.4310
 5001SOL    HW225933   4.329   4.447   1.237 -0.1906 -0.2070 -0.9078
 5002SOL     OW25934   2.121   4.664   4.891 -0.1231 -0.1122  0.6254
 5002SOL    HW125935   2.084   4.572   4.899 -0.8146  0.1609  0.6538
 5002SOL    HW225936   2.046   4.728   4.873  0.0196  0.7788  3.0605
 5003SOL     OW25937   4.081   8.888   2.241  0.3364  0.1759 -0.2887
 5003SOL    HW125938   4.122   8.977   2.260  0.7600 -0.4757  2.0121
 5003SOL    HW225939   4.124   8.847   2.161  2.9680  0.2771  1.0392
 5004SOL     OW25940   6.110   9.349   2.802 -0.0280  0.2008 -0.2761
 5004SOL    HW125941   6.157   9.398   2.875  0.0848 -0.5525  0.1632
 5004SOL    HW225942   6.045   9.284   2.843  1.6570 -1.8576 -0.7853
 5005SOL     OW25943   2.460   8.607   1.671 -0.0784 -0.2981 -0.3017
 5005SOL    HW125944   2.510   8.550   1.737  1.1761  1.5375  0.4070
 5005SOL    HW225945   2.417   8.549   1.602  0.0337 -2.1639  1.1479
 5006SOL     OW25946   6.774   7.753   5.350  0.0297 -0.3409 -0.0293
 5006SOL    HW125947   6.739   7.838   5.388  1.2412  0.7615 -1.3345
 5006SOL    HW225948   6.867   7.738   5.383 -0.2380 -1.2669  0.3302
 5007SOL     OW25949   2.497   8.075   2.969 -0.1329 -0.0768  0.2383
 5007SOL    HW125950   2.505   8.151   2.904 -2.2488 -0.4100 -0.4714
 5007SOL    HW225951   2.567   8.006   2.949  0.1958  0.5219 -0.7212
 5008SOL     OW25952   1.060   6.882   0.696 -0.2890  0.8331 -0.0666
 5008SOL    HW125953   1.019   6.909   0.783 -1.5643 -1.1730 -0.0145
 5008SOL    HW225954   0.990   6.841   0.638  0.8458  0.9087 -1.5152
 5009SOL     OW25955   6.412   7.316   3.541  0.0542 -0.4330 -0.3766
 5009SOL    HW125956   6.505   7.281   3.556  0.3974  0.7222  0.2564
 5009SOL    HW225957   6.414   7.384   3.468 -0.5513 -1.4593 -1.3605
 5010SOL     OW25958   5.009   2.193   2.149  0.0697  0.1887 -0.4433
 5010SOL    HW125959   5.022   2.248   2.066 -1.8575 -0.5751 -1.2826
 5010SOL    HW225960   4.941   2.238   2.207 -0.4885 -0.5964 -0.4881
 5011SOL     OW25961   6.832   0.837   0.866  0.2346 -0.1598  0.2114
 5011SOL    HW125962   6.782   0.881   0.941  2.2094  2.0473  0.2822
 5011SOL    HW225963   6.865   0.907   0.802  2.1295 -1.6743 -0.4980
 5012SOL     OW25964   7.974   8.787   1.468 -0.2605 -0.5553  0.3520
 5012SOL    HW125965   8.023   8.705   1.497 -0.9969 -1.0758  0.1135
 5012SOL    HW225966   8.031   8.838   1.403  0.5944 -0.3780  1.2257
 5013SOL     OW25967   9.716   4.049   2.786  0.6899  0.0836  0.5184
 5013SOL    HW125968   9.788   4.061   2.718  0.2961 -0.3516  0.0256
 5013SOL    HW225969   9.639   4.109   2.764  0.2603 -0.5958  0.1661
 5014SOL     OW25970   0.147   1.131   0.407  0.0497 -0.7379 -0.8094
 5014SOL    HW125971   0.188   1.079   0.483  0.9114 -0.5065 -1.1097
 5014SOL    HW225972   0.216   1.192   0.368 -0.1941 -1.3347 -2.2092
 5015SOL     OW25973   4.153   2.865   3.614  0.0337 -0.4122  0.4412
 5015SOL    HW125974   4.222   2.914   3.560  0.4096 -1.7059 -0.2671
 5015SOL    HW225975   4.152   2.769   3.588 -1.9983 -0.4341  0.4962
 5016SOL     OW25976   7.002   9.347   2.906  0.3332  0.1447  0.4983
 5016SOL    HW125977   6.967   9.324   2.997 -4.1456  1.6461 -0.6829
 5016SOL    HW225978   6.987   9.269   2.844 -3.7237  1.7189 -0.6563
 5017SOL     OW25979   0.320   5.018   0.721  0.6347  0.2797  0.1537
 5017SOL    HW125980   0.418   5.013   0.738  0.6034  0.9444  0.5317
 5017SOL    HW225981   0.271   5.005   0.807  0.3990  0.5027  0.0522
 5018SOL     OW25982   5.969   7.352   1.936 -0.3173 -0.0499  0.0064
 5018SOL    HW125983   5.958   7.257   1.905  0.5361  0.0204 -0.5169
 5018SOL    HW225984   5.879   7.391   1.955 -0.5940 -1.5074  1.8898
 5019SOL     OW25985   0.724   3.506   5.376 -0.3330 -0.2907  0.0799
 5019SOL    HW125986   0.644   3.513   5.435 -0.2758  0.7256  0.0487
 5019SOL    HW225987   0.706   3.555   5.291 -0.6696 -2.3157 -1.0422
 5020SOL     OW25988   7.843   7.014   3.146 -0.1112  0.4953 -0.3072
 5020SOL    HW125989   7.771   7.072   3.108 -0.5173  0.0118 -0.2853
 5020SOL    HW225990   7.807   6.961   3.223  0.3500  0.4801 -0.0993
 5021SOL     OW25991   0.756   3.742   1.203  0.2567 -0.7053  0.2264
 5021SOL    HW125992   0.745   3.671   1.133  0.4368 -1.3090  0.8089
 5021SOL    HW225993   0.666   3.775   1.232  0.0664 -2.7632  2.0565
 5022SOL     OW25994   4.325   3.461   1.309 -0.5590 -0.6909 -0.0646
 5022SOL    HW125995   4.327   3.440   1.407 -1.9085 -1.6364 -0.2243
 5022SOL    HW225996   4.265   3.539   1.293  0.5743  0.1932 -0.0132
 5023SOL     OW25997   6.728   9.789   3.801  0.1322 -0.2369  0.7160
 5023SOL    HW125998   6.718   9.822   3.708  0.8660 -0.8221  0.4288
 5023SOL    HW225999   6.734   9.867   3.864  0.0440  0.1545  0.2414
 5024SOL     OW26000   9.458   5.892   3.010  0.3749 -0.4252 -0.7245
 5024SOL    HW126001   9.489   5.956   2.940 -1.8913  0.6297 -0.7867
 5024SOL    HW226002   9.482   5.928   3.100  0.6528 -0.3347 -0.8337
 5025SOL     OW26003   3.101   2.249   3.387  0.4598  0.3458 -0.5660
 5025SOL    HW126004   3.072   2.154   3.392 -1.4172  1.0119  2.4858
 5025SOL    HW226005   3.035   2.301   3.333 -1.1211  0.7997  1.7569
 5026SOL     OW26006   9.177   2.887   3.331  0.8408  0.2676  0.1539
 5026SOL    HW126007   9.258   2.914   3.280  1.3086 -0.4806  0.4960
 5026SOL    HW226008   9.129   2.969   3.362 -0.0853  0.7763 -2.4508
 5027SOL     OW26009   5.502   7.440   5.159  0.2492 -0.0548 -0.9442
 5027SOL    HW126010   5.459   7.488   5.083 -1.0506 -0.5787 -0.5549
 5027SOL    HW226011   5.513   7.502   5.236 -1.1434 -0.3002 -0.5463
 5028SOL     OW26012   2.720   4.625   0.576 -0.3421 -0.5507 -0.4902
 5028SOL    HW126013   2.721   4.724   0.561 -1.1345 -0.6885 -1.5100
 5028SOL    HW226014   2.775   4.603   0.656 -1.5536  0.8957  0.7914
 5029SOL     OW26015   6.099   0.684   3.573  0.3254 -0.1152  0.0175
 5029SOL    HW126016   6.082   0.687   3.672  1.7479  1.0153  0.2449
 5029SOL    HW226017   6.017   0.651   3.526  0.0225 -1.7664  1.6600
 5030SOL     OW26018   7.490   1.706   0.389 -0.3192  0.2624  0.3585
 5030SOL    HW126019   7.470   1.761   0.470  3.0275  1.3516  0.4757
 5030SOL    HW226020   7.464   1.756   0.306  0.1747  0.8859  0.5820
 5031SOL     OW26021   3.575   8.813   3.067 -0.8364 -0.2733  0.3559
 5031SOL    HW126022   3.591   8.861   3.154  1.3981 -0.3097 -0.0206
 5031SOL    HW226023   3.519   8.871   3.008  1.2284  1.5952  0.1863
 5032SOL     OW26024   7.603   6.377   4.790  0.2949  0.5540  0.0397
 5032SOL    HW126025   7.602   6.420   4.700 -2.0961  3.0343  1.1682
 5032SOL    HW226026   7.641   6.441   4.857  0.0196 -0.4454  1.1735
 5033SOL     OW26027   7.105   7.363   4.872  0.1185  0.3378 -0.2953
 5033SOL    HW126028   7.183   7.354   4.933 -0.9674 -1.1084  0.9253
 5033SOL    HW226029   7.097   7.281   4.816  0.3432  1.1109 -1.4800
 5034SOL     OW26030   1.689   9.721   1.216 -0.6556  0.0438  0.6084
 5034SOL    HW126031   1.614   9.690   1.274  0.0717 -2.3987  0.2919
 5034SOL    HW226032   1.740   9.642   1.183  0.2814  1.5159 -1.5708
 5035SOL     OW26033   8.881   8.202   3.550  0.0740 -0.0577  0.0328
 5035SOL    HW126034   8.783   8.197   3.530 -0.2410  0.5303  1.3571
 5035SOL    HW226035   8.900   8.154   3.636  0.8339  0.4388  0.1501
 5036SOL     OW26036   3.500   5.268   0.263  0.4628 -0.3251 -0.3694
 5036SOL    HW126037   3.551   5.272   0.177  0.8716  0.8447 -0.0871
 5036SOL    HW226038   3.506   5.357   0.309 -0.2257 -0.7705  0.5921
 5037SOL     OW26039   0.545   7.379   4.758  0.0863 -0.4137 -0.6384
 5037SOL    HW126040   0.611   7.425   4.817 -0.0190  0.3177 -1.0831
 5037SOL    HW226041   0.545   7.281   4.778 -0.3406 -0.1002  0.9570
 5038SOL     OW26042   6.025   9.720   4.463  0.2451 -0.3885  0.0869
 5038SOL    HW126043   6.015   9.738   4.561 -1.9959  1.3110 -0.4115
 5038SOL    HW226044   5.968   9.641   4.438 -1.9324  1.2685 -0.4012
 5039SOL     OW26045   1.128   4.997   4.611  0.0609  0.7999  0.5784
 5039SOL    HW126046   1.155   5.040   4.697  0.9794  1.0671  0.1606
 5039SOL    HW226047   1.150   5.058   4.535  1.5573 -0.4877 -0.0393
 5040SOL     OW26048   6.067   0.930   1.475  0.0507  0.1630  0.3467
 5040SOL    HW126049   6.134   0.994   1.436 -0.3271  0.4534  0.1712
 5040SOL    HW226050   6.085   0.838   1.441 -0.5466  0.4887 -0.8757
 5041SOL     OW26051   7.994   1.298   4.629 -0.4239  0.4655 -0.8402
 5041SOL    HW126052   7.958   1.367   4.567 -1.5462 -0.3891 -1.1530
 5041SOL    HW226053   7.954   1.209   4.607  0.5960 -0.1949 -0.1002
 5042SOL     OW26054   2.767   4.919   3.434  0.3882 -0.1783 -0.0875
 5042SOL    HW126055   2.721   4.900   3.521 -1.0904  0.9327 -0.6092
 5042SOL    HW226056   2.743   5.011   3.403  3.3943  0.6338 -0.1366
 5043SOL     OW26057   6.255   8.885   5.288  0.0370 -0.9009 -0.2230
 5043SOL    HW126058   6.178   8.944   5.261  0.4913 -0.0146  0.3776
 5043SOL    HW226059   6.228   8.789   5.279 -0.7158 -0.6051 -1.2156
 5044SOL     OW26060   3.743   3.364   4.914 -0.6116  0.0580 -0.5202
 5044SOL    HW126061   3.651   3.358   4.876 -0.6484  0.8595 -0.5589
 5044SOL    HW226062   3.753   3.296   4.987 -1.4138  0.3363 -0.1456
 5045SOL     OW26063   2.331   6.485   5.322 -1.0869 -0.1035  0.0124
 5045SOL    HW126064   2.300   6.503   5.229  1.9304  1.6045 -0.7072
 5045SOL    HW226065   2.366   6.570   5.363  0.9390 -1.5634  1.4150
 5046SOL     OW26066   9.770   1.800   1.759 -0.4469  0.0757 -0.1732
 5046SOL    HW126067   9.783   1.792   1.660  0.1725 -0.1099 -0.0777
 5046SOL    HW226068   9.833   1.867   1.796 -0.9136  0.3942  0.0504
 5047SOL     OW26069   1.195   6.967   1.335  0.8017  0.3285 -0.1989
 5047SOL    HW126070   1.099   6.960   1.364  0.6312  0.3614 -0.7432
 5047SOL    HW226071   1.250   6.901   1.385  0.4181  0.0142 -0.1837
 5048SOL     OW26072   1.970   4.139   6.206  1.1579  0.3223  0.0808
 5048SOL    HW126073   2.007   4.051   6.177 -0.0200  0.6599 -2.6197
 5048SOL    HW226074   1.877   4.127   6.240  1.2946  0.4179  0.4954
 5049SOL     OW26075   7.810   7.525   2.367 -0.3941 -0.3661 -0.1005
 5049SOL    HW126076   7.853   7.588   2.302 -0.6220  0.2894  0.3865
 5049SOL    HW226077   7.711   7.541   2.369 -0.3570 -0.2025  0.6010
 5050SOL     OW26078   0.385   3.370   5.928 -0.2752 -0.7899  0.0749
 5050SOL    HW126079   0.469   3.422   5.907 -0.8160 -0.3321 -0.9955
 5050SOL    HW226080   0.362   3.382   6.025  0.6456 -0.5489  0.2686
 5051SOL     OW26081   8.596   1.380   0.342 -0.1799  0.2136  0.0058
 5051SOL    HW126082   8.623   1.470   0.306 -0.1120  0.5793  0.9484
 5051SOL    HW226083   8.504   1.358   0.311 -0.4998  0.9675  0.3881
 5052SOL     OW26084   0.990   8.077   0.749 -0.4662 -0.4985 -0.1187
 5052SOL    HW126085   0.979   8.041   0.842 -0.6807  0.4830  0.2464
 5052SOL    HW226086   1.055   8.152   0.751 -0.1665 -0.7402 -0.8389
 5053SOL     OW26087   9.481   3.917   2.816  0.1639 -0.0569  0.2429
 5053SOL    HW126088   9.445   3.933   2.724  1.4413 -2.7290 -0.7654
 5053SOL    HW226089   9.580   3.933   2.817 -0.0819  1.5804  1.5894
 5054SOL     OW26090   3.855   5.536   6.521  0.2564 -0.3736  0.1763
 5054SOL    HW126091   3.857   5.581   6.432 -1.9504 -0.0904  0.2465
 5054SOL    HW226092   3.926   5.466   6.525 -0.3545 -1.1599 -2.2113
 5055SOL     OW26093   9.408   2.506   2.779  0.0375 -0.8799 -0.2270
 5055SOL    HW126094   9.383   2.498   2.683 -1.3269  0.0161  0.0370
 5055SOL    HW226095   9.485   2.569   2.789 -1.4219  1.0171 -0.5319
 5056SOL     OW26096   3.588   9.368   2.679 -0.6554 -0.2665  0.2728
 5056SOL    HW126097   3.674   9.390   2.633 -1.3166  1.7872 -0.0318
 5056SOL    HW226098   3.603   9.366   2.778 -0.1123 -0.6668  0.1897
 5057SOL     OW26099   0.489   4.068   6.106  0.2614 -0.2948 -0.2112
 5057SOL    HW126100   0.551   4.010   6.054  1.1073 -0.2631  0.7403
 5057SOL    HW226101   0.536   4.152   6.134 -0.0785 -0.4386  0.8273
 5058SOL     OW26102   1.117   4.841   4.164 -0.4048 -1.4558 -0.0767
 5058SOL    HW126103   1.217   4.833   4.165 -0.3088 -0.3924  1.8518
 5058SOL    HW226104   1.089   4.902   4.090  0.3523 -2.0613 -0.8636
 5059SOL     OW26105   1.624   4.473   5.544  0.2059  0.3008  0.6783
 5059SOL    HW126106   1.553   4.436   5.604 -0.5037  0.8260  0.1792
 5059SOL    HW226107   1.590   4.474   5.450  0.7584  0.8460  0.4854
 5060SOL     OW26108   2.270   1.368   2.141  0.1782 -0.4581 -0.1663
 5060SOL    HW126109   2.305   1.317   2.062 -0.6216 -1.4408  0.1103
 5060SOL    HW226110   2.182   1.410   2.117  0.3396 -0.0486 -0.0564
 5061SOL     OW26111   4.771   3.213   2.959 -0.0811  0.4667  0.4840
 5061SOL    HW126112   4.812   3.191   2.871  0.8380  1.5527  0.6326
 5061SOL    HW226113   4.676   3.180   2.961  0.5857 -1.5811 -0.0678
 5062SOL     OW26114   1.133   3.437   5.815 -0.2482  0.7139 -0.2410
 5062SOL    HW126115   1.126   3.396   5.906  1.3371 -1.7293 -1.1953
 5062SOL    HW226116   1.071   3.391   5.752  0.0557  1.1230 -0.8496
 5063SOL     OW26117   7.842   0.606   5.068  0.2229  0.3878 -0.2669
 5063SOL    HW126118   7.905   0.564   5.133 -0.2551 -1.4763 -0.9672
 5063SOL    HW226119   7.764   0.645   5.118  0.2752 -0.2716  0.3376
 5064SOL     OW26120   0.852   4.614   2.983 -0.4928 -0.0173 -0.1707
 5064SOL    HW126121   0.787   4.664   2.926 -3.8645 -4.3233 -0.3598
 5064SOL    HW226122   0.917   4.565   2.924 -1.1502 -0.8522 -0.2135
 5065SOL     OW26123   0.150   0.066   1.614 -0.5271 -0.3168 -0.8257
 5065SOL    HW126124   0.091   0.010   1.673 -1.2047  1.5210  0.3200
 5065SOL    HW226125   0.093   0.128   1.560  0.2471 -0.1716 -1.4829
 5066SOL     OW26126   0.781   4.911   3.163 -0.4745 -0.0939  0.8093
 5066SOL    HW126127   0.808   4.905   3.067  2.5218  0.6353  1.5628
 5066SOL    HW226128   0.691   4.956   3.170  0.5243  2.3939 -1.5065
 5067SOL     OW26129   2.919   5.202   3.133 -0.7684  0.8406 -0.8890
 5067SOL    HW126130   2.832   5.153   3.129 -0.7657  0.8354 -0.8894
 5067SOL    HW226131   2.948   5.227   3.040 -0.9545  1.1695 -0.8622
 5068SOL     OW26132   2.741   4.517   4.319  0.3113  0.3395  0.1271
 5068SOL    HW126133   2.768   4.436   4.370  1.8664  1.2146  0.7227
 5068SOL    HW226134   2.734   4.495   4.221  2.1100 -0.1760  0.1090
 5069SOL     OW26135   4.605   2.685   4.766  0.0508 -0.4132  0.4609
 5069SOL    HW126136   4.616   2.669   4.864  0.0737  2.1907  0.9327
 5069SOL    HW226137   4.692   2.668   4.719 -0.1721 -2.4508  0.7490
 5070SOL     OW26138   3.386   6.964   1.533  0.1209  0.3001 -0.4290
 5070SOL    HW126139   3.377   7.030   1.608  1.4869 -2.0979  1.9277
 5070SOL    HW226140   3.482   6.961   1.503  0.2170 -1.0940 -0.0274
 5071SOL     OW26141   0.821   5.081   0.590 -0.1544  0.1997 -0.0671
 5071SOL    HW126142   0.888   5.155   0.594 -0.9440  0.9589 -0.6913
 5071SOL    HW226143   0.741   5.110   0.537 -0.5057 -1.0723 -0.2747
 5072SOL     OW26144   3.709   4.953   1.596 -0.0849  0.0669 -0.2271
 5072SOL    HW126145   3.746   5.031   1.546  1.2722 -0.8648 -0.6912
 5072SOL    HW226146   3.634   4.912   1.544  0.4802 -0.1219 -0.8929
 5073SOL     OW26147   8.174   1.515   5.145 -0.4261  0.0157  0.6244
 5073SOL    HW126148   8.252   1.577   5.137 -0.2828  0.0101  1.8783
 5073SOL    HW226149   8.207   1.425   5.172 -0.7597 -0.3009 -0.0112
 5074SOL     OW26150   3.644   6.453   2.081  0.7634 -0.5547 -0.3944
 5074SOL    HW126151   3.719   6.510   2.114  0.1534  0.4349 -0.6810
 5074SOL    HW226152   3.680   6.383   2.020  1.1847  1.6087 -2.7242
 5075SOL     OW26153   9.712   3.390   3.539  0.0953 -0.0206 -0.4225
 5075SOL    HW126154   9.690   3.464   3.602  0.3585 -0.1778 -0.1448
 5075SOL    HW226155   9.640   3.382   3.469 -0.2622  0.0650 -0.0632
 5076SOL     OW26156   0.653   9.760   3.855 -0.1039 -0.6557 -0.2394
 5076SOL    HW126157   0.690   9.796   3.941  0.8371 -0.3690 -0.7495
 5076SOL    HW226158   0.632   9.837   3.794 -1.9141 -0.7964  0.1745
 5077SOL     OW26159   8.736   3.664   3.893 -0.3247  0.5181  0.1273
 5077SOL    HW126160   8.638   3.677   3.907 -0.6756 -1.1784 -0.6414
 5077SOL    HW226161   8.752   3.634   3.799  0.8158 -0.3395  0.5821
 5078SOL     OW26162   4.187   6.883   1.403  0.1797 -0.3718 -0.2540
 5078SOL    HW126163   4.139   6.971   1.398  2.8557  1.1846  0.5630
 5078SOL    HW226164   4.172   6.833   1.319 -2.1952  0.4115 -0.3500
 5079SOL     OW26165   5.382   0.103   4.204 -0.3276 -0.4994  0.0948
 5079SOL    HW126166   5.284   0.113   4.221 -0.4607  0.6928 -1.3002
 5079SOL    HW226167   5.433   0.155   4.273 -0.6653 -1.1986  0.8809
 5080SOL     OW26168   0.879   7.488   0.972  0.3151 -0.1088  0.0868
 5080SOL    HW126169   0.953   7.555   0.969  1.1724 -0.8973  2.3341
 5080SOL    HW226170   0.893   7.419   0.901  1.6029 -0.1060  0.3212
 5081SOL     OW26171   6.349   1.097   1.701 -0.4328  0.1953 -0.0399
 5081SOL    HW126172   6.449   1.105   1.693 -0.2028 -2.5758 -0.4970
 5081SOL    HW226173   6.327   1.046   1.784 -1.5176  1.1536  0.2685
 5082SOL     OW26174   9.035   6.678   4.033  0.2469  0.6044 -0.5023
 5082SOL    HW126175   9.125   6.719   4.051  0.5355  0.1340 -0.8517
 5082SOL    HW226176   9.031   6.647   3.938 -0.5631  1.3085 -0.7108
 5083SOL     OW26177   1.763   6.510   6.005  0.0085 -0.5964  0.1149
 5083SOL    HW126178   1.747   6.599   6.048  1.0312 -0.4852  0.2733
 5083SOL    HW226179   1.850   6.472   6.037 -0.8092 -2.0280  0.6590
 5084SOL     OW26180   0.451   2.402   1.603 -0.3696  0.1848  0.1497
 5084SOL    HW126181   0.449   2.493   1.560 -1.1202  0.5924  1.0334
 5084SOL    HW226182   0.381   2.344   1.562  0.5233 -0.1939 -0.8454
 5085SOL     OW26183   3.945   9.083   0.706 -0.1118 -0.4075  0.2645
 5085SOL    HW126184   3.905   9.169   0.675 -1.6072 -1.2725 -0.2413
 5085SOL    HW226185   4.045   9.093   0.711 -0.2741  1.4125  0.4343
 5086SOL     OW26186   9.244   7.627   5.926  0.2859  0.1654 -0.6751
 5086SOL    HW126187   9.252   7.572   5.843  2.7816  0.1671 -0.4828
 5086SOL    HW226188   9.307   7.704   5.922  1.3890 -0.5410  1.7139
 5087SOL     OW26189   9.284   2.181   3.817 -0.3673 -0.0531  0.5843
 5087SOL    HW126190   9.249   2.088   3.828  0.3504 -0.5730 -1.3207
 5087SOL    HW226191   9.208   2.244   3.803 -0.7845 -0.5531  0.5958
 5088SOL     OW26192   0.752   3.906   2.261 -0.1528 -0.2169  0.4407
 5088SOL    HW126193   0.686   3.981   2.268  0.7772  0.7062 -0.3746
 5088SOL    HW226194   0.766   3.864   2.350 -0.7055  0.5809  0.9048
 5089SOL     OW26195   8.648   5.682   1.501  0.3590 -0.7754 -0.2052
 5089SOL    HW126196   8.614   5.596   1.463 -1.0778  0.3005 -1.4282
 5089SOL    HW226197   8.702   5.663   1.583 -0.3483 -2.8025 -0.1742
 5090SOL     OW26198   9.131   4.697   4.422 -0.0648 -0.7136 -0.8180
 5090SOL    HW126199   9.147   4.599   4.415 -0.2296 -0.7534 -0.6175
 5090SOL    HW226200   9.126   4.737   4.330 -1.6698 -1.1546 -0.9273
 5091SOL     OW26201   2.775   5.760   2.465 -0.2391  0.1148  0.2346
 5091SOL    HW126202   2.696   5.711   2.429  1.6088 -1.6599 -1.4763
 5091SOL    HW226203   2.840   5.695   2.503  1.4306  1.3889 -0.4102
 5092SOL     OW26204   6.933   7.249   5.321  0.4848  0.5841  0.5179
 5092SOL    HW126205   7.025   7.288   5.316  0.9895 -0.6219  0.2716
 5092SOL    HW226206   6.940   7.149   5.327 -0.8309  0.4329 -0.4045
 5093SOL     OW26207   0.238   1.846   1.054 -0.5910 -0.4417 -0.9136
 5093SOL    HW126208   0.258   1.919   0.989  0.7870 -0.4195 -0.5020
 5093SOL    HW226209   0.278   1.760   1.022 -1.1849 -0.7582 -0.8198
 5094SOL     OW26210   4.078   1.399   0.972  0.2667 -0.0506  0.3140
 5094SOL    HW126211   3.979   1.418   0.970  0.5912  1.6810  0.1801
 5094SOL    HW226212   4.115   1.405   0.879  0.5488 -0.3989  0.4047
 5095SOL     OW26213   0.240   0.178   0.780  0.3982  0.8384  0.1909
 5095SOL    HW126214   0.222   0.081   0.763  0.3662  0.7842  0.5222
 5095SOL    HW226215   0.293   0.216   0.705  2.7328 -0.0854  1.3022
 5096SOL     OW26216   7.305   1.800   4.439  0.1759 -0.5427  0.0429
 5096SOL    HW126217   7.240   1.867   4.475  0.2061 -1.4007  1.6991
 5096SOL    HW226218   7.299   1.799   4.339 -2.4926 -0.7302  0.1718
 5097SOL     OW26219   2.970   2.646   0.972 -0.2231  0.1041  0.4926
 5097SOL    HW126220   2.921   2.632   0.887 -0.6444 -0.6932  0.8590
 5097SOL    HW226221   2.931   2.725   1.021  0.1690  0.7033 -0.1481
 5098SOL     OW26222   9.004   5.496   6.074 -0.5925 -0.3085 -0.4248
 5098SOL    HW126223   9.058   5.529   5.997 -1.9362  0.3204 -1.1247
 5098SOL    HW226224   9.064   5.466   6.147  0.7333 -2.0887 -2.2007
 5099SOL     OW26225   0.329   6.208   1.299  0.4675  0.0412  0.0564
 5099SOL    HW126226   0.244   6.169   1.333 -0.0195  1.7209  0.7939
 5099SOL    HW226227   0.313   6.256   1.213  0.4632  1.2183  0.7050
 5100SOL     OW26228   4.895   8.744   4.280 -0.3438  0.2374  0.3730
 5100SOL    HW126229   4.846   8.830   4.264 -1.9921 -0.5364  1.0824
 5100SOL    HW226230   4.952   8.752   4.362  2.4654  1.8513 -1.6477
 5101SOL     OW26231   5.309   0.257   3.884  0.5959  0.0893 -0.5340
 5101SOL    HW126232   5.406   0.246   3.906  0.5803 -0.7430 -0.8464
 5101SOL    HW226233   5.257   0.271   3.968  0.7819 -1.0830 -0.2155
 5102SOL     OW26234   7.177   6.655   4.430 -0.4039 -0.0010 -0.3026
 5102SOL    HW126235   7.233   6.738   4.422 -1.2971  0.7409  0.9247
 5102SOL    HW226236   7.091   6.677   4.477 -1.4252 -1.2665 -1.5511
 5103SOL     OW26237   9.293   4.436   1.744  0.0017  0.3122  0.5030
 5103SOL    HW126238   9.257   4.403   1.657 -1.4880 -1.8692  1.9174
 5103SOL    HW226239   9.292   4.536   1.744 -0.6505  0.3395 -1.6932
 5104SOL     OW26240   9.541   4.183   5.720 -0.3592 -0.4709  0.0095
 5104SOL    HW126241   9.628   4.225   5.693 -1.1013  0.2412 -1.2828
 5104SOL    HW226242   9.544   4.085   5.700  0.7657 -0.7626  1.5276
 5105SOL     OW26243   4.981   0.527   0.581  0.4600 -1.1946 -0.4327
 5105SOL    HW126244   5.028   0.605   0.623 -1.3661 -0.2639 -0.0878
 5105SOL    HW226245   5.007   0.443   0.630  0.2003 -0.4369  1.0407
 5106SOL     OW26246   8.308   1.860   5.668  0.2451 -0.1284 -0.2068
 5106SOL    HW126247   8.367   1.941   5.675  0.6369 -0.3680 -0.7296
 5106SOL    HW226248   8.323   1.816   5.580 -2.9400  1.5225 -1.6394
 5107SOL     OW26249   3.009   4.861   6.440 -0.0755 -0.1069 -0.3649
 5107SOL    HW126250   2.996   4.878   6.343 -0.6548 -0.9387 -0.4389
 5107SOL    HW226251   2.942   4.794   6.472  0.0584  0.2198  0.6249
 5108SOL     OW26252   6.416   7.384   2.901 -0.5745  0.1982 -0.5916
 5108SOL    HW126253   6.427   7.340   2.812 -1.6965  0.4681 -0.8708
 5108SOL    HW226254   6.396   7.315   2.971 -0.5839  0.0800 -0.7122
 5109SOL     OW26255   3.114   7.666   1.466  0.2308 -0.1416  0.1751
 5109SOL    HW126256   3.060   7.609   1.529  0.8057 -0.7120  0.1532
 5109SOL    HW226257   3.141   7.750   1.513 -0.5277  0.0743  0.2411
 5110SOL     OW26258   6.786   7.928   4.626  0.1348  0.3946  0.7768
 5110SOL    HW126259   6.719   7.941   4.699 -0.9640  0.2932 -0.2086
 5110SOL    HW226260   6.810   8.016   4.586 -1.8023  0.1769 -0.9756
 5111SOL     OW26261   1.648   5.848   0.256 -0.2344  0.6186  0.0119
 5111SOL    HW126262   1.676   5.787   0.182  1.3314  3.0248 -1.4793
 5111SOL    HW226263   1.587   5.918   0.219 -1.0497  0.6783  1.4363
 5112SOL     OW26264   4.563   4.851   1.770 -0.0652 -0.4591 -0.0156
 5112SOL    HW126265   4.631   4.780   1.752  0.8701  0.9262 -2.0861
 5112SOL    HW226266   4.481   4.832   1.715 -0.4116 -0.7722  0.6047
 5113SOL     OW26267   6.923   6.797   4.431 -0.3944  0.0361  0.6058
 5113SOL    HW126268   6.961   6.787   4.339 -0.7826 -2.4909  0.6888
 5113SOL    HW226269   6.889   6.890   4.443  0.1527  0.5534 -1.6066
 5114SOL     OW26270   9.195   6.337   0.579 -0.1435  0.2387 -0.4073
 5114SOL    HW126271   9.193   6.293   0.670 -3.7375  0.0993 -0.4810
 5114SOL    HW226272   9.208   6.267   0.509 -1.2650 -0.1746 -0.2189
 5115SOL     OW26273   7.066   9.751   5.579 -0.0991 -0.3178 -0.0689
 5115SOL    HW126274   6.974   9.786   5.568 -0.4189 -1.0301  0.2844
 5115SOL    HW226275   7.098   9.766   5.672  0.1787  0.0070 -0.2125
 5116SOL     OW26276   8.170   1.492   3.926 -0.6509  0.0908  0.1062
 5116SOL    HW126277   8.238   1.420   3.928 -0.4895  0.2460  0.2559
 5116SOL    HW226278   8.215   1.581   3.935 -0.7547  0.2711 -1.0777
 5117SOL     OW26279   4.258   9.511   2.338 -0.2185 -0.5555  0.2899
 5117SOL    HW126280   4.174   9.552   2.303  1.0875 -0.3574 -2.8625
 5117SOL    HW226281   4.312   9.581   2.386  0.1274  0.4450 -1.5063
 5118SOL     OW26282   3.958   1.977   1.589  0.0086  0.0362 -0.4054
 5118SOL    HW126283   3.984   1.990   1.493 -0.7221 -0.5028 -0.6841
 5118SOL    HW226284   3.881   1.914   1.594 -1.6065  2.0328  0.3704
 5119SOL     OW26285   7.795   9.111   4.361  0.5446 -0.5051  0.6199
 5119SOL    HW126286   7.789   9.180   4.433  2.2145  1.2194 -0.8423
 5119SOL    HW226287   7.719   9.123   4.297  1.6549  0.9673 -0.4524
 5120SOL     OW26288   1.418   8.147   0.726 -0.0174  0.5250  0.7005
 5120SOL    HW126289   1.493   8.166   0.663  0.0919  0.4870  0.8204
 5120SOL    HW226290   1.413   8.048   0.743  0.5950  0.6318  1.5542
 5121SOL     OW26291   0.888   5.462   6.041  0.0400 -0.1414  0.1685
 5121SOL    HW126292   0.919   5.557   6.048  1.7769 -0.6622 -0.0697
 5121SOL    HW226293   0.887   5.435   5.944 -0.2666 -0.4271  0.2512
 5122SOL     OW26294   0.810   3.138   1.690  0.1734 -0.0444  0.1180
 5122SOL    HW126295   0.768   3.229   1.695  2.0874  0.8822 -0.2254
 5122SOL    HW226296   0.811   3.097   1.781  0.7195  0.9393  0.5612
 5123SOL     OW26297   4.552   9.289   2.075 -0.3700  0.0080 -0.1296
 5123SOL    HW126298   4.481   9.357   2.089  0.5296  0.9334 -0.0137
 5123SOL    HW226299   4.512   9.197   2.079 -1.4326  0.4976  0.6108
 5124SOL     OW26300   0.239   3.059   3.934  0.0864 -0.2184 -0.3952
 5124SOL    HW126301   0.145   3.050   3.965  0.6345 -3.6338  0.4459
 5124SOL    HW226302   0.302   3.054   4.012  1.0883 -0.7562 -1.2131
 5125SOL     OW26303   8.946   2.714   3.098  0.2698 -0.1391 -0.2079
 5125SOL    HW126304   9.033   2.667   3.084  0.4274 -0.5828  1.9515
 5125SOL    HW226305   8.919   2.705   3.194 -0.9989  1.9826 -0.3370
 5126SOL     OW26306   1.783   2.025   3.833 -0.2101  0.6405  0.2777
 5126SOL    HW126307   1.774   2.061   3.926 -0.0250  2.2649 -0.3200
 5126SOL    HW226308   1.864   2.064   3.790 -0.2042 -0.2386 -0.5237
 5127SOL     OW26309   7.593   9.105   3.494  0.1203  0.1954 -0.1317
 5127SOL    HW126310   7.691   9.107   3.513 -0.1569  0.8150  1.2260
 5127SOL    HW226311   7.551   9.028   3.542 -0.3125  0.8360  0.5234
 5128SOL     OW26312   0.149   2.282   4.402 -0.1430 -0.3994 -0.2293
 5128SOL    HW126313   0.240   2.279   4.361 -0.2632 -1.6842 -0.4192
 5128SOL    HW226314   0.081   2.254   4.334 -0.6938  0.5894 -0.0992
 5129SOL     OW26315   0.712   2.729   1.050  0.1266 -0.0669 -0.5785
 5129SOL    HW126316   0.800   2.737   1.096 -0.2612 -0.9527  0.3515
 5129SOL    HW226317   0.724   2.684   0.961  0.7656  0.8812 -0.9736
 5130SOL     OW26318   3.781   9.152   1.695 -0.2358 -0.1886  0.8355
 5130SOL    HW126319   3.720   9.198   1.631  0.6914 -0.6480 -0.3995
 5130SOL    HW226320   3.811   9.216   1.766 -0.4769  0.5916  0.2279
 5131SOL     OW26321   1.464   8.237   4.009  0.0178  0.9969  0.6158
 5131SOL    HW126322   1.420   8.236   3.920 -0.7745  0.7735  1.0048
 5131SOL    HW226323   1.398   8.267   4.078  0.5593  0.9445  1.1568
 5132SOL     OW26324   2.603   5.668   4.177  0.1837 -0.3175  0.8966
 5132SOL    HW126325   2.608   5.595   4.246  2.2564  0.6193  1.7850
 5132SOL    HW226326   2.509   5.702   4.171 -0.3492 -1.5243  2.0882
 5133SOL     OW26327   0.403   7.842   6.572 -0.1740 -0.1657  0.4441
 5133SOL    HW126328   0.478   7.836   6.637  0.4614  1.6601 -0.0928
 5133SOL    HW226329   0.420   7.916   6.507 -1.4557 -1.0596 -0.9578
 5134SOL     OW26330   2.381   3.393   4.857 -0.0181 -0.4365  0.2372
 5134SOL    HW126331   2.414   3.412   4.764  1.6409 -1.3987  0.6098
 5134SOL    HW226332   2.400   3.298   4.880 -1.7693 -0.5957  1.0257
 5135SOL     OW26333   1.155   5.701   2.164  0.1286  0.4757  0.3348
 5135SOL    HW126334   1.138   5.628   2.231 -0.1997  0.9464  0.7738
 5135SOL    HW226335   1.253   5.707   2.145  0.2047  0.2161  0.6409
 5136SOL     OW26336   0.814   0.242   2.281 -0.0663 -0.2284 -0.3036
 5136SOL    HW126337   0.888   0.293   2.324 -0.6462  0.0755  0.3461
 5136SOL    HW226338   0.849   0.154   2.248 -0.3344 -2.0612  3.9646
 5137SOL     OW26339   0.605   7.001   1.900  0.0823  0.3732 -0.1771
 5137SOL    HW126340   0.704   7.000   1.890  0.1636 -1.7428  0.4542
 5137SOL    HW226341   0.580   7.059   1.977  0.7330  1.8815 -1.0898
 5138SOL     OW26342   9.736   0.770   1.641 -0.1556  0.4272 -1.3865
 5138SOL    HW126343   9.661   0.811   1.588 -0.3128 -0.8089 -2.1419
 5138SOL    HW226344   9.759   0.681   1.602 -0.4669 -0.6340  0.8102
 5139SOL     OW26345   4.946   7.756   3.861  0.3674 -0.2284 -0.4872
 5139SOL    HW126346   4.972   7.672   3.814  1.0758 -1.1218  1.4391
 5139SOL    HW226347   4.955   7.742   3.960  1.5284  2.4560 -0.1912
 5140SOL     OW26348   9.123   1.449   4.414  0.1429  0.4355  0.1257
 5140SOL    HW126349   9.195   1.480   4.475  0.1547 -2.2064  1.4994
 5140SOL    HW226350   9.055   1.398   4.466 -0.8635 -0.1658 -1.7516
 5141SOL     OW26351   2.244   5.851   5.659 -0.1062 -0.1292 -0.3512
 5141SOL    HW126352   2.304   5.848   5.580  0.5764 -1.1893  0.2105
 5141SOL    HW226353   2.291   5.815   5.739 -1.5020 -1.0539  0.0792
 5142SOL     OW26354   7.157   2.474   2.858  0.1082 -0.2237 -0.4396
 5142SOL    HW126355   7.223   2.546   2.879  0.6799 -1.0829  0.7508
 5142SOL    HW226356   7.086   2.471   2.929  0.0208 -0.7501 -0.5446
 5143SOL     OW26357   2.999   5.520   5.964  0.3560 -0.1960  0.6745
 5143SOL    HW126358   2.977   5.429   6.001 -0.2403  0.4511  1.9614
 5143SOL    HW226359   3.043   5.575   6.035  1.9642  0.0777 -0.5167
 5144SOL     OW26360   3.054   8.885   1.987 -0.1294 -0.0206 -0.2067
 5144SOL    HW126361   3.107   8.803   1.966  0.1292 -0.2945  1.4596
 5144SOL    HW226362   3.097   8.936   2.061 -0.8027  1.1332 -0.5826
 5145SOL     OW26363   4.298   1.136   1.730  0.4799  0.5637 -0.0929
 5145SOL    HW126364   4.308   1.100   1.637  1.9071  1.0703 -0.1469
 5145SOL    HW226365   4.247   1.070   1.786 -1.7713  0.9342 -1.6152
 5146SOL     OW26366   3.382   3.695   0.738 -0.0761 -0.0706  0.0181
 5146SOL    HW126367   3.342   3.778   0.699  1.1652 -0.0932 -1.3610
 5146SOL    HW226368   3.419   3.639   0.664  0.5943 -1.0486  1.0899
 5147SOL     OW26369   2.164   5.141   4.842  0.6534  0.5531 -0.1000
 5147SOL    HW126370   2.256   5.178   4.837  0.6675  0.5200 -0.0849
 5147SOL    HW226371   2.136   5.107   4.752  1.0310 -0.3329  0.1117
 5148SOL     OW26372   7.980   6.802   2.816 -0.0356 -0.4454  0.0081
 5148SOL    HW126373   8.043   6.874   2.786 -1.4061  0.4193 -0.8202
 5148SOL    HW226374   7.982   6.726   2.751  0.5640 -0.6794  0.2900
 5149SOL     OW26375   0.092   7.505   4.142  0.1482 -0.0911 -0.0238
 5149SOL    HW126376   0.045   7.477   4.059  0.2641 -1.0194  0.2171
 5149SOL    HW226377   0.055   7.592   4.175  0.8983  0.8878 -1.6919
 5150SOL     OW26378   9.532   4.400   0.192  1.2442  0.0945  0.1738
 5150SOL    HW126379   9.582   4.486   0.182  0.0876  1.0210  2.1827
 5150SOL    HW226380   9.593   4.323   0.169  3.4726  1.1955  2.2013
 5151SOL     OW26381   7.598   1.152   3.388  0.0929 -0.4539 -0.2638
 5151SOL    HW126382   7.697   1.167   3.395  0.1097 -0.7410  0.1415
 5151SOL    HW226383   7.550   1.238   3.409  0.2067 -0.8097  1.5388
 5152SOL     OW26384   0.741   3.162   2.059  0.5582  0.0715  0.3174
 5152SOL    HW126385   0.647   3.142   2.085  0.6352 -0.8817 -0.1074
 5152SOL    HW226386   0.792   3.193   2.140 -0.4953  2.0600  0.2367
 5153SOL     OW26387   3.108   9.705   1.763 -0.5640 -0.0178  0.0073
 5153SOL    HW126388   3.044   9.770   1.724 -1.0027  0.1034  0.9195
 5153SOL    HW226389   3.060   9.645   1.827 -0.3986 -1.9200 -1.5633
 5154SOL     OW26390   6.960   0.808   2.189  0.2796 -0.1449  0.0279
 5154SOL    HW126391   7.034   0.853   2.140  1.5618 -0.9634  1.1903
 5154SOL    HW226392   6.875   0.860   2.177  0.7613  0.1252 -2.3144
 5155SOL     OW26393   7.611   3.590   1.244  0.3924 -0.2324 -0.7067
 5155SOL    HW126394   7.628   3.506   1.295 -0.8006  0.2530  0.5365
 5155SOL    HW226395   7.614   3.668   1.308  1.3808  0.6635 -1.8161
 5156SOL     OW26396   3.275   2.152   2.471  0.1326 -0.4799  0.5031
 5156SOL    HW126397   3.224   2.110   2.546  0.2170 -1.3377  0.0904
 5156SOL    HW226398   3.297   2.082   2.403 -0.2051  0.3508 -0.4655
 5157SOL     OW26399   0.872   6.073   2.613  0.2471  0.0996 -0.3524
 5157SOL    HW126400   0.894   6.031   2.525 -0.2460  1.5957 -1.2072
 5157SOL    HW226401   0.833   6.004   2.674 -2.8066 -0.2143 -2.5370
 5158SOL     OW26402   2.221   4.496   3.358  0.6000 -0.5788  0.2093
 5158SOL    HW126403   2.278   4.421   3.392 -0.2728 -0.9077  0.9547
 5158SOL    HW226404   2.125   4.477   3.378  0.1874 -0.1355 -1.2364
 5159SOL     OW26405   2.103   3.406   0.198 -0.4986 -0.4716  0.6542
 5159SOL    HW126406   2.118   3.499   0.163  1.3571 -1.1570 -0.4332
 5159SOL    HW226407   2.127   3.403   0.295 -1.3229  0.3593  0.8946
 5160SOL     OW26408   0.938   4.761   6.441  0.6090  0.1091  0.2543
 5160SOL    HW126409   1.009   4.773   6.510 -0.2194 -0.3167  1.1933
 5160SOL    HW226410   0.975   4.708   6.364  0.5162 -2.6516  2.0473
 5161SOL     OW26411   1.799   3.675   4.808  0.1857 -0.0509  0.2912
 5161SOL    HW126412   1.812   3.722   4.721  2.4758 -2.0971 -0.5148
 5161SOL    HW226413   1.701   3.669   4.827 -0.2811  2.1509 -1.1446
 5162SOL     OW26414   9.857   4.442   1.353 -0.4944  0.0966 -0.1934
 5162SOL    HW126415   9.898   4.477   1.437  1.6058 -0.5371 -0.9284
 5162SOL    HW226416   9.779   4.499   1.328  0.1141  1.5177  1.0537
 5163SOL     OW26417   3.772   6.125   2.209  0.0059 -0.4972 -0.1026
 5163SOL    HW126418   3.771   6.171   2.120  0.1553 -1.0404 -0.3824
 5163SOL    HW226419   3.836   6.172   2.270 -0.4896  0.1977 -0.1046
 5164SOL     OW26420   5.969   0.390   3.086  0.0194 -0.2140  0.2481
 5164SOL    HW126421   5.925   0.479   3.101  1.0031 -0.0830  2.5113
 5164SOL    HW226422   6.067   0.397   3.106  0.0943 -1.8187  0.5458
 5165SOL     OW26423   8.107   6.469   2.303 -0.4581 -0.4276 -0.3771
 5165SOL    HW126424   8.085   6.422   2.389 -0.1833 -0.8053 -0.5121
 5165SOL    HW226425   8.089   6.567   2.314  0.4247 -0.3421  0.4123
 5166SOL     OW26426   3.701   9.189   1.238  0.6764  0.8003  0.1360
 5166SOL    HW126427   3.645   9.269   1.257 -2.6317 -1.1966 -0.7494
 5166SOL    HW226428   3.679   9.152   1.148  3.8785  0.2432 -0.5047
 5167SOL     OW26429   5.096   7.164   4.050  0.1949  0.4535  0.6470
 5167SOL    HW126430   5.112   7.247   3.996  0.9314 -0.3445 -0.3879
 5167SOL    HW226431   4.998   7.151   4.061  0.0832  1.7877  1.3304
 5168SOL     OW26432   0.751   9.022   0.532 -0.6477  0.2850  0.0629
 5168SOL    HW126433   0.740   8.924   0.516  1.2289  0.2564 -1.1355
 5168SOL    HW226434   0.786   9.066   0.449 -3.7590  2.3876 -0.2308
 5169SOL     OW26435   1.407   6.990   3.692  0.0939  0.7455 -0.3041
 5169SOL    HW126436   1.413   6.903   3.741 -0.7135  0.2043 -1.1589
 5169SOL    HW226437   1.366   7.060   3.751 -1.2962 -0.0167 -0.3485
 5170SOL     OW26438   3.449   4.537   3.414 -0.0160  0.1910 -0.4407
 5170SOL    HW126439   3.538   4.567   3.379  1.1230  0.1668  2.3014
 5170SOL    HW226440   3.432   4.442   3.385  1.5421 -0.3146  0.2567
 5171SOL     OW26441   7.308   1.243   1.898 -0.3536 -0.2124  0.2145
 5171SOL    HW126442   7.287   1.162   1.952 -0.0843 -0.2963  0.1896
 5171SOL    HW226443   7.401   1.237   1.863 -1.0933 -0.9732 -1.6902
 5172SOL     OW26444   1.984   7.471   0.672  0.1908 -0.3674  0.6538
 5172SOL    HW126445   2.027   7.528   0.602  0.6983 -2.3603 -0.7010
 5172SOL    HW226446   1.906   7.423   0.633 -0.3916 -0.4043  1.8458
 5173SOL     OW26447   7.285   0.320   4.954 -0.2546 -0.3108  0.3437
 5173SOL    HW126448   7.211   0.271   4.907 -0.1235  0.4188 -0.6263
 5173SOL    HW226449   7.252   0.350   5.044 -0.7626 -1.0017  0.3978
 5174SOL     OW26450   6.091   9.295   4.177  0.2266 -0.2332  0.1647
 5174SOL    HW126451   6.033   9.224   4.219  1.5424 -0.7569  1.1446
 5174SOL    HW226452   6.116   9.266   4.085 -0.1641 -0.5328  0.1489
 5175SOL     OW26453   3.344   0.731   4.239 -0.0280 -0.0616 -0.7691
 5175SOL    HW126454   3.322   0.826   4.215  1.5961  0.1167 -1.6250
 5175SOL    HW226455   3.434   0.707   4.202  0.3407 -1.3966  0.9037
 5176SOL     OW26456   8.435   6.368   3.994 -0.8393 -0.6762 -0.3689
 5176SOL    HW126457   8.461   6.457   3.956  1.3936 -0.6453  1.1390
 5176SOL    HW226458   8.363   6.381   4.063  1.4462  0.3623  1.9103
 5177SOL     OW26459   1.870   4.561   5.882 -0.0373  0.3947 -0.1461
 5177SOL    HW126460   1.959   4.579   5.922  1.9690 -3.2371 -2.6853
 5177SOL    HW226461   1.878   4.558   5.782 -2.4945 -2.0783 -0.3460
 5178SOL     OW26462   7.217   1.531   4.632  0.3623  0.0086  0.3596
 5178SOL    HW126463   7.162   1.547   4.550  1.4015 -0.6644 -0.4843
 5178SOL    HW226464   7.288   1.463   4.612 -0.4732 -1.4801  2.3142
 5179SOL     OW26465   8.165   0.125   1.392 -0.1394  0.0607  0.1687
 5179SOL    HW126466   8.138   0.181   1.470 -0.7484 -0.3772  0.2770
 5179SOL    HW226467   8.141   0.029   1.410  1.4840 -0.3513  0.2689
 5180SOL     OW26468   6.457   1.388   3.678  0.3096  0.5951  0.3005
 5180SOL    HW126469   6.364   1.423   3.667 -0.3877 -1.0019  0.8828
 5180SOL    HW226470   6.453   1.292   3.708  2.1421  0.4651  0.1919
 5181SOL     OW26471   9.765   2.308   5.041  0.0775  1.0542  0.1589
 5181SOL    HW126472   9.832   2.372   5.081 -0.9432  1.3064  1.5078
 5181SOL    HW226473   9.681   2.310   5.096 -0.4213 -0.5178 -0.5307
 5182SOL     OW26474   4.070   9.881   3.114  0.5033  0.0158 -0.4732
 5182SOL    HW126475   4.071   9.977   3.145 -0.0637  0.2482 -1.1633
 5182SOL    HW226476   4.103   9.876   3.020  1.8320 -0.6443  0.0254
 5183SOL     OW26477   9.950   3.071   3.960 -0.2758 -0.0508  0.6953
 5183SOL    HW126478   9.874   3.133   3.975 -1.7758 -1.9596  1.1212
 5183SOL    HW226479   9.939   3.024   3.872  0.2728 -0.5292  0.8741
 5184SOL     OW26480   2.397   8.248   2.032 -0.1197 -0.4713  0.1346
 5184SOL    HW126481   2.447   8.315   2.088 -0.1740  0.3789 -0.8003
 5184SOL    HW226482   2.446   8.161   2.033 -0.2286 -0.5316  1.6520
 5185SOL     OW26483   9.851   8.400   0.815  0.0182  0.2062 -0.8192
 5185SOL    HW126484   9.909   8.320   0.810 -1.0979 -0.6568 -0.2136
 5185SOL    HW226485   9.902   8.481   0.786  1.5976 -0.4872 -0.0090
 5186SOL     OW26486   0.443   9.630   4.793  0.1895 -0.1150 -0.4920
 5186SOL    HW126487   0.395   9.597   4.711  0.4734  1.8060 -1.4620
 5186SOL    HW226488   0.442   9.730   4.794 -1.4092 -0.0870  2.8212
 5187SOL     OW26489   0.688   3.856   0.831  0.2261 -0.0624  0.4042
 5187SOL    HW126490   0.759   3.795   0.795  0.2392 -0.8690  1.7564
 5187SOL    HW226491   0.614   3.801   0.870  0.3347  0.7775  1.8071
 5188SOL     OW26492   1.949   6.669   1.826 -0.1880 -0.4390 -0.3193
 5188SOL    HW126493   2.027   6.696   1.770 -0.2777 -0.6562 -0.5518
 5188SOL    HW226494   1.935   6.570   1.818 -0.1791 -0.4763  0.1137
 5189SOL     OW26495   2.320   7.846   3.885  0.5072 -0.2974 -0.0916
 5189SOL    HW126496   2.307   7.840   3.785  0.2273  0.7072 -0.1198
 5189SOL    HW226497   2.253   7.910   3.923  3.0597  2.2439  0.2485
 5190SOL     OW26498   0.888   8.137   5.086  0.4383 -0.2020 -0.4004
 5190SOL    HW126499   0.862   8.134   4.990  1.8981 -1.6056 -0.7623
 5190SOL    HW226500   0.857   8.224   5.126 -0.5047  0.2301 -2.0164
 5191SOL     OW26501   3.479   8.430   1.851  0.4474  0.2688  0.0632
 5191SOL    HW126502   3.576   8.409   1.857  0.3757 -0.7399 -1.9553
 5191SOL    HW226503   3.430   8.382   1.924  1.0642 -1.9811 -0.9438
 5192SOL     OW26504   4.035   7.773   4.586 -0.0872  0.2993 -0.3172
 5192SOL    HW126505   3.944   7.765   4.626  1.2205 -0.5381  2.6506
 5192SOL    HW226506   4.053   7.869   4.563 -1.3979  0.6007 -0.1345
 5193SOL     OW26507   7.343   0.871   2.398  0.0783  0.0964 -0.3467
 5193SOL    HW126508   7.253   0.831   2.379 -0.3357  1.2735 -0.9758
 5193SOL    HW226509   7.405   0.851   2.321  0.0235  0.2211 -0.4237
 5194SOL     OW26510   0.328   2.034   0.854 -0.3954  0.2028  0.2945
 5194SOL    HW126511   0.337   1.949   0.803  0.6565 -0.4719  1.5634
 5194SOL    HW226512   0.306   2.109   0.791 -1.1349 -0.9560 -0.8543
 5195SOL     OW26513   9.606   5.003   1.261  0.0210  0.1018  0.2257
 5195SOL    HW126514   9.515   4.968   1.238 -0.3191  1.9737 -1.3632
 5195SOL    HW226515   9.597   5.084   1.318  0.6936  0.2657  0.0984
 5196SOL     OW26516   7.065   9.428   4.195 -0.1069 -0.3565 -0.3911
 5196SOL    HW126517   7.125   9.349   4.205  0.8277  0.3960 -0.0459
 5196SOL    HW226518   6.970   9.398   4.202  0.2659 -1.2938  0.9073
 5197SOL     OW26519   8.513   0.535   1.049 -0.2152  0.5733 -0.2234
 5197SOL    HW126520   8.480   0.619   1.006  0.2022  0.6203 -0.4516
 5197SOL    HW226521   8.539   0.554   1.143  0.3459  0.8094 -0.4231
 5198SOL     OW26522   2.727   7.532   1.273  0.0396  0.0072 -0.3619
 5198SOL    HW126523   2.823   7.508   1.283 -0.2578 -2.1530 -2.2870
 5198SOL    HW226524   2.720   7.630   1.252  1.8798  0.0200 -1.0546
 5199SOL     OW26525   1.499   3.808   1.208  0.5153 -0.2721 -0.7929
 5199SOL    HW126526   1.507   3.890   1.150  1.2655  1.3352  1.4819
 5199SOL    HW226527   1.590   3.771   1.226  0.2524 -1.0335 -1.0335
 5200SOL     OW26528   4.931   3.582   4.895  0.3022 -0.0270 -0.0832
 5200SOL    HW126529   4.906   3.492   4.860 -0.6556  0.6854 -1.2865
 5200SOL    HW226530   4.849   3.640   4.899  1.0073  0.9744  0.1129
 5201SOL     OW26531   0.621   3.563   3.361  0.1495  0.1565  0.5504
 5201SOL    HW126532   0.530   3.571   3.320 -0.1769 -1.8060  0.8126
 5201SOL    HW226533   0.619   3.494   3.433  2.1309 -0.8550 -0.3086
 5202SOL     OW26534   4.497   5.848   1.559  0.4388  0.3547  0.1646
 5202SOL    HW126535   4.443   5.878   1.480 -0.2280 -1.4377 -0.0745
 5202SOL    HW226536   4.439   5.794   1.621  1.8082 -1.1610  0.1618
 5203SOL     OW26537   9.602   8.472   1.797 -0.1458 -0.1179  0.1419
 5203SOL    HW126538   9.670   8.399   1.792 -0.4301 -0.4761  1.4199
 5203SOL    HW226539   9.639   8.556   1.757  1.6047  0.1136  2.1821
 5204SOL     OW26540   4.568   5.940   1.215 -0.3695  0.0066  0.5742
 5204SOL    HW126541   4.651   5.887   1.198 -1.0348 -0.9296  0.2006
 5204SOL    HW226542   4.578   6.031   1.173  0.1506 -0.3871 -0.1761
 5205SOL     OW26543   0.083   4.604   3.322 -0.3426 -0.3971  0.1208
 5205SOL    HW126544   0.009   4.672   3.322  1.0558  1.1490 -0.0392
 5205SOL    HW226545   0.083   4.555   3.409 -0.5043  0.7797  0.7922
 5206SOL     OW26546   8.972   4.197   1.725  0.9720 -0.1009 -0.1064
 5206SOL    HW126547   9.004   4.234   1.813  1.1131  1.4604 -0.8049
 5206SOL    HW226548   8.879   4.163   1.736 -0.0125  2.5368  0.0177
 5207SOL     OW26549   2.600   2.458   1.779 -0.1208 -0.2306 -0.2597
 5207SOL    HW126550   2.571   2.548   1.812 -0.7653 -0.7120  0.5164
 5207SOL    HW226551   2.608   2.395   1.857  1.9581 -0.4103 -0.5977
 5208SOL     OW26552   0.423   2.994   6.472  0.0751 -0.2594  0.3110
 5208SOL    HW126553   0.515   3.029   6.489 -0.0833  0.9138 -1.1525
 5208SOL    HW226554   0.372   3.060   6.417 -0.9719 -1.8094 -0.6118
 5209SOL     OW26555   2.956   5.113   3.973  0.1463  0.8505  0.0270
 5209SOL    HW126556   2.941   5.182   4.044  0.8418 -0.1719  1.1845
 5209SOL    HW226557   2.902   5.031   3.994  2.5429 -0.5280  0.9232
 5210SOL     OW26558   7.811   3.275   4.690  0.3447 -0.3344 -0.2372
 5210SOL    HW126559   7.733   3.226   4.727 -0.5405 -0.1429 -1.8006
 5210SOL    HW226560   7.865   3.213   4.632  0.9269 -0.2610  0.2218
 5211SOL     OW26561   1.411   6.850   5.639 -0.3917  0.2391 -1.4232
 5211SOL    HW126562   1.442   6.845   5.544 -0.8361 -0.1670 -1.5457
 5211SOL    HW226563   1.468   6.791   5.696 -3.2706 -3.5814 -2.2573
 5212SOL     OW26564   8.174   1.883   6.455  0.3694  0.1266  0.6615
 5212SOL    HW126565   8.179   1.967   6.401  1.5436 -0.8772 -0.8450
 5212SOL    HW226566   8.107   1.820   6.414 -0.3698  0.2342  1.6706
 5213SOL     OW26567   5.014   9.873   4.243 -0.3199 -0.5425 -0.4413
 5213SOL    HW126568   5.015   9.913   4.335  2.0719 -0.7202 -0.3463
 5213SOL    HW226569   4.921   9.875   4.207 -1.2972 -0.4479  1.9645
 5214SOL     OW26570   7.696   0.722   3.929  0.0680 -0.2911  0.0984
 5214SOL    HW126571   7.769   0.704   3.995  0.2403 -0.2609 -0.0843
 5214SOL    HW226572   7.651   0.808   3.953  1.2993  0.6536 -0.8480
 5215SOL     OW26573   2.729   6.661   4.566 -0.2383 -0.8162  0.4601
 5215SOL    HW126574   2.766   6.686   4.655 -0.1516  0.6801  0.0026
 5215SOL    HW226575   2.768   6.573   4.538  1.9795  0.1108  0.5526
 5216SOL     OW26576   7.846   1.369   1.530 -0.4979 -0.2055  0.2179
 5216SOL    HW126577   7.880   1.406   1.444  1.0580  0.0725  0.9383
 5216SOL    HW226578   7.920   1.321   1.577 -0.8816  1.0836  2.1849
 5217SOL     OW26579   5.004   2.428   1.291 -0.5483  0.3904  0.5562
 5217SOL    HW126580   4.949   2.356   1.333 -1.4911  1.8908  1.9515
 5217SOL    HW226581   4.961   2.517   1.309 -0.5861  1.1451 -2.9910
 5218SOL     OW26582   1.888   3.710   0.603  0.0012 -0.0564  0.2650
 5218SOL    HW126583   1.877   3.646   0.527  1.2856 -0.8853  0.7539
 5218SOL    HW226584   1.831   3.681   0.680 -0.5900  0.2613 -0.0485
 5219SOL     OW26585   3.458   3.522   0.523 -0.5667  0.2909  0.3923
 5219SOL    HW126586   3.482   3.489   0.432 -0.1190  1.7115 -0.0197
 5219SOL    HW226587   3.494   3.460   0.592  2.4906  1.2378 -0.2765
 5220SOL     OW26588   3.339   7.890   3.419 -0.0143  0.4455  0.7720
 5220SOL    HW126589   3.375   7.983   3.425  3.7013 -0.7522 -1.5756
 5220SOL    HW226590   3.334   7.863   3.323 -2.6051 -1.2545  1.3410
 5221SOL     OW26591   2.500   7.976   2.054 -0.0805  0.3429  0.4855
 5221SOL    HW126592   2.598   7.979   2.034  0.1932  3.1125  1.9093
 5221SOL    HW226593   2.457   7.902   2.003  3.2265 -2.7765  2.0323
 5222SOL     OW26594   8.182   0.622   6.183  0.1859 -0.5512  0.4048
 5222SOL    HW126595   8.201   0.641   6.086 -0.0722 -0.1638  0.4274
 5222SOL    HW226596   8.137   0.534   6.192  2.1064 -1.5577  0.3563
 5223SOL     OW26597   8.551   2.492   2.129 -0.2294  0.2425  0.2497
 5223SOL    HW126598   8.639   2.533   2.108 -0.2925 -0.0187 -0.5323
 5223SOL    HW226599   8.480   2.563   2.128 -0.3919  0.0605 -1.4308
 5224SOL     OW26600   0.701   3.581   4.355  0.1894 -0.0932  0.0300
 5224SOL    HW126601   0.650   3.566   4.271  1.4949 -2.4252 -0.3799
 5224SOL    HW226602   0.706   3.496   4.407  3.1677  0.1798  0.2953
 5225SOL     OW26603   7.610   8.722   3.014 -0.0284 -0.4863 -0.0493
 5225SOL    HW126604   7.617   8.637   2.962 -1.1776 -0.6851  0.1079
 5225SOL    HW226605   7.682   8.725   3.083 -0.9692 -2.0736  1.0176
 5226SOL     OW26606   4.101   4.483   3.416 -0.1781 -0.1087 -0.3141
 5226SOL    HW126607   4.200   4.494   3.407 -0.2176  1.1756  0.6305
 5226SOL    HW226608   4.055   4.562   3.375 -0.7572 -0.0165  0.5078
 5227SOL     OW26609   1.486   4.640   4.738  0.0891 -0.3420  0.3459
 5227SOL    HW126610   1.574   4.651   4.692 -0.3306  1.0042 -0.1605
 5227SOL    HW226611   1.430   4.574   4.689  0.4335 -0.4445  0.0930
 5228SOL     OW26612   1.242   5.848   5.419  0.1308  0.0791  0.4962
 5228SOL    HW126613   1.169   5.917   5.411  0.1071 -0.1752 -1.8007
 5228SOL    HW226614   1.256   5.826   5.516 -1.8655  1.1672  1.0695
 5229SOL     OW26615   0.798   5.087   0.908 -0.0050 -0.6240  0.5539
 5229SOL    HW126616   0.865   5.126   0.844  0.5970  0.5080  1.8465
 5229SOL    HW226617   0.792   4.988   0.893  3.0296 -0.9870  1.3348
 5230SOL     OW26618   4.319   0.773   4.553  0.6497  0.0868 -0.5472
 5230SOL    HW126619   4.236   0.827   4.568 -1.2027 -2.2851 -1.9044
 5230SOL    HW226620   4.344   0.777   4.457  1.8488  0.4009 -0.2260
 5231SOL     OW26621   4.824   8.916   4.896  0.5685  0.3681 -0.3479
 5231SOL    HW126622   4.812   9.015   4.902 -0.1263  0.1993  1.1196
 5231SOL    HW226623   4.754   8.870   4.950  1.3003 -0.9166 -0.4657
 5232SOL     OW26624   3.079   6.346   5.236  0.4425  0.2741 -0.2822
 5232SOL    HW126625   3.063   6.338   5.334  0.0141  3.4808 -0.0358
 5232SOL    HW226626   2.992   6.364   5.190  0.4470 -2.4136 -1.4469
 5233SOL     OW26627   2.110   3.100   3.618 -0.1708 -0.3184  0.1864
 5233SOL    HW126628   2.101   3.107   3.718  0.6932  0.1858  0.2380
 5233SOL    HW226629   2.121   3.005   3.592  1.2451 -0.3233  0.7382
 5234SOL     OW26630   1.194   5.489   0.049 -0.2260  0.5175 -0.0459
 5234SOL    HW126631   1.259   5.416   0.071 -0.4467  0.5457  0.7188
 5234SOL    HW226632   1.109   5.449   0.016  0.2193  0.4835 -1.1547
 5235SOL     OW26633   1.889   4.477   5.609  0.1198 -0.4396 -0.1953
 5235SOL    HW126634   1.794   4.468   5.578  0.2268  0.6531 -0.8803
 5235SOL    HW226635   1.938   4.538   5.547  0.8580  0.2734  1.0780
 5236SOL     OW26636   8.137   5.862   1.513  0.0195  0.1470  0.0691
 5236SOL    HW126637   8.173   5.915   1.590 -0.9836  0.2527  0.4790
 5236SOL    HW226638   8.199   5.787   1.491  0.7650  0.6660  0.3847
 5237SOL     OW26639   8.674   9.327   0.637 -0.3277 -0.0420  0.5410
 5237SOL    HW126640   8.638   9.265   0.707  0.9175  0.5144  1.6850
 5237SOL    HW226641   8.745   9.385   0.676  0.0726  0.5956 -1.0772
 5238SOL     OW26642   3.472   8.273   4.157  0.4690 -0.3302 -0.7502
 5238SOL    HW126643   3.545   8.212   4.127 -0.3650 -1.6060 -0.2236
 5238SOL    HW226644   3.443   8.247   4.250  0.4741  1.2032 -0.3070
 5239SOL     OW26645   1.029   4.603   4.270  0.0805  0.2250 -0.1490
 5239SOL    HW126646   1.041   4.701   4.253 -0.3355  0.5875  1.5330
 5239SOL    HW226647   0.932   4.581   4.271  0.1803 -0.2570 -0.7678
 5240SOL     OW26648   2.384   6.725   0.285  0.2762  0.8387  0.2812
 5240SOL    HW126649   2.295   6.701   0.325  0.8612 -0.6550  0.7060
 5240SOL    HW226650   2.426   6.798   0.340 -0.4571  1.2016  0.3697
 5241SOL     OW26651   0.089   5.678   6.647  0.4298 -0.1983  0.4204
 5241SOL    HW126652   0.186   5.699   6.637  0.1743  0.0511 -1.7226
 5241SOL    HW226653   0.073   5.584   6.617  0.2957 -0.8923  2.5838
 5242SOL     OW26654   1.299   4.856   2.591 -0.2278  0.0106  0.1283
 5242SOL    HW126655   1.220   4.905   2.627  0.4631  1.2739 -0.0416
 5242SOL    HW226656   1.323   4.780   2.652 -1.0036  0.1840  0.6508
 5243SOL     OW26657   0.139   4.574   2.183 -0.1844 -0.6064  0.2818
 5243SOL    HW126658   0.193   4.564   2.100  1.2534  1.1032  0.9897
 5243SOL    HW226659   0.149   4.491   2.239  0.6116 -0.8585 -0.2174
 5244SOL     OW26660   2.280   2.687   1.384  0.0927 -0.1354  0.0492
 5244SOL    HW126661   2.358   2.637   1.347 -0.0818 -1.4590  1.4552
 5244SOL    HW226662   2.195   2.650   1.347  0.0096 -0.2786  0.3794
 5245SOL     OW26663   6.578   1.573   3.885 -0.2231 -0.0313 -0.0993
 5245SOL    HW126664   6.564   1.531   3.796 -0.9619 -0.3079  0.1455
 5245SOL    HW226665   6.496   1.563   3.941  0.2215  0.1570  0.6070
 5246SOL     OW26666   1.868   4.729   6.517  0.6538 -0.0385 -0.3355
 5246SOL    HW126667   1.963   4.752   6.492  0.9519 -0.3945  0.4663
 5246SOL    HW226668   1.849   4.634   6.489  0.4193  0.1443 -0.8063
 5247SOL     OW26669   1.716   2.478   4.846  0.0998  0.5093 -0.6022
 5247SOL    HW126670   1.699   2.571   4.877 -2.0618  0.0725 -0.4182
 5247SOL    HW226671   1.680   2.413   4.913  1.7536 -0.4831 -0.6362
 5248SOL     OW26672   9.777   0.804   1.917  0.4712  0.1316 -0.1129
 5248SOL    HW126673   9.778   0.779   1.820  1.5755  2.4727 -0.7258
 5248SOL    HW226674   9.695   0.856   1.937  1.7638  2.4243 -0.5601
 5249SOL     OW26675   3.325   2.895   1.606  0.0937 -0.3368 -0.2852
 5249SOL    HW126676   3.320   2.966   1.676 -2.9726 -1.1304  0.3554
 5249SOL    HW226677   3.251   2.908   1.539  0.4774 -1.9920 -1.0644
 5250SOL     OW26678   9.968   3.897   5.599 -0.2243 -0.5784  0.2669
 5250SOL    HW126679   9.882   3.856   5.630 -0.9250  0.1633 -0.6444
 5250SOL    HW226680  10.024   3.826   5.557 -0.2661 -1.1254  1.1208
 5251SOL     OW26681   2.734   7.032   2.730  0.2544  0.6849  0.7162
 5251SOL    HW126682   2.800   7.104   2.709  0.1520  1.0385  1.5944
 5251SOL    HW226683   2.774   6.943   2.707 -0.0358  1.0723 -1.4347
 5252SOL     OW26684   7.287   9.937   1.437  0.1839  0.0992 -0.4271
 5252SOL    HW126685   7.345   9.999   1.383 -1.6103 -0.0402 -2.6122
 5252SOL    HW226686   7.301   9.843   1.406 -0.3019 -0.0819 -0.1016
 5253SOL     OW26687   9.980   9.352   4.097  0.5261  0.0753  0.2266
 5253SOL    HW126688  10.027   9.290   4.160  1.3323  0.0682 -0.3800
 5253SOL    HW226689   9.963   9.439   4.143 -0.0541 -0.3813  0.8812
 5254SOL     OW26690   7.653   2.249   0.862  0.4246  0.0104 -0.1325
 5254SOL    HW126691   7.660   2.316   0.935  0.6371  1.0791 -1.1215
 5254SOL    HW226692   7.638   2.296   0.775  0.3070 -1.2386 -0.7976
 5255SOL     OW26693   0.645   1.742   0.883  0.4642 -0.5472  0.2240
 5255SOL    HW126694   0.692   1.699   0.960  1.5824  1.4229  0.6565
 5255SOL    HW226695   0.711   1.791   0.827 -0.8936  1.1583  0.0998
 5256SOL     OW26696   6.180   1.715   3.116 -0.0724 -0.2751  1.3725
 5256SOL    HW126697   6.274   1.715   3.149  0.6107  0.1093 -0.5020
 5256SOL    HW226698   6.117   1.700   3.193  1.4781  0.0030  2.7193
 5257SOL     OW26699   7.397   1.088   0.801 -0.5880  0.3819  0.0774
 5257SOL    HW126700   7.342   1.045   0.871 -0.2764 -0.1770 -0.0194
 5257SOL    HW226701   7.493   1.064   0.814 -0.5483  0.1276 -0.6464
 5258SOL     OW26702   1.209   3.438   4.711 -0.1504 -0.1498  0.0123
 5258SOL    HW126703   1.171   3.518   4.756 -1.2743  0.2373 -1.6155
 5258SOL    HW226704   1.290   3.464   4.658 -0.0978 -0.2309  0.0511
 5259SOL     OW26705   1.082   9.470   4.899  0.8777 -0.6216  0.1798
 5259SOL    HW126706   0.995   9.450   4.943  0.8856  0.0512  0.5073
 5259SOL    HW226707   1.069   9.544   4.832  1.4622  0.4209  1.2044
 5260SOL     OW26708   5.537   0.596   3.002  0.1718 -0.5444 -0.3420
 5260SOL    HW126709   5.573   0.532   3.070  0.1534 -0.7128 -0.4904
 5260SOL    HW226710   5.540   0.554   2.911 -0.4014 -0.5679 -0.3561
 5261SOL     OW26711   8.228   4.357   3.930  0.3169  0.2949 -0.7027
 5261SOL    HW126712   8.175   4.358   4.015  2.2642 -0.5445  0.5831
 5261SOL    HW226713   8.175   4.397   3.856 -2.1670 -0.7119  0.4793
 5262SOL     OW26714   8.064   9.721   2.691 -0.1772 -0.1785 -0.4005
 5262SOL    HW126715   8.100   9.812   2.711  0.5551 -0.5923  0.2543
 5262SOL    HW226716   7.988   9.701   2.753  0.1593 -0.3010 -0.0189
 5263SOL     OW26717   1.537   5.067   6.420  0.5693  0.0647  0.5660
 5263SOL    HW126718   1.508   5.162   6.434  2.5733  0.7497  0.2504
 5263SOL    HW226719   1.517   5.040   6.326  1.5591  0.7496  0.1575
 5264SOL     OW26720   7.603   1.190   1.316  0.6531 -0.7892  0.1899
 5264SOL    HW126721   7.602   1.285   1.283 -1.5063 -0.6460  0.6280
 5264SOL    HW226722   7.574   1.187   1.412 -2.3295 -2.1832 -0.6970
 5265SOL     OW26723   2.858   5.983   1.606 -0.4522  0.3135 -0.2941
 5265SOL    HW126724   2.810   6.071   1.604 -2.6437 -0.8217  0.0616
 5265SOL    HW226725   2.850   5.942   1.697 -0.2636 -0.6781 -0.7108
 5266SOL     OW26726   2.737   3.978   4.647 -0.8335 -0.6150  0.9695
 5266SOL    HW126727   2.836   3.962   4.653 -0.6571  0.0081 -0.1415
 5266SOL    HW226728   2.710   3.982   4.551 -2.1643 -2.0465  1.2685
 5267SOL     OW26729   9.658   2.856   2.287  0.7139  0.4928 -0.1416
 5267SOL    HW126730   9.618   2.943   2.261  1.0674  0.2351 -1.5950
 5267SOL    HW226731   9.753   2.852   2.256  0.5203 -0.6445 -0.6236
 5268SOL     OW26732   7.299   1.387   2.923  0.2922  0.4039  0.4327
 5268SOL    HW126733   7.369   1.449   2.958  0.7168  0.2780 -0.1764
 5268SOL    HW226734   7.344   1.307   2.882 -0.0005  2.2289 -3.7320
 5269SOL     OW26735   5.228   2.843   4.283 -0.2930 -0.1550  0.1163
 5269SOL    HW126736   5.282   2.860   4.200  0.6616  0.2871  0.8128
 5269SOL    HW226737   5.273   2.888   4.361  0.1180 -2.5367  1.3018
 5270SOL     OW26738   4.739   9.670   4.391  0.5215  0.0177  0.0617
 5270SOL    HW126739   4.720   9.713   4.302 -0.4326 -1.4669 -0.4694
 5270SOL    HW226740   4.720   9.736   4.464  0.9952  1.1483 -0.8091
 5271SOL     OW26741   2.995   4.433   6.013  0.2530  0.5238  0.2570
 5271SOL    HW126742   3.014   4.452   6.109 -1.2423  0.1534  0.6208
 5271SOL    HW226743   3.072   4.383   5.973  0.3420 -0.3941  1.5660
 5272SOL     OW26744   8.289   2.779   4.794  0.1670  0.1077 -0.2214
 5272SOL    HW126745   8.370   2.802   4.740  0.3161 -0.1039 -0.0828
 5272SOL    HW226746   8.308   2.701   4.852 -0.5826 -0.8600 -1.2573
 5273SOL     OW26747   8.983   6.128   1.852 -0.0191  0.1340  0.6882
 5273SOL    HW126748   8.966   6.086   1.763 -0.1433  0.1452  0.7067
 5273SOL    HW226749   9.081   6.139   1.865 -0.0880  2.3632 -0.4769
 5274SOL     OW26750   2.571   2.967   2.450  0.3698  0.2821  0.1332
 5274SOL    HW126751   2.608   3.050   2.493  0.6530  1.2969 -1.9779
 5274SOL    HW226752   2.602   2.886   2.500  0.9056  1.3971  1.6370
 5275SOL     OW26753   0.366   8.559   4.293 -0.4101 -0.1119  0.0294
 5275SOL    HW126754   0.311   8.556   4.376 -2.0110 -1.8651 -1.0465
 5275SOL    HW226755   0.453   8.511   4.308 -1.0808 -1.2219  0.4321
 5276SOL     OW26756   1.879   7.790   1.358  0.7518 -0.2760  0.2760
 5276SOL    HW126757   1.890   7.758   1.452 -0.5352 -1.1819  0.1377
 5276SOL    HW226758   1.787   7.827   1.346  0.6545 -0.8497 -0.8215
 5277SOL     OW26759   0.793   9.645   2.882  0.8685  0.1257 -0.0665
 5277SOL    HW126760   0.726   9.574   2.862  0.4979  0.5101 -0.1957
 5277SOL    HW226761   0.870   9.637   2.819  0.4350  0.3592 -0.6320
 5278SOL     OW26762   2.976   5.574   2.470  0.5283 -0.5997  0.1278
 5278SOL    HW126763   3.073   5.602   2.469  0.0822  0.9610 -1.0670
 5278SOL    HW226764   2.964   5.494   2.412  0.6085  1.0187 -2.2043
 5279SOL     OW26765   8.363   4.481   4.714  0.3169 -0.2885  0.0154
 5279SOL    HW126766   8.273   4.443   4.734  0.4768 -0.5702  0.1987
 5279SOL    HW226767   8.431   4.408   4.712  0.5378 -0.0795 -0.1445
 5280SOL     OW26768   0.823   7.971   2.474  0.5038  0.3789  0.3665
 5280SOL    HW126769   0.846   7.874   2.476 -0.1159  0.2170 -0.0147
 5280SOL    HW226770   0.881   8.020   2.538  1.4616 -0.0990 -0.1172
 5281SOL     OW26771   0.680   1.648   1.849 -0.4533 -0.1530  0.0441
 5281SOL    HW126772   0.593   1.664   1.803 -0.6795 -0.8269  0.2269
 5281SOL    HW226773   0.695   1.550   1.859  0.2682 -0.0376  0.1307
 5282SOL     OW26774   2.725   6.079   0.815 -0.1110 -0.0845 -0.0022
 5282SOL    HW126775   2.644   6.039   0.773 -0.6695  1.1805 -0.1606
 5282SOL    HW226776   2.745   6.032   0.901 -1.3429 -0.0658  0.3048
 5283SOL     OW26777   9.953   3.894   0.823 -0.7853 -0.2030  0.6209
 5283SOL    HW126778   9.997   3.858   0.741  0.4714  0.5891  0.9303
 5283SOL    HW226779  10.004   3.865   0.904 -0.3142  1.4113  0.9290
 5284SOL     OW26780   1.283   7.116   4.266  0.4445  0.4405  0.8721
 5284SOL    HW126781   1.362   7.078   4.313  1.1894  0.8241 -0.0592
 5284SOL    HW226782   1.283   7.088   4.170 -0.0656  1.1572  0.6520
 5285SOL     OW26783   9.280   5.448   3.874  0.4447  0.1333 -0.4182
 5285SOL    HW126784   9.303   5.537   3.914  1.2085  0.1865 -0.9753
 5285SOL    HW226785   9.276   5.456   3.774 -2.4347  0.2462 -0.3548
 5286SOL     OW26786   9.050   4.561   1.455  0.0229  0.8777  0.0651
 5286SOL    HW126787   8.993   4.542   1.535  0.7976  1.4037  0.7450
 5286SOL    HW226788   9.119   4.489   1.445 -2.1893 -1.0452 -2.1149
 5287SOL     OW26789   5.726   0.742   0.976  0.2455 -0.8971  0.0499
 5287SOL    HW126790   5.723   0.642   0.988  2.4182 -1.1877 -1.5127
 5287SOL    HW226791   5.670   0.767   0.897  0.1850 -0.9275  0.0821
 5288SOL     OW26792   9.355   0.287   4.326  0.2177 -0.2594 -0.2201
 5288SOL    HW126793   9.363   0.204   4.270 -1.6685 -0.1776 -0.6444
 5288SOL    HW226794   9.368   0.367   4.268  0.4332 -0.2198 -0.1175
 5289SOL     OW26795   6.143   1.228   0.958  0.4237  0.2558 -0.4170
 5289SOL    HW126796   6.081   1.169   1.010  2.0649 -1.3361 -0.2158
 5289SOL    HW226797   6.099   1.257   0.873 -0.6349 -0.7501 -0.2142
 5290SOL     OW26798   2.140   4.499   2.953 -0.7343 -0.0101 -0.1034
 5290SOL    HW126799   2.226   4.484   3.000 -0.9494 -0.4938  0.1451
 5290SOL    HW226800   2.086   4.568   3.001 -0.0029  1.1217 -0.8990
 5291SOL     OW26801   9.743   8.204   1.830  0.8937  0.3267  0.4702
 5291SOL    HW126802   9.652   8.164   1.841  1.7985 -1.2813  2.2684
 5291SOL    HW226803   9.763   8.216   1.733 -3.1058  5.0988  0.0381
 5292SOL     OW26804   0.376   0.411   2.725 -0.0643 -0.1481  0.4259
 5292SOL    HW126805   0.450   0.388   2.788  0.9524  1.3983 -0.1938
 5292SOL    HW226806   0.293   0.429   2.777  0.2933 -0.7044  1.2073
 5293SOL     OW26807   1.334   6.422   2.483  0.5125  0.1776  0.3442
 5293SOL    HW126808   1.364   6.341   2.432 -1.9279 -0.0759 -0.7541
 5293SOL    HW226809   1.325   6.499   2.420 -2.4119 -0.1051  0.3523
 5294SOL     OW26810   0.517   5.771   2.658 -0.2140  0.1457  0.3570
 5294SOL    HW126811   0.437   5.714   2.679 -0.4829  1.4338  3.0492
 5294SOL    HW226812   0.494   5.835   2.584 -1.2889 -0.3339  0.2647
 5295SOL     OW26813   9.376   6.631   1.306  0.4056 -0.3236  0.3504
 5295SOL    HW126814   9.459   6.642   1.252 -1.1142  2.4740 -1.5227
 5295SOL    HW226815   9.296   6.638   1.247 -1.2501  0.0001  2.5447
 5296SOL     OW26816   5.608   1.022   5.767 -0.3915 -0.2367 -0.2792
 5296SOL    HW126817   5.534   0.965   5.804  1.6738 -1.2190  2.4438
 5296SOL    HW226818   5.650   0.976   5.689 -1.4499 -0.4742 -0.7239
 5297SOL     OW26819   7.551   2.197   2.514 -0.3750 -0.3981 -0.1446
 5297SOL    HW126820   7.506   2.115   2.477 -0.3333 -1.5583  2.2983
 5297SOL    HW226821   7.492   2.276   2.500 -1.2602 -1.1664 -0.8405
 5298SOL     OW26822   9.392   5.294   2.317 -0.2063  0.0663  0.5042
 5298SOL    HW126823   9.447   5.308   2.399  1.2684  1.5241 -0.7009
 5298SOL    HW226824   9.330   5.372   2.306 -0.4193 -0.1406  0.2372
 5299SOL     OW26825   2.708   1.689   1.665  0.4940 -0.8711  0.1114
 5299SOL    HW126826   2.781   1.745   1.624 -1.4673  0.4556 -1.6647
 5299SOL    HW226827   2.716   1.693   1.765  1.2605  1.4195 -0.0117
 5300SOL     OW26828   6.253   9.764   4.814 -0.1005 -0.2458 -0.4641
 5300SOL    HW126829   6.208   9.704   4.880  0.0439  0.8977  0.6988
 5300SOL    HW226830   6.188   9.831   4.780  0.1141 -0.1056 -0.5995
 5301SOL     OW26831   7.466   1.299   5.801 -0.6040 -0.3859 -0.3862
 5301SOL    HW126832   7.521   1.328   5.722  2.2296 -0.5050  1.4587
 5301SOL    HW226833   7.459   1.199   5.802 -0.4017 -0.4013 -0.3594
 5302SOL     OW26834   6.668   8.430   4.656  0.0308  0.2845 -0.4394
 5302SOL    HW126835   6.647   8.401   4.750 -1.4023  1.3860 -0.3912
 5302SOL    HW226836   6.723   8.513   4.658  0.2449  0.1442 -0.5642
 5303SOL     OW26837   4.006   5.646   2.103 -0.9429  0.5159 -0.3308
 5303SOL    HW126838   4.013   5.547   2.114 -1.2917  0.6013  0.7600
 5303SOL    HW226839   3.909   5.672   2.095 -0.9291  0.8997  0.7386
 5304SOL     OW26840   0.161   2.113   3.102  0.0001  0.0953  0.7328
 5304SOL    HW126841   0.108   2.033   3.075 -0.2153 -0.0141  1.4511
 5304SOL    HW226842   0.137   2.190   3.043 -2.0506  0.4373  1.9374
 5305SOL     OW26843   2.921   1.974   3.644 -0.3003 -0.0988  0.7627
 5305SOL    HW126844   2.965   1.959   3.556 -2.1789 -4.3178  0.4058
 5305SOL    HW226845   2.840   2.032   3.631 -0.6557 -0.8284 -0.3153
 5306SOL     OW26846   5.230   1.559   2.930  0.6575 -0.3933  0.2570
 5306SOL    HW126847   5.149   1.502   2.935  1.0284 -1.1015 -1.4300
 5306SOL    HW226848   5.244   1.588   2.835 -0.3016  3.6299  1.2578
 5307SOL     OW26849   0.043   4.587   5.646  0.4438  0.0261 -0.2958
 5307SOL    HW126850   0.130   4.542   5.667  1.0633  0.6848 -1.3815
 5307SOL    HW226851   0.037   4.602   5.547  0.5433  2.8602  0.0786
 5308SOL     OW26852   0.041   8.758   3.088  0.5150 -0.3065 -0.0440
 5308SOL    HW126853   0.087   8.844   3.068 -0.5360  0.2908  0.0940
 5308SOL    HW226854  -0.051   8.759   3.050  0.1265 -0.9582  0.8555
 5309SOL     OW26855   3.032   1.962   3.399 -0.2605  0.4787  0.1246
 5309SOL    HW126856   2.936   1.962   3.371  0.1698  1.1354 -1.4426
 5309SOL    HW226857   3.084   1.900   3.340  0.0861 -0.8174  1.7498
 5310SOL     OW26858   2.527   8.947   3.522  0.3079 -0.3217 -0.0168
 5310SOL    HW126859   2.441   8.934   3.473 -0.5397  2.9626  0.4681
 5310SOL    HW226860   2.597   8.980   3.458  0.1247  0.7309  0.3172
 5311SOL     OW26861   6.975   1.430   1.600  0.2111 -0.1030 -0.6598
 5311SOL    HW126862   6.958   1.454   1.504 -1.0786 -0.8343 -0.6181
 5311SOL    HW226863   6.897   1.458   1.656  0.6727 -0.2761  0.0808
 5312SOL     OW26864   1.455   5.189   4.974  0.2656 -0.0117 -0.0112
 5312SOL    HW126865   1.406   5.263   5.020  1.7096  1.6912 -1.1482
 5312SOL    HW226866   1.515   5.144   5.040  0.3145  0.6604  0.4090
 5313SOL     OW26867   0.435   2.023   2.198  0.0650  0.3844  0.0965
 5313SOL    HW126868   0.461   1.935   2.237  1.1816  1.1464  1.1116
 5313SOL    HW226869   0.339   2.042   2.220 -0.9533 -1.7011 -2.2884
 5314SOL     OW26870   9.281   5.845   1.293  0.6872 -0.8099 -0.7417
 5314SOL    HW126871   9.216   5.779   1.330  0.2627 -0.4286 -0.8096
 5314SOL    HW226872   9.373   5.805   1.292  0.7311 -0.7811  0.8681
 5315SOL     OW26873   2.117   5.117   1.921 -0.1252  0.1728  0.1112
 5315SOL    HW126874   2.126   5.135   2.019 -0.0427 -0.3093  0.1902
 5315SOL    HW226875   2.122   5.019   1.904 -0.1825  0.2517 -0.3729
 5316SOL     OW26876   8.545   6.925   2.760  0.3821  0.1822  0.0449
 5316SOL    HW126877   8.460   6.926   2.707  0.0115  0.3478  0.6318
 5316SOL    HW226878   8.602   7.002   2.732  0.4557 -0.0736 -0.5295
 5317SOL     OW26879   0.983   6.682   1.998  0.3881  0.3494  0.4367
 5317SOL    HW126880   1.011   6.765   2.046  1.1284  0.4204 -0.1101
 5317SOL    HW226881   0.894   6.652   2.032  0.0101  1.4935  0.4844
 5318SOL     OW26882   8.717   4.447   2.603 -0.2040 -0.0398  0.1896
 5318SOL    HW126883   8.723   4.528   2.661 -0.4303  0.9992 -1.1905
 5318SOL    HW226884   8.681   4.474   2.513  0.8079 -1.4814 -0.6673
 5319SOL     OW26885   9.454   4.668   1.440  0.5328 -0.1068  0.1379
 5319SOL    HW126886   9.373   4.726   1.429 -0.2628 -0.8402  1.9856
 5319SOL    HW226887   9.460   4.605   1.362 -0.3415  0.3517 -0.3162
 5320SOL     OW26888   8.493   7.427   4.300  0.3353 -0.2001  1.0403
 5320SOL    HW126889   8.551   7.372   4.240  3.7733  2.6585  1.5870
 5320SOL    HW226890   8.456   7.504   4.249 -0.9818 -0.6308  1.3332
 5321SOL     OW26891   2.943   5.283   0.428  0.0063 -1.0060 -0.2749
 5321SOL    HW126892   2.957   5.190   0.463 -0.3973  0.0624  2.9472
 5321SOL    HW226893   2.849   5.311   0.446  0.5714  0.5891  0.2854
 5322SOL     OW26894   7.860   0.581   6.314  0.2386  0.2238 -0.0429
 5322SOL    HW126895   7.853   0.520   6.235 -0.2643 -0.5939  0.6235
 5322SOL    HW226896   7.923   0.656   6.293  3.8155 -2.5619  0.4716
 5323SOL     OW26897   2.462   8.176   5.725  0.7586  0.3163  0.6686
 5323SOL    HW126898   2.467   8.181   5.825 -1.9139 -0.6379  0.8844
 5323SOL    HW226899   2.390   8.237   5.692  0.3501 -0.7807 -0.5054
 5324SOL     OW26900   5.276   0.669   3.955 -0.5287 -0.1616 -0.1888
 5324SOL    HW126901   5.243   0.595   4.013 -1.9079  0.5206 -0.1017
 5324SOL    HW226902   5.217   0.677   3.875  0.4149 -0.0325 -0.8759
 5325SOL     OW26903   5.483   4.429   6.582 -0.2583  0.5075  0.6126
 5325SOL    HW126904   5.515   4.344   6.623 -1.9189  0.3000  1.5529
 5325SOL    HW226905   5.439   4.410   6.494  1.7924  0.7409 -0.4752
 5326SOL     OW26906   9.351   0.838   0.219 -0.4515 -0.0167  0.0009
 5326SOL    HW126907   9.299   0.815   0.137 -1.6060 -0.6440  0.8907
 5326SOL    HW226908   9.357   0.758   0.278  1.1072  0.1878  0.1572
 5327SOL     OW26909   2.596   6.088   3.668 -0.2310 -0.4889 -0.2333
 5327SOL    HW126910   2.562   6.162   3.726 -0.6814  0.5954 -1.8438
 5327SOL    HW226911   2.682   6.116   3.626 -0.5718 -0.7428 -1.1098
 5328SOL     OW26912   8.689   9.272   1.951 -0.3295 -0.1130  0.0911
 5328SOL    HW126913   8.683   9.372   1.944 -0.1739  0.1077  2.6393
 5328SOL    HW226914   8.648   9.242   2.037  0.4652 -2.1564 -0.2144
 5329SOL     OW26915   0.148   3.374   5.783  0.1957 -0.0196  0.7280
 5329SOL    HW126916   0.242   3.380   5.818  0.5759  1.9498 -0.5654
 5329SOL    HW226917   0.084   3.375   5.860  1.1128  1.5843  1.4924
 5330SOL     OW26918   0.417   4.134   2.736 -0.1367  0.5225  0.0252
 5330SOL    HW126919   0.436   4.218   2.787 -1.1639  1.1035 -0.5233
 5330SOL    HW226920   0.376   4.158   2.647  1.1084 -0.4912 -0.8375
 5331SOL     OW26921   2.106   1.061   2.061 -0.5505  0.5821  0.0537
 5331SOL    HW126922   2.029   1.112   2.023 -0.6322 -0.0538 -0.6444
 5331SOL    HW226923   2.097   1.056   2.161 -1.2651  0.7375 -0.0023
 5332SOL     OW26924   0.536   5.475   0.768  0.0136 -0.3368  0.5475
 5332SOL    HW126925   0.616   5.533   0.781 -0.5650  0.5021  0.3921
 5332SOL    HW226926   0.561   5.379   0.784  1.1189 -0.1137  0.1822
 5333SOL     OW26927   5.383   2.479   2.507  0.3501  0.0371 -0.2650
 5333SOL    HW126928   5.341   2.522   2.427  2.8430  0.0692 -1.6195
 5333SOL    HW226929   5.406   2.383   2.485  0.9245  0.0110  0.4271
 5334SOL     OW26930   4.766   1.322   4.864  0.1633  0.1698  0.3311
 5334SOL    HW126931   4.739   1.385   4.791  0.6661 -0.4839 -0.4192
 5334SOL    HW226932   4.860   1.291   4.850  0.0566 -0.4436  0.9130
 5335SOL     OW26933   9.574   6.912   6.292 -0.6414  0.0012  0.7349
 5335SOL    HW126934   9.620   6.885   6.207 -2.0100  1.3161 -0.4446
 5335SOL    HW226935   9.637   6.899   6.369  0.8581 -0.5647 -0.5526
 5336SOL     OW26936   4.577   0.905   1.955  0.0352  0.6505 -0.1473
 5336SOL    HW126937   4.668   0.866   1.943  0.3505  1.5351 -0.7054
 5336SOL    HW226938   4.572   0.994   1.909 -1.9084 -0.5288 -2.3002
 5337SOL     OW26939   8.216   4.393   3.185  0.1571  0.5567  0.1121
 5337SOL    HW126940   8.185   4.374   3.091  1.1588  0.7640 -0.2597
 5337SOL    HW226941   8.175   4.326   3.247  1.3264 -1.0088 -0.7855
 5338SOL     OW26942   3.905   0.733   3.058  0.0408 -0.1998 -0.3577
 5338SOL    HW126943   3.854   0.808   3.100  0.7896  0.7834 -1.1693
 5338SOL    HW226944   3.873   0.646   3.095 -0.9573  0.5066  0.4744
 5339SOL     OW26945   6.745   0.244   1.571  0.4207  0.1327 -0.1958
 5339SOL    HW126946   6.716   0.324   1.624 -0.2309  0.5104 -1.1156
 5339SOL    HW226947   6.689   0.166   1.596  0.6314  0.1217  0.2413
 5340SOL     OW26948   6.025   7.910   3.561 -0.0143  0.1863  0.2595
 5340SOL    HW126949   6.118   7.921   3.596  0.2368 -0.1247 -0.3028
 5340SOL    HW226950   6.000   7.813   3.564 -0.2482  0.2442  0.2207
 5341SOL     OW26951   5.066   2.309   1.566 -0.5318  0.1543  0.1605
 5341SOL    HW126952   5.165   2.314   1.557 -0.4787  0.9390  1.0730
 5341SOL    HW226953   5.030   2.242   1.501  0.5375  0.2296 -0.5237
 5342SOL     OW26954   3.336   5.498   5.310  0.0319 -0.0296  0.5163
 5342SOL    HW126955   3.272   5.421   5.307 -1.1896  0.9782  0.2251
 5342SOL    HW226956   3.310   5.560   5.384 -0.2297  1.1444 -0.5353
 5343SOL     OW26957   4.402   3.519   2.869  0.5856 -0.2907 -0.0194
 5343SOL    HW126958   4.470   3.539   2.939  1.2836 -1.8870 -0.2219
 5343SOL    HW226959   4.427   3.565   2.784  2.2339 -2.0341 -0.5145
 5344SOL     OW26960   1.799   8.093   5.489 -0.2417 -0.6281 -0.2712
 5344SOL    HW126961   1.801   8.018   5.423 -0.3131  0.6110 -1.7088
 5344SOL    HW226962   1.718   8.149   5.472  1.4141  1.5546 -1.2505
 5345SOL     OW26963   9.841   4.567   0.852  0.1153 -0.5675 -0.0941
 5345SOL    HW126964   9.825   4.546   0.755 -2.4405 -0.6513  0.3044
 5345SOL    HW226965   9.819   4.488   0.908  3.0103 -1.0084  0.4934
 5346SOL     OW26966   5.253   0.716   2.446  0.4356  0.7747 -0.2154
 5346SOL    HW126967   5.162   0.733   2.407  0.7009 -1.5453 -1.9599
 5346SOL    HW226968   5.322   0.754   2.385  0.8190 -2.0981 -1.6575
 5347SOL     OW26969   2.702   0.986   4.625  0.4167 -0.4480 -0.2941
 5347SOL    HW126970   2.611   0.988   4.666  0.1154 -2.9399 -0.7461
 5347SOL    HW226971   2.708   0.911   4.560  2.8520 -0.4406 -0.1589
 5348SOL     OW26972   2.095   6.290   1.532 -0.4117 -0.4716  0.2373
 5348SOL    HW126973   2.067   6.255   1.442  0.4155 -1.8716  0.5073
 5348SOL    HW226974   2.192   6.314   1.529 -0.9094  1.6203  0.1276
 5349SOL     OW26975   3.966   1.129   2.389  0.1410 -0.1451 -0.0723
 5349SOL    HW126976   4.013   1.107   2.304  0.6525  0.1931  0.1173
 5349SOL    HW226977   3.937   1.045   2.435 -1.1415 -0.2908 -1.1348
 5350SOL     OW26978   6.464   9.082   4.648  0.1058  0.0889  0.5837
 5350SOL    HW126979   6.366   9.095   4.665 -0.1326 -0.2389 -0.4445
 5350SOL    HW226980   6.490   9.133   4.566  0.9556  0.7487  1.2600
 5351SOL     OW26981   1.265   6.624   3.258 -0.1760 -0.4876  0.5084
 5351SOL    HW126982   1.233   6.683   3.184  1.1558  0.8021  0.9431
 5351SOL    HW226983   1.222   6.534   3.249 -2.5270  0.6223  0.0434
 5352SOL     OW26984   5.853   0.501   0.648 -0.2375  0.5998 -0.5720
 5352SOL    HW126985   5.909   0.429   0.606  0.3168  1.1184 -0.7295
 5352SOL    HW226986   5.903   0.587   0.645 -0.8984  0.9875 -0.3691
 5353SOL     OW26987   0.887   2.156   2.756  0.1141  0.5209 -0.5233
 5353SOL    HW126988   0.792   2.168   2.786  0.2551  0.6560 -0.1224
 5353SOL    HW226989   0.911   2.059   2.764  0.3299  0.6384  0.3654
 5354SOL     OW26990   2.845   6.498   5.045 -0.0133 -0.0070  0.1914
 5354SOL    HW126991   2.769   6.469   4.985 -0.8392  2.7158 -0.1409
 5354SOL    HW226992   2.931   6.492   4.995 -0.6413  1.7583 -1.1447
 5355SOL     OW26993   3.275   7.953   1.298  0.1491  0.1711  0.1059
 5355SOL    HW126994   3.310   7.924   1.388 -0.9300 -1.0101  0.1558
 5355SOL    HW226995   3.337   7.920   1.227 -0.1434 -0.7603  0.2802
 5356SOL     OW26996   5.116   0.204   4.113 -0.3660  0.2394 -0.3929
 5356SOL    HW126997   5.116   0.237   4.207 -1.8603 -1.4543  0.2490
 5356SOL    HW226998   5.021   0.200   4.080  0.0832 -0.0177 -1.6625
 5357SOL     OW26999   4.637   1.040   1.205 -0.5767 -0.2621 -0.0671
 5357SOL    HW127000   4.604   1.106   1.138  0.3948  0.7091  0.3804
 5357SOL    HW227001   4.697   0.974   1.160  1.7430  1.6218  0.1717
 5358SOL     OW27002   1.023   8.488   0.875 -0.0762  0.0437  0.8330
 5358SOL    HW127003   0.934   8.465   0.836  0.2184  1.0628 -0.5074
 5358SOL    HW227004   1.021   8.475   0.974 -1.4368 -0.7867  0.7114
 5359SOL     OW27005   3.285   8.867   4.663  0.1561 -0.5675 -0.2805
 5359SOL    HW127006   3.362   8.896   4.606 -0.7239 -0.6822 -1.5596
 5359SOL    HW227007   3.260   8.773   4.640  0.4236 -0.9667  1.0152
 5360SOL     OW27008   7.203   4.554   0.901  0.1252 -0.7510 -0.3078
 5360SOL    HW127009   7.193   4.490   0.977  2.8786 -0.2774  0.4988
 5360SOL    HW227010   7.300   4.571   0.884 -0.5083  1.0072 -2.3705
 5361SOL     OW27011   9.548   2.323   5.200 -0.1307  0.7275 -0.0687
 5361SOL    HW127012   9.503   2.249   5.250 -0.4859  1.3945  0.6084
 5361SOL    HW227013   9.554   2.404   5.258 -1.2389  1.7590 -1.3531
 5362SOL     OW27014   5.037   7.750   2.453 -0.3952  0.6189  0.4103
 5362SOL    HW127015   4.985   7.692   2.517  0.2563 -1.2266 -0.6838
 5362SOL    HW227016   5.033   7.845   2.484 -0.2082 -0.1974  3.1147
 5363SOL     OW27017   9.917   2.514   4.378 -0.2671  0.0023  0.0541
 5363SOL    HW127018  10.013   2.538   4.388 -0.2921  0.3604 -0.5041
 5363SOL    HW227019   9.910   2.428   4.328 -0.1831 -1.0380  1.8059
 5364SOL     OW27020   3.115   3.961   1.379  0.1034  0.0696  0.2056
 5364SOL    HW127021   3.201   3.917   1.408  0.6783  1.3026  0.3761
 5364SOL    HW227022   3.089   3.925   1.289  0.9137 -0.1492  0.0504
 5365SOL     OW27023   9.067   6.946   3.115  0.4512 -0.2164 -0.3688
 5365SOL    HW127024   9.036   6.976   3.205 -0.3967 -1.6546 -0.1487
 5365SOL    HW227025   8.990   6.947   3.051  0.6864 -0.6817 -0.6676
 5366SOL     OW27026   2.905   9.865   2.243 -0.6193  0.0217 -0.7368
 5366SOL    HW127027   2.849   9.900   2.168 -1.8585 -1.0674 -0.3318
 5366SOL    HW227028   2.930   9.770   2.225 -1.6177 -0.5093  0.6105
 5367SOL     OW27029   6.536   7.685   5.073  0.0526 -0.5889 -0.3029
 5367SOL    HW127030   6.627   7.668   5.111 -0.8186 -1.0502  1.6555
 5367SOL    HW227031   6.536   7.663   4.976  1.4992 -2.7040  0.1295
 5368SOL     OW27032   1.464   3.261   4.047  0.3728  0.6527  0.1107
 5368SOL    HW127033   1.406   3.325   4.096  1.0231  2.4408 -1.3980
 5368SOL    HW227034   1.416   3.228   3.966  0.8839  0.9559 -0.3165
 5369SOL     OW27035   8.525   9.590   2.187  0.0976  0.1078 -0.8249
 5369SOL    HW127036   8.471   9.528   2.244  0.7747  1.2854  1.1055
 5369SOL    HW227037   8.619   9.594   2.220  0.6151  0.4861 -2.2874
 5370SOL     OW27038   8.486   4.471   3.992  0.6617 -0.6005 -0.4365
 5370SOL    HW127039   8.394   4.450   3.958 -0.7492  1.9424  1.5966
 5370SOL    HW227040   8.501   4.424   4.079  0.6877  0.2047 -0.0043
 5371SOL     OW27041   0.320   8.268   2.459  0.2605 -0.1015  0.0722
 5371SOL    HW127042   0.413   8.303   2.447 -0.2309  1.7835  1.4624
 5371SOL    HW227043   0.309   8.233   2.552 -0.8123  1.0297  0.3964
 5372SOL     OW27044   9.155   7.208   5.246 -0.2208  0.6198 -0.5136
 5372SOL    HW127045   9.136   7.293   5.295  1.4356  1.0942 -0.6510
 5372SOL    HW227046   9.105   7.132   5.289  1.5072  0.9542  2.2088
 5373SOL     OW27047   0.839   5.640   5.171  0.4361 -0.2585 -0.2983
 5373SOL    HW127048   0.839   5.709   5.243  0.3486 -1.3255  0.7511
 5373SOL    HW227049   0.840   5.549   5.213  1.9458 -0.8930 -1.6506
 5374SOL     OW27050   4.783   9.763   1.567 -0.6447 -0.3341  0.2803
 5374SOL    HW127051   4.715   9.780   1.495  1.3626 -1.1376 -1.8784
 5374SOL    HW227052   4.822   9.850   1.596 -0.3014 -0.1039 -0.8205
 5375SOL     OW27053   1.291   7.439   0.541 -0.1358  0.1641  0.6027
 5375SOL    HW127054   1.207   7.485   0.571  0.1888  0.5368  0.9572
 5375SOL    HW227055   1.304   7.357   0.596  0.7248  1.1184  1.8511
 5376SOL     OW27056   8.072   7.310   1.536  0.3324  0.1607 -0.6107
 5376SOL    HW127057   8.163   7.294   1.573  0.1453 -0.1176 -0.2728
 5376SOL    HW227058   8.056   7.249   1.458  0.4807  0.2933 -0.7438
 5377SOL     OW27059   3.387   6.903   2.847  0.0589  0.4662 -0.1336
 5377SOL    HW127060   3.306   6.849   2.822 -0.0301  0.8293 -0.6379
 5377SOL    HW227061   3.372   6.945   2.937  0.4618 -1.0016  0.6306
 5378SOL     OW27062   1.688   8.194   1.316 -0.7645  0.5496 -0.1173
 5378SOL    HW127063   1.619   8.264   1.299 -1.2679  0.5583  1.8407
 5378SOL    HW227064   1.778   8.237   1.326 -0.6886  0.6722 -1.2251
 5379SOL     OW27065   0.316   5.175   3.378 -0.2624 -0.4211 -0.2214
 5379SOL    HW127066   0.250   5.182   3.304 -0.7433  0.2536  0.2590
 5379SOL    HW227067   0.269   5.187   3.466  0.4540 -0.2067  0.1391
 5380SOL     OW27068   3.672   6.774   0.480 -0.5574 -0.5149  0.2898
 5380SOL    HW127069   3.740   6.816   0.540  0.3051 -1.1387 -0.2277
 5380SOL    HW227070   3.614   6.845   0.440 -0.5732 -0.0255  1.1706
 5381SOL     OW27071   3.931   8.639   2.218 -0.1099  0.2390  0.3216
 5381SOL    HW127072   3.853   8.654   2.157  0.5667  0.5026 -0.4960
 5381SOL    HW227073   3.981   8.726   2.230 -1.2018  0.5853  2.6195
 5382SOL     OW27074   0.305   9.531   4.578 -0.4831  0.6038  0.3920
 5382SOL    HW127075   0.227   9.473   4.555  0.5252 -0.1006 -1.3353
 5382SOL    HW227076   0.314   9.603   4.509 -0.8010  1.9197  1.6897
 5383SOL     OW27077   7.392   7.882   5.479 -0.5270 -0.1239 -0.1825
 5383SOL    HW127078   7.460   7.944   5.439 -0.0660 -0.8179 -0.4858
 5383SOL    HW227079   7.393   7.890   5.579 -0.0829 -0.0432 -0.1945
 5384SOL     OW27080   5.702   9.017   3.025 -0.5391 -0.8758 -0.4210
 5384SOL    HW127081   5.745   8.927   3.024 -0.4374 -0.8252 -0.7386
 5384SOL    HW227082   5.657   9.033   2.937 -2.0032 -1.3077  0.2311
 5385SOL     OW27083   4.695   5.243   2.185  0.4184  0.0121 -0.5201
 5385SOL    HW127084   4.784   5.252   2.141  1.0113  0.8525  0.8431
 5385SOL    HW227085   4.692   5.299   2.267 -2.2842  2.0967 -1.9483
 5386SOL     OW27086   0.701   7.357   5.606 -0.3425 -0.4697 -0.2558
 5386SOL    HW127087   0.719   7.314   5.694 -3.9493  0.0843  0.8489
 5386SOL    HW227088   0.675   7.453   5.620  1.1498  0.2505 -2.1329
 5387SOL     OW27089   7.661   6.008   4.905  0.0493 -0.1653 -0.5770
 5387SOL    HW127090   7.581   6.054   4.867  0.2142  2.1679  1.7705
 5387SOL    HW227091   7.631   5.936   4.968 -0.1978  0.3914 -0.0566
 5388SOL     OW27092   1.418   5.032   1.774 -0.4418 -0.2652  0.6309
 5388SOL    HW127093   1.360   4.996   1.700 -0.0275  0.3710 -0.0009
 5388SOL    HW227094   1.366   5.032   1.860 -0.8310 -1.2694  0.4033
 5389SOL     OW27095   9.165   9.659   1.248 -0.3033  0.0922 -0.0300
 5389SOL    HW127096   9.065   9.653   1.247 -0.2665 -0.5821  0.1077
 5389SOL    HW227097   9.203   9.589   1.187  0.1201 -0.3943  0.7960
 5390SOL     OW27098   4.739   4.696   3.424 -0.1920  0.1065  0.1839
 5390SOL    HW127099   4.765   4.776   3.370  0.4393  0.1415  0.5290
 5390SOL    HW227100   4.707   4.623   3.364 -0.4743  0.5118 -0.1560
 5391SOL     OW27101   4.571   4.710   2.827 -0.4124 -0.7045 -0.2138
 5391SOL    HW127102   4.574   4.758   2.740 -1.1374 -0.1681  0.0527
 5391SOL    HW227103   4.484   4.726   2.872  0.0568 -0.7509  0.7450
 5392SOL     OW27104   0.433   7.931   1.651  0.0158 -0.3508 -0.5988
 5392SOL    HW127105   0.399   7.963   1.563 -2.9694 -1.1741  0.2085
 5392SOL    HW227106   0.398   7.989   1.724 -0.8253 -2.0274  0.3756
 5393SOL     OW27107   0.959   4.534   5.496 -0.0447 -0.2434 -0.7336
 5393SOL    HW127108   0.886   4.549   5.430  0.8423 -0.8396 -1.8686
 5393SOL    HW227109   0.973   4.616   5.551 -1.4560 -0.0825 -0.6111
 5394SOL     OW27110   9.203   5.796   0.381 -0.0358  0.1946 -0.4254
 5394SOL    HW127111   9.126   5.738   0.354  1.7127 -1.4532 -2.0265
 5394SOL    HW227112   9.262   5.746   0.444  1.3854  0.2536 -1.6799
 5395SOL     OW27113   1.862   3.026   0.472 -0.0297  0.0610  0.3481
 5395SOL    HW127114   1.920   3.104   0.494 -1.5977  1.2943  0.1424
 5395SOL    HW227115   1.811   2.998   0.553 -1.3426  0.8435 -0.1969
 5396SOL     OW27116   5.524   4.330   0.629 -0.3983 -0.1327  0.2593
 5396SOL    HW127117   5.465   4.317   0.550 -1.7607 -2.8692  1.6723
 5396SOL    HW227118   5.483   4.398   0.690 -0.0271  0.9527 -0.6686
 5397SOL     OW27119   0.235   5.010   2.810  0.3919 -0.1859 -0.5994
 5397SOL    HW127120   0.198   4.951   2.881 -1.5229 -0.7719 -2.0646
 5397SOL    HW227121   0.245   5.103   2.845  1.5058 -0.9307  1.0840
 5398SOL     OW27122   2.755   8.504   4.182  0.2536 -0.2410 -0.6069
 5398SOL    HW127123   2.800   8.587   4.215  0.4481 -0.2594 -0.8268
 5398SOL    HW227124   2.703   8.526   4.099 -0.8670 -0.0220  0.1391
 5399SOL     OW27125   1.077   5.736   3.133  0.4023  0.0058 -0.1567
 5399SOL    HW127126   1.014   5.718   3.208  0.0688 -0.7954 -0.6228
 5399SOL    HW227127   1.112   5.829   3.140 -2.6221  1.2984 -1.1716
 5400SOL     OW27128   8.633   2.033   3.502  0.4624  0.2570  0.0031
 5400SOL    HW127129   8.566   1.966   3.534  0.3978  0.7220  0.8619
 5400SOL    HW227130   8.697   2.054   3.576  0.7366  0.8245 -0.3924
 5401SOL     OW27131   4.198   6.458   2.991 -0.0457  0.4414  0.1865
 5401SOL    HW127132   4.151   6.387   2.937 -0.6565 -0.2952  1.6687
 5401SOL    HW227133   4.158   6.547   2.970 -0.7880  0.0671 -0.0315
 5402SOL     OW27134   4.686   5.996   2.967 -0.0710 -0.1161 -0.1404
 5402SOL    HW127135   4.746   5.927   3.007 -0.1774 -0.2934 -0.2867
 5402SOL    HW227136   4.603   5.952   2.932  0.3270 -0.0583 -1.1810
 5403SOL     OW27137   2.805   1.204   3.400 -0.3526 -0.2634  0.0200
 5403SOL    HW127138   2.847   1.123   3.441  1.8314 -0.3016 -2.1723
 5403SOL    HW227139   2.876   1.269   3.373 -2.0299  1.9583  0.8418
 5404SOL     OW27140   2.723   7.014   5.509 -0.2580 -0.7257 -0.6571
 5404SOL    HW127141   2.728   7.023   5.410  0.1896 -1.3025 -0.6897
 5404SOL    HW227142   2.774   6.933   5.538  2.0466  1.0531  0.3364
 5405SOL     OW27143   6.803   0.040   2.843  0.7854  0.3051 -0.2420
 5405SOL    HW127144   6.751   0.008   2.764  0.5540  0.9190 -0.3463
 5405SOL    HW227145   6.874  -0.026   2.866  0.1504 -0.3944 -0.2862
 5406SOL     OW27146   2.066   2.217   4.102 -0.0548  1.0370  0.1198
 5406SOL    HW127147   2.110   2.307   4.112  0.5027  0.8051 -0.2562
 5406SOL    HW227148   2.079   2.184   4.009  0.1020  0.3738  0.3737
 5407SOL     OW27149   2.992   8.264   4.454 -0.0916  0.6168 -0.0414
 5407SOL    HW127150   3.024   8.169   4.449 -0.3313  0.6493 -3.2004
 5407SOL    HW227151   3.049   8.322   4.396 -1.4973  1.9355 -0.1373
 5408SOL     OW27152   8.972   7.448   5.601  0.4005  0.2394  0.6891
 5408SOL    HW127153   9.052   7.438   5.659 -0.5104 -0.4716  1.8486
 5408SOL    HW227154   8.935   7.358   5.578  0.0095  0.5527  0.0450
 5409SOL     OW27155   4.295   2.235   1.559 -0.0904  0.0023 -0.5678
 5409SOL    HW127156   4.333   2.328   1.561 -1.0326  0.4166 -1.4723
 5409SOL    HW227157   4.228   2.228   1.485 -1.2243 -0.9323  0.5271
 5410SOL     OW27158   7.717   1.746   0.020 -0.3678  0.2411  0.5916
 5410SOL    HW127159   7.739   1.797   0.103  0.3351 -0.5247  0.8814
 5410SOL    HW227160   7.769   1.661   0.018  0.1163  0.5582 -0.9629
 5411SOL     OW27161   1.157   3.970   6.455 -0.2504  0.2575 -0.3315
 5411SOL    HW127162   1.190   3.928   6.540  0.6529  1.0401 -0.2890
 5411SOL    HW227163   1.198   4.061   6.445 -1.5112  0.7793 -0.8570
 5412SOL     OW27164   9.170   5.243   4.031  0.2043  0.1327 -0.2771
 5412SOL    HW127165   9.252   5.189   4.051 -0.5383 -1.7500 -2.1790
 5412SOL    HW227166   9.195   5.323   3.977  0.5782 -1.5356 -2.6557
 5413SOL     OW27167   1.259   4.992   2.011 -0.2628  0.4843  0.0660
 5413SOL    HW127168   1.230   4.900   2.038  0.0395  0.0600 -1.0080
 5413SOL    HW227169   1.221   5.059   2.075 -0.3147 -0.3984  0.9781
 5414SOL     OW27170   7.773   0.338   3.253 -0.3249  0.5850  0.2193
 5414SOL    HW127171   7.840   0.271   3.221 -0.0354  0.5929  0.8079
 5414SOL    HW227172   7.814   0.429   3.252 -0.0656  0.4884  1.3291
 5415SOL     OW27173   7.264   2.216   2.864 -0.3564  0.0605 -0.3918
 5415SOL    HW127174   7.363   2.226   2.879 -0.2166  1.5884 -2.1412
 5415SOL    HW227175   7.220   2.304   2.876 -1.3846 -0.4232 -0.5961
 5416SOL     OW27176   9.280   4.376   4.918  0.1001 -0.4231 -0.4750
 5416SOL    HW127177   9.265   4.471   4.945  0.4020 -0.7676  0.9158
 5416SOL    HW227178   9.236   4.359   4.829  0.3692  1.1096 -0.9106
 5417SOL     OW27179   7.962   7.038   3.447 -0.3704 -0.5082 -0.4855
 5417SOL    HW127180   8.048   7.030   3.398  1.0784 -0.8412  2.0620
 5417SOL    HW227181   7.939   6.951   3.490 -0.3509  0.4192  1.4544
 5418SOL     OW27182   7.504   9.088   4.226  0.4112 -0.3378 -0.1107
 5418SOL    HW127183   7.491   9.126   4.135  1.0083  1.4987  0.5575
 5418SOL    HW227184   7.463   9.147   4.294 -1.2304 -2.3972  0.7392
 5419SOL     OW27185   9.537   2.313   2.975  0.0950  0.5570 -0.4292
 5419SOL    HW127186   9.634   2.291   2.959 -0.3610 -1.3623 -0.7081
 5419SOL    HW227187   9.506   2.380   2.908  0.1651 -1.8864 -3.0158
 5420SOL     OW27188   9.488   4.195   4.659 -0.6992 -0.6387  0.0741
 5420SOL    HW127189   9.510   4.292   4.652 -0.4804 -0.5569  1.6037
 5420SOL    HW227190   9.552   4.141   4.606 -1.2255  0.0999 -1.3204
 5421SOL     OW27191   5.259   8.243   4.833  0.3508  0.4077  0.1559
 5421SOL    HW127192   5.329   8.284   4.775  0.9537 -0.9618 -0.1013
 5421SOL    HW227193   5.293   8.235   4.926  0.1511  0.7103  0.2535
 5422SOL     OW27194   8.309   3.556   4.949 -0.0498  0.6339 -0.5478
 5422SOL    HW127195   8.372   3.626   4.982 -0.0190  0.4255 -0.1619
 5422SOL    HW227196   8.223   3.598   4.923  0.5926  1.0583 -2.0240
 5423SOL     OW27197   4.497   7.788   3.755 -0.3063  0.2941  0.0016
 5423SOL    HW127198   4.468   7.829   3.842 -1.2636 -0.6778  0.1437
 5423SOL    HW227199   4.522   7.861   3.691  0.2943  1.0240  1.0410
 5424SOL     OW27200   9.616   5.743   6.359 -0.1475 -0.1188  0.1754
 5424SOL    HW127201   9.606   5.823   6.418  1.6744  1.1028 -1.0835
 5424SOL    HW227202   9.684   5.763   6.288 -2.5339 -1.3668 -2.5835
 5425SOL     OW27203   6.278   1.110   3.799  0.7381 -0.0822  0.1679
 5425SOL    HW127204   6.319   1.035   3.746  0.6922 -0.1568  0.2377
 5425SOL    HW227205   6.322   1.115   3.889 -0.6128 -1.3052  0.9113
 5426SOL     OW27206   6.778   8.651   2.787  0.0651 -0.4088  0.1830
 5426SOL    HW127207   6.703   8.588   2.806 -0.8975  0.9733  1.0283
 5426SOL    HW227208   6.836   8.660   2.868  1.4769 -1.8714 -0.6271
 5427SOL     OW27209   4.279   3.521   0.529  0.1271 -0.0829  0.3740
 5427SOL    HW127210   4.332   3.533   0.445  1.1241 -3.1890  0.5166
 5427SOL    HW227211   4.183   3.543   0.511  0.2388 -1.1633 -1.7381
 5428SOL     OW27212   5.865   9.997   2.332  0.0771  0.2737  0.3842
 5428SOL    HW127213   5.844   9.903   2.305 -1.1137  0.3018  1.1448
 5428SOL    HW227214   5.962  10.015   2.320  0.2650 -0.9758 -0.0137
 5429SOL     OW27215   4.969   3.755   3.863  0.3921  0.4375 -0.1830
 5429SOL    HW127216   4.986   3.658   3.885 -0.6981  0.2637 -0.1119
 5429SOL    HW227217   4.873   3.777   3.879  0.8247  1.7697  0.6283
 5430SOL     OW27218   0.761   4.878   4.077  0.5030 -0.3669  0.0929
 5430SOL    HW127219   0.735   4.799   4.133 -3.2239 -0.3578 -1.4758
 5430SOL    HW227220   0.730   4.962   4.122 -0.7328 -0.2317 -0.9645
 5431SOL     OW27221   8.815   6.982   6.641 -0.4803  0.1370 -0.3953
 5431SOL    HW127222   8.850   7.020   6.555  0.2587  0.3944  0.0131
 5431SOL    HW227223   8.865   6.899   6.663  0.8683  1.2737  0.9191
 5432SOL     OW27224   8.676   6.629   5.480  0.2471 -0.2937 -0.3099
 5432SOL    HW127225   8.595   6.679   5.449  0.9266 -0.5065 -2.4646
 5432SOL    HW227226   8.653   6.579   5.564 -1.1834  1.4799  0.4056
 5433SOL     OW27227   9.637   8.260   2.931 -0.2131 -0.1854 -0.1638
 5433SOL    HW127228   9.542   8.286   2.947 -0.0168  1.4333 -1.4026
 5433SOL    HW227229   9.641   8.186   2.864 -0.6287 -0.7932  0.4810
 5434SOL     OW27230   6.640   8.250   3.021  0.1234  0.6329 -0.3333
 5434SOL    HW127231   6.716   8.273   2.961 -0.3459  1.1844 -0.7253
 5434SOL    HW227232   6.639   8.312   3.100  0.2991  0.3925 -0.1430
 5435SOL     OW27233   0.452   5.483   1.046  0.1591 -0.1723  0.0646
 5435SOL    HW127234   0.476   5.414   1.114 -0.3611  0.0498  0.4702
 5435SOL    HW227235   0.468   5.445   0.954 -0.9205 -1.1339  0.2603
 5436SOL     OW27236   5.541   7.103   1.804 -0.1752  1.0129  0.0526
 5436SOL    HW127237   5.464   7.166   1.793  0.9945  2.1925 -1.7311
 5436SOL    HW227238   5.535   7.031   1.734 -0.4124  0.3039  0.7985
 5437SOL     OW27239   3.351   3.856   3.436  0.2711  0.3974  0.7517
 5437SOL    HW127240   3.311   3.780   3.385 -0.0999 -0.0638  1.7182
 5437SOL    HW227241   3.424   3.898   3.382 -0.4976  0.2931 -0.4085
 5438SOL     OW27242   4.901   1.645   2.681  0.3239  0.2688  0.2738
 5438SOL    HW127243   4.825   1.682   2.628  1.0570  2.6150  0.8163
 5438SOL    HW227244   4.922   1.553   2.649 -2.2762 -0.1540 -0.3526
 5439SOL     OW27245   9.441   7.267   1.998 -0.4288  0.2513 -0.2203
 5439SOL    HW127246   9.361   7.310   2.039 -0.2992 -0.8163  1.2065
 5439SOL    HW227247   9.412   7.189   1.942 -0.3915 -0.2918  0.5011
 5440SOL     OW27248   8.677   3.754   5.428  0.1835  0.1116 -0.0191
 5440SOL    HW127249   8.712   3.701   5.504  0.2528  0.3230  0.0967
 5440SOL    HW227250   8.625   3.695   5.367  0.5793 -0.1647 -0.0898
 5441SOL     OW27251   3.943   5.697   4.244  0.3123 -0.5161 -0.4540
 5441SOL    HW127252   3.977   5.788   4.267 -0.7115 -0.0436 -0.7803
 5441SOL    HW227253   4.016   5.644   4.200  0.8591  0.2022 -0.4238
 5442SOL     OW27254   2.203   7.772   0.806 -0.6593  0.4684  0.6474
 5442SOL    HW127255   2.197   7.829   0.888  1.3231  0.7224  0.6439
 5442SOL    HW227256   2.180   7.678   0.829 -0.2190  0.5583  1.4722
 5443SOL     OW27257   1.653   2.649   1.169  0.3154  0.8045 -0.0457
 5443SOL    HW127258   1.720   2.664   1.096 -0.1094  0.2254 -0.5601
 5443SOL    HW227259   1.698   2.652   1.258  0.8866  1.2262 -0.3480
 5444SOL     OW27260   0.192   4.588   0.698  0.6290 -0.3366 -0.4954
 5444SOL    HW127261   0.160   4.506   0.745 -1.7704  0.9636  0.2193
 5444SOL    HW227262   0.282   4.613   0.733  2.1830 -3.5977 -1.9500
 5445SOL     OW27263   5.937   0.938   5.074  0.2021 -0.1414 -0.5955
 5445SOL    HW127264   6.028   0.940   5.117  0.8927 -2.8167 -1.8418
 5445SOL    HW227265   5.867   0.928   5.145  1.1037 -1.1666  0.1659
 5446SOL     OW27266   7.868   1.817   0.278 -0.1804 -0.3178 -0.7448
 5446SOL    HW127267   7.870   1.728   0.322  1.0912 -0.0380 -0.2395
 5446SOL    HW227268   7.828   1.884   0.340  2.8381  0.3596  0.5398
 5447SOL     OW27269   8.604   9.054   0.519  0.1687  0.2472  0.0477
 5447SOL    HW127270   8.564   9.080   0.431 -1.3448 -1.2572  0.2486
 5447SOL    HW227271   8.531   9.024   0.581  1.5176 -1.7108  0.7473
 5448SOL     OW27272   9.765   4.796   1.379 -0.1067  0.1861  0.4991
 5448SOL    HW127273   9.715   4.718   1.342  1.7016 -0.5207 -0.5412
 5448SOL    HW227274   9.735   4.880   1.335 -0.6848 -0.1694  0.2140
 5449SOL     OW27275   8.608   0.027   2.512  0.1755 -0.2218  0.1326
 5449SOL    HW127276   8.667  -0.035   2.461  0.1057  0.3856 -0.6918
 5449SOL    HW227277   8.516  -0.010   2.517 -0.1666  0.3902 -1.4176
 5450SOL     OW27278   0.336   6.594   5.716  0.6936  0.3970 -0.5781
 5450SOL    HW127279   0.322   6.688   5.747 -1.0880  0.2128 -0.7934
 5450SOL    HW227280   0.304   6.585   5.621  0.8489 -0.4276 -0.5538
 5451SOL     OW27281   9.827   8.985   2.844  0.0998 -0.2119 -0.5539
 5451SOL    HW127282   9.899   9.049   2.871  1.8217 -2.1699 -0.3298
 5451SOL    HW227283   9.738   9.027   2.860  1.1649  2.0557 -0.2725
 5452SOL     OW27284   3.698   5.166   5.874 -0.0770  0.2909 -0.0017
 5452SOL    HW127285   3.630   5.143   5.804 -0.4117  0.0325  0.4018
 5452SOL    HW227286   3.768   5.095   5.876 -0.9612 -0.5872  1.0531
 5453SOL     OW27287   3.384   4.147   1.401  0.1746  0.4197 -0.0554
 5453SOL    HW127288   3.374   4.066   1.458 -1.0361 -0.0969 -0.9764
 5453SOL    HW227289   3.478   4.154   1.369 -0.0310 -1.4313 -1.1307
 5454SOL     OW27290   9.307   9.171   1.065  0.0740  0.5999  0.9729
 5454SOL    HW127291   9.208   9.164   1.049 -0.0026  0.5477  1.4652
 5454SOL    HW227292   9.352   9.205   0.982 -0.3207  0.3548  0.6556
 5455SOL     OW27293   6.056   0.778   1.918  0.0959 -0.0391 -0.5784
 5455SOL    HW127294   6.004   0.739   1.994 -0.5660  1.0346 -0.4756
 5455SOL    HW227295   6.020   0.868   1.895  1.1815  0.2383 -1.2544
 5456SOL     OW27296   9.208   9.819   3.962 -0.2055 -0.0312 -0.0516
 5456SOL    HW127297   9.145   9.773   4.024  0.9107  0.8795  1.7865
 5456SOL    HW227298   9.188   9.917   3.961  1.4113  0.3232  0.8432
 5457SOL     OW27299   2.757   3.464   3.940 -0.1152  0.5468  0.9625
 5457SOL    HW127300   2.841   3.446   3.888 -0.0571  2.8242  0.2255
 5457SOL    HW227301   2.728   3.380   3.985 -0.4206 -1.6864 -3.1050
 5458SOL     OW27302   1.571   6.874   6.076  0.3525  0.4947 -0.3356
 5458SOL    HW127303   1.646   6.812   6.101  1.0191  0.1156 -3.1680
 5458SOL    HW227304   1.594   6.967   6.102 -0.4634 -0.2996  3.5650
 5459SOL     OW27305   4.808   5.506   0.904  0.1738  0.2322 -0.0585
 5459SOL    HW127306   4.773   5.563   0.830 -0.3537  0.2773  0.2220
 5459SOL    HW227307   4.731   5.468   0.956  0.5397  0.1103  0.3948
 5460SOL     OW27308   2.362   3.189   1.676  0.0403 -0.5228  0.4496
 5460SOL    HW127309   2.278   3.158   1.720  0.7400 -0.4078  1.9029
 5460SOL    HW227310   2.430   3.116   1.678 -0.0432 -0.6437 -0.7958
 5461SOL     OW27311   0.496   1.239   1.293  0.8153 -0.3307  0.3022
 5461SOL    HW127312   0.454   1.290   1.218  1.2952 -0.3065  0.0501
 5461SOL    HW227313   0.452   1.149   1.301  1.8911 -1.0086 -1.0985
 5462SOL     OW27314   1.855   3.816   4.593  0.3094  0.8761 -0.4235
 5462SOL    HW127315   1.915   3.811   4.513  1.1281  1.0570  0.1729
 5462SOL    HW227316   1.787   3.887   4.578  0.0203  0.4326 -1.2529
 5463SOL     OW27317   0.146   9.658   4.793 -0.1517 -0.7264 -0.3731
 5463SOL    HW127318   0.048   9.656   4.777 -0.1323 -1.1191 -0.4395
 5463SOL    HW227319   0.195   9.639   4.708 -0.0238 -0.8650 -0.2696
 5464SOL     OW27320   1.652   2.772   2.626 -0.4723  0.4670 -0.4026
 5464SOL    HW127321   1.571   2.809   2.671  0.0200  0.5895  0.3843
 5464SOL    HW227322   1.624   2.725   2.542 -1.5579 -0.9635  0.7294
 5465SOL     OW27323   8.395   0.025   0.350  0.3232 -0.1654 -0.2575
 5465SOL    HW127324   8.437  -0.064   0.331  1.4288  0.5697 -1.3324
 5465SOL    HW227325   8.297   0.020   0.335  0.4933 -0.9841 -1.1468
 5466SOL     OW27326   3.709   4.604   3.355 -0.2869  0.3185  0.0547
 5466SOL    HW127327   3.751   4.664   3.287  1.8691 -2.9054 -1.6163
 5466SOL    HW227328   3.777   4.580   3.424  0.2687 -3.5503 -1.6937
 5467SOL     OW27329   0.869   8.438   1.802 -0.3765 -0.0874  0.0440
 5467SOL    HW127330   0.953   8.492   1.790 -0.6855  0.2023 -0.8423
 5467SOL    HW227331   0.892   8.350   1.842  0.2286  0.3995  0.7826
 5468SOL     OW27332   5.001   4.209   0.903  0.2635  0.1218 -0.4292
 5468SOL    HW127333   5.093   4.183   0.873 -0.6445 -2.8879 -0.7680
 5468SOL    HW227334   4.956   4.261   0.831  1.0785  0.1125 -0.9619
 5469SOL     OW27335   8.329   1.990   0.622  0.0456  0.1822  0.1412
 5469SOL    HW127336   8.271   1.994   0.541 -1.0966  0.2115  0.9448
 5469SOL    HW227337   8.271   1.987   0.704  1.1789  2.1283  1.0469
 5470SOL     OW27338   0.391   3.720   5.981 -0.3223  0.5707  0.0085
 5470SOL    HW127339   0.367   3.750   5.889  0.2038  1.8483  0.2706
 5470SOL    HW227340   0.308   3.712   6.036 -0.6911 -0.7299 -0.7235
 5471SOL     OW27341   8.352   5.570   0.081 -0.2864 -0.2768 -0.4750
 5471SOL    HW127342   8.379   5.547   0.175 -0.7344 -1.3014 -0.5846
 5471SOL    HW227343   8.257   5.542   0.067  0.2456 -1.5496 -1.6956
 5472SOL     OW27344   7.953   9.563   1.529  0.3148 -0.2010 -0.3275
 5472SOL    HW127345   7.942   9.488   1.464  1.5091 -1.8867  1.3597
 5472SOL    HW227346   8.050   9.580   1.545  0.0795  2.5023 -1.5525
 5473SOL     OW27347   0.523   7.319   1.245  0.9563 -0.1080 -0.2165
 5473SOL    HW127348   0.441   7.377   1.246  1.5715  0.7546  0.1299
 5473SOL    HW227349   0.497   7.227   1.215 -0.2139  0.0439  0.2861
 5474SOL     OW27350   8.540   1.071   3.558 -0.2466 -0.0967  0.1987
 5474SOL    HW127351   8.550   0.997   3.492 -2.6160 -0.9341  0.7164
 5474SOL    HW227352   8.478   1.042   3.631  0.0161  1.8497  1.2241
 5475SOL     OW27353   8.884   3.213   4.597 -0.3702 -0.2997 -0.1386
 5475SOL    HW127354   8.956   3.144   4.609  1.3699  1.6348  0.8179
 5475SOL    HW227355   8.920   3.289   4.543 -1.6503  0.7634  0.4955
 5476SOL     OW27356   2.418   2.359   1.089  0.2472 -0.5442 -0.2587
 5476SOL    HW127357   2.432   2.353   0.990  2.1459  1.0562 -0.1208
 5476SOL    HW227358   2.452   2.447   1.122 -1.4994 -0.5608  1.6531
 5477SOL     OW27359   0.977   4.544   1.054  0.0495  0.4180  0.4422
 5477SOL    HW127360   0.924   4.562   0.971 -0.5626  0.0068  0.7417
 5477SOL    HW227361   1.008   4.631   1.092 -1.1620  0.7312  0.7449
 5478SOL     OW27362   7.618   3.942   1.783  0.1370  0.2582 -0.0221
 5478SOL    HW127363   7.706   3.979   1.753 -0.2286  1.5809  0.5121
 5478SOL    HW227364   7.550   4.015   1.784 -0.8955 -0.6915 -0.1205
 5479SOL     OW27365   1.178   5.924   6.719  0.1233 -0.4506  0.2714
 5479SOL    HW127366   1.135   5.894   6.633 -0.8295  0.3986  0.4380
 5479SOL    HW227367   1.239   5.853   6.752  0.9495 -0.5624 -1.4135
 5480SOL     OW27368   1.525   4.706   3.414 -0.9132 -0.2065  0.2583
 5480SOL    HW127369   1.480   4.621   3.386 -0.3814  0.5307 -3.0287
 5480SOL    HW227370   1.463   4.783   3.400 -0.9236  0.1208  1.9808
 5481SOL     OW27371   8.546   0.314   1.335  0.5500 -0.0069  0.2707
 5481SOL    HW127372   8.585   0.407   1.334  1.4505 -0.3813  0.0007
 5481SOL    HW227373   8.456   0.316   1.291 -0.1208  1.0253  1.6458
 5482SOL     OW27374   9.602   3.543   4.881 -0.2754 -0.3437 -0.1549
 5482SOL    HW127375   9.673   3.502   4.939  0.2698  1.1705  0.2677
 5482SOL    HW227376   9.640   3.560   4.790 -0.3520 -0.2757 -0.1736
 5483SOL     OW27377   3.598   4.218   1.805 -0.0128 -0.1802  0.4574
 5483SOL    HW127378   3.523   4.256   1.752 -0.2308  0.4595  1.2282
 5483SOL    HW227379   3.676   4.281   1.804  0.7112 -1.0555 -0.7507
 5484SOL     OW27380   9.786   3.120   4.839 -0.2966  0.5528 -0.0315
 5484SOL    HW127381   9.788   3.045   4.773  0.1265  0.9212 -0.4358
 5484SOL    HW227382   9.747   3.087   4.925 -1.2589  0.1878 -0.6040
 5485SOL     OW27383   0.688   2.055   3.239 -0.2829 -0.2292 -0.0203
 5485SOL    HW127384   0.740   1.991   3.295 -0.5093 -0.6286 -0.2592
 5485SOL    HW227385   0.592   2.025   3.234 -0.2889 -0.1371 -0.5215
 5486SOL     OW27386   4.945   2.577   1.949 -0.3714 -0.1100 -0.2706
 5486SOL    HW127387   5.003   2.498   1.967 -1.0311 -0.5247  0.0570
 5486SOL    HW227388   4.938   2.592   1.851  0.9637  0.4476 -0.2885
 5487SOL     OW27389   8.494   4.196   3.795 -0.3561  0.1076 -0.1418
 5487SOL    HW127390   8.462   4.130   3.727 -0.8185 -0.5302  0.6867
 5487SOL    HW227391   8.415   4.230   3.847  0.0997 -0.0973  0.6889
 5488SOL     OW27392   8.956   9.529   5.011 -0.1348 -0.7234 -0.0394
 5488SOL    HW127393   9.032   9.469   4.986  0.5707 -0.0434  0.4834
 5488SOL    HW227394   8.936   9.520   5.108  0.5833  0.5773  0.2348
 5489SOL     OW27395   5.173   7.946   2.876  0.1112 -0.0048  0.3498
 5489SOL    HW127396   5.190   7.995   2.791  0.2989  0.9193  0.9004
 5489SOL    HW227397   5.135   7.856   2.857 -0.6102  0.5130 -0.6834
 5490SOL     OW27398   4.435   9.155   1.306  0.0540  0.3587  0.3188
 5490SOL    HW127399   4.436   9.106   1.393 -1.4855 -1.0512 -0.4147
 5490SOL    HW227400   4.372   9.232   1.312  0.0307  0.3273  0.4909
 5491SOL     OW27401   9.085   2.377   1.645  0.7017 -0.8039  0.1892
 5491SOL    HW127402   9.018   2.303   1.653  0.9221 -0.9304  0.9543
 5491SOL    HW227403   9.075   2.422   1.557  0.0842 -1.2834  0.0105
 5492SOL     OW27404   3.996   8.681   4.485 -0.0112  0.6985  0.0621
 5492SOL    HW127405   3.925   8.633   4.433  1.5336  0.2892 -1.7688
 5492SOL    HW227406   3.954   8.751   4.543 -2.0362 -0.7313  0.3820
 5493SOL     OW27407   1.478   5.448   1.074  0.0010 -0.5043  0.3311
 5493SOL    HW127408   1.529   5.518   1.024  1.0988 -1.5138  0.0262
 5493SOL    HW227409   1.401   5.491   1.122 -0.9535  0.4929 -2.0444
 5494SOL     OW27410   8.242   8.847   4.442 -0.0480  0.0486  0.4374
 5494SOL    HW127411   8.326   8.898   4.424  0.8520 -2.0202 -1.3781
 5494SOL    HW227412   8.262   8.771   4.503 -0.9920  0.6275  1.4939
 5495SOL     OW27413   2.723   7.435   4.711 -0.1634  0.2626  0.4203
 5495SOL    HW127414   2.642   7.491   4.692 -0.3096  0.4951  1.6651
 5495SOL    HW227415   2.700   7.365   4.779  0.3347 -0.5418 -0.2351
 5496SOL     OW27416   6.371   4.645   0.571 -0.0212  0.0603  0.1602
 5496SOL    HW127417   6.456   4.620   0.525 -1.3180 -2.8414 -0.7443
 5496SOL    HW227418   6.380   4.629   0.669  0.8233  0.7705  0.2017
 5497SOL     OW27419   8.665   8.645   4.798  0.0576 -0.9751 -0.1010
 5497SOL    HW127420   8.658   8.606   4.889  1.4172 -0.4858  0.2339
 5497SOL    HW227421   8.584   8.699   4.777  0.6047  0.5305  1.5996
 5498SOL     OW27422   3.424   0.867   4.510  0.0648  0.0047 -0.2131
 5498SOL    HW127423   3.357   0.939   4.493 -1.0007 -0.4452  1.9344
 5498SOL    HW227424   3.411   0.794   4.443 -0.7306  0.4971 -0.6122
 5499SOL     OW27425   1.629   2.483   0.935  0.5407 -0.4380  0.1740
 5499SOL    HW127426   1.725   2.455   0.927  0.4728 -0.8804  0.9175
 5499SOL    HW227427   1.615   2.530   1.022 -0.4288 -2.4160  1.0915
 5500SOL     OW27428   7.358   1.354   6.430 -0.3395  0.3777 -0.2045
 5500SOL    HW127429   7.434   1.309   6.477 -0.2397  1.3155  0.5250
 5500SOL    HW227430   7.364   1.334   6.332  0.0247 -0.7355  0.0331
 5501SOL     OW27431   5.974   0.380   5.566  0.0789 -0.1601 -0.4909
 5501SOL    HW127432   5.950   0.460   5.622 -1.2116 -0.5248 -0.5018
 5501SOL    HW227433   6.055   0.401   5.511  0.4413  0.7338  0.3764
 5502SOL     OW27434   2.614   8.558   5.092 -0.1293 -0.0563 -0.4719
 5502SOL    HW127435   2.683   8.595   5.154 -0.6040 -2.3325  1.5324
 5502SOL    HW227436   2.625   8.459   5.086 -3.0829 -0.4599 -0.1960
 5503SOL     OW27437   3.373   5.779   1.215  0.6385  0.0413  0.2955
 5503SOL    HW127438   3.277   5.803   1.232  0.2313 -0.7985 -0.7583
 5503SOL    HW227439   3.423   5.861   1.186 -0.0243  0.2589 -0.2491
 5504SOL     OW27440   2.102   5.713   4.407  0.0832 -0.0251 -0.2906
 5504SOL    HW127441   2.064   5.644   4.469 -0.4620 -0.2067 -0.8265
 5504SOL    HW227442   2.039   5.791   4.403  0.6367  0.4546  0.2167
 5505SOL     OW27443   3.490   8.544   4.708  0.1940 -0.0923 -0.2312
 5505SOL    HW127444   3.411   8.557   4.649  1.0207  1.9880 -0.9386
 5505SOL    HW227445   3.479   8.599   4.791 -0.3960 -2.0386  1.0178
 5506SOL     OW27446   6.641   0.469   1.704 -0.0529 -0.3249  0.2239
 5506SOL    HW127447   6.589   0.554   1.699  1.5784  0.5824 -2.6113
 5506SOL    HW227448   6.706   0.474   1.779 -0.0415  0.8897  0.1396
 5507SOL     OW27449   9.814   7.256   0.494  0.1808  0.1902 -0.5423
 5507SOL    HW127450   9.793   7.161   0.519 -0.6311  0.1326 -1.4087
 5507SOL    HW227451   9.823   7.263   0.395  1.9291  0.7085 -0.3613
 5508SOL     OW27452   2.608   3.483   2.585 -0.1850  0.4408  0.7242
 5508SOL    HW127453   2.647   3.535   2.661 -1.8056  1.9694  0.5145
 5508SOL    HW227454   2.517   3.451   2.609 -0.0621 -0.4617  0.0288
 5509SOL     OW27455   2.671   7.784   5.504 -0.2965  0.5090  0.7871
 5509SOL    HW127456   2.656   7.693   5.543 -0.0847  0.3394  0.4763
 5509SOL    HW227457   2.633   7.853   5.566 -0.8646  0.1842  0.8105
 5510SOL     OW27458   9.867   2.558   3.794 -0.4043 -0.6900  0.0520
 5510SOL    HW127459   9.821   2.469   3.786 -1.2861 -0.2748  0.3865
 5510SOL    HW227460   9.812   2.618   3.852  0.4992 -0.1285  0.3200
 5511SOL     OW27461   7.275   0.909   5.286 -0.0556 -0.5554  0.1299
 5511SOL    HW127462   7.300   0.940   5.195 -2.9007  1.5577  0.0089
 5511SOL    HW227463   7.327   0.961   5.355 -1.0215  0.8810 -0.2066
 5512SOL     OW27464   8.696   8.031   2.105  0.0977 -0.3698 -0.1844
 5512SOL    HW127465   8.748   7.991   2.180 -0.4005  0.2119  0.4808
 5512SOL    HW227466   8.676   7.961   2.037  0.8342 -0.8276  0.0639
 5513SOL     OW27467   8.219   6.221   1.671 -0.6173  0.1519 -0.1470
 5513SOL    HW127468   8.239   6.287   1.744  2.6611  1.6622 -2.3044
 5513SOL    HW227469   8.266   6.135   1.689  0.4112  0.6154 -0.6229
 5514SOL     OW27470   2.313   2.180   3.173 -0.3848  0.5955  0.4092
 5514SOL    HW127471   2.315   2.213   3.268  0.0573  1.0246  0.2542
 5514SOL    HW227472   2.260   2.244   3.117 -1.8591 -0.4032  0.6410
 5515SOL     OW27473   2.738   4.441   4.063  0.1295 -0.4506  0.5005
 5515SOL    HW127474   2.773   4.349   4.076  1.2253 -0.1208 -0.0645
 5515SOL    HW227475   2.643   4.436   4.031  0.1416 -1.3725  0.5913
 5516SOL     OW27476   5.064   0.042   3.545 -0.1788 -0.5650  0.2646
 5516SOL    HW127477   5.154   0.020   3.507  0.3984  0.0609  1.2515
 5516SOL    HW227478   4.995  -0.019   3.504  0.6311 -0.8253 -0.7435
 5517SOL     OW27479   2.483   5.067   1.960  0.2710  0.4641 -0.0797
 5517SOL    HW127480   2.465   5.033   2.052 -2.7172 -1.1095 -1.1928
 5517SOL    HW227481   2.439   5.156   1.948  0.2495  0.4432 -0.1583
 5518SOL     OW27482   8.970   6.280   2.850  0.7514  0.0916  0.3499
 5518SOL    HW127483   8.936   6.346   2.783  0.9910  0.3078  0.4404
 5518SOL    HW227484   8.951   6.313   2.942 -3.6855 -2.3296  0.4264
 5519SOL     OW27485   7.417   7.985   2.300  0.4580 -0.0968 -0.1461
 5519SOL    HW127486   7.344   7.919   2.315  1.4590 -0.9269  1.1413
 5519SOL    HW227487   7.450   8.019   2.388  0.5428  1.4792 -0.7669
 5520SOL     OW27488   8.547   2.525   2.429  0.1507 -0.0842 -0.4381
 5520SOL    HW127489   8.526   2.622   2.421  0.9243  0.0530 -0.8019
 5520SOL    HW227490   8.545   2.482   2.338 -0.3330 -0.4404 -0.2640
 5521SOL     OW27491   4.523   9.996   3.579  0.7360  0.3057  0.2263
 5521SOL    HW127492   4.449  10.018   3.515  0.9280  0.0211 -0.0965
 5521SOL    HW227493   4.592  10.068   3.576  0.5742  0.4668  0.3709
 5522SOL     OW27494   1.897   3.582   3.032  0.3854 -0.5572  0.5105
 5522SOL    HW127495   1.985   3.546   3.062  0.3515 -0.9587  0.1402
 5522SOL    HW227496   1.910   3.670   2.987  0.6314 -0.7565  0.1891
 5523SOL     OW27497   9.020   7.313   1.388 -0.6942 -0.2775 -0.3307
 5523SOL    HW127498   8.988   7.407   1.391 -2.1255 -0.7576  0.5478
 5523SOL    HW227499   9.103   7.304   1.443 -1.3748  0.1963  0.8008
 5524SOL     OW27500   9.287   8.021   1.158 -0.0389 -0.3211 -0.1515
 5524SOL    HW127501   9.339   7.974   1.087  1.4617 -0.4087  0.9846
 5524SOL    HW227502   9.234   8.095   1.116  1.3549  0.0788 -1.2764
 5525SOL     OW27503   9.119   6.141   4.526 -0.0596 -0.0772  0.3261
 5525SOL    HW127504   9.218   6.129   4.520 -0.0922 -1.0405  1.5247
 5525SOL    HW227505   9.098   6.236   4.549  0.5885  0.0876  0.2448
 5526SOL     OW27506   2.582   7.488   5.886  0.4315 -0.4390 -0.7978
 5526SOL    HW127507   2.651   7.449   5.826  0.3056 -0.1461 -1.1285
 5526SOL    HW227508   2.505   7.425   5.893 -0.4707  0.4509 -2.5852
 5527SOL     OW27509   8.521   2.889   4.688 -0.0709  0.3066 -0.0249
 5527SOL    HW127510   8.582   2.956   4.731  0.2774  0.3155 -0.5330
 5527SOL    HW227511   8.575   2.829   4.629 -0.1860 -1.1343  1.2804
 5528SOL     OW27512   4.151   6.038   2.054  0.4668  0.1919  0.0831
 5528SOL    HW127513   4.186   6.117   2.004  1.6052 -0.7193 -0.5814
 5528SOL    HW227514   4.060   6.015   2.019  0.0019  1.3664  0.4754
 5529SOL     OW27515   9.656   5.379   5.900  0.0393  0.4008  0.4326
 5529SOL    HW127516   9.697   5.467   5.923  0.9676  0.2649 -0.6666
 5529SOL    HW227517   9.693   5.308   5.960  1.6974  0.2155 -0.7851
 5530SOL     OW27518   1.927   5.040   6.574 -0.2295 -0.0105 -0.2362
 5530SOL    HW127519   1.953   5.076   6.664  1.1322  1.0784 -1.0438
 5530SOL    HW227520   1.938   5.111   6.505 -2.2690 -0.5267 -1.1292
 5531SOL     OW27521   0.739   4.229   5.552  0.4708 -0.2982  0.0090
 5531SOL    HW127522   0.832   4.253   5.527  0.5923  0.8145  1.4629
 5531SOL    HW227523   0.710   4.285   5.630 -1.8218  0.2390 -1.1823
 5532SOL     OW27524   9.810   6.262   4.404 -0.1652 -0.2415  0.0270
 5532SOL    HW127525   9.794   6.356   4.432 -0.1146  0.3353 -1.8446
 5532SOL    HW227526   9.734   6.230   4.348  1.9414  0.2677 -3.2605
 5533SOL     OW27527   6.460   0.666   0.213  0.7941 -0.3280  0.2332
 5533SOL    HW127528   6.511   0.690   0.130 -0.1583  0.4824 -0.1325
 5533SOL    HW227529   6.370   0.711   0.211  1.3015  0.8402  2.3574
 5534SOL     OW27530   6.745   0.243   4.059 -0.4548  0.1433  0.0988
 5534SOL    HW127531   6.765   0.308   3.986  2.5243 -3.3711 -2.4375
 5534SOL    HW227532   6.821   0.240   4.124 -0.9217 -0.1930  0.6377
 5535SOL     OW27533   6.777   0.011   4.602 -0.5257 -0.2101  0.4651
 5535SOL    HW127534   6.704  -0.052   4.629 -1.1849  0.0209 -0.7522
 5535SOL    HW227535   6.832  -0.031   4.530  0.3192 -0.2288  1.1139
 5536SOL     OW27536   8.993   6.473   6.432  0.2565  0.1447 -0.0561
 5536SOL    HW127537   9.086   6.447   6.460  0.1141  0.0485  0.3367
 5536SOL    HW227538   8.978   6.448   6.337 -0.1485 -1.9377  0.5318
 5537SOL     OW27539   4.396   7.251   3.912  0.1121 -0.4116  0.4021
 5537SOL    HW127540   4.376   7.288   3.821  2.2613 -0.2689 -0.0442
 5537SOL    HW227541   4.495   7.253   3.928 -0.0605 -2.2858  1.9552
 5538SOL     OW27542   9.226   4.612   2.777  0.1701 -0.6281 -0.1299
 5538SOL    HW127543   9.223   4.625   2.678  0.1880 -0.5516 -0.1205
 5538SOL    HW227544   9.238   4.701   2.822  2.7032 -0.8854 -0.1875
 5539SOL     OW27545   4.551   9.448   4.070  0.8054 -0.4469  0.1181
 5539SOL    HW127546   4.587   9.355   4.080  0.2248 -0.5713  1.0640
 5539SOL    HW227547   4.455   9.451   4.098  1.2611  0.7716  1.6466
 5540SOL     OW27548   1.924   3.941   0.958 -0.4698  0.2376  0.2275
 5540SOL    HW127549   1.831   3.955   0.925 -1.1795 -2.5740  0.8803
 5540SOL    HW227550   1.977   4.025   0.947 -2.9830  1.7698 -0.4534
 5541SOL     OW27551   3.558   1.950   0.915  0.3860 -0.4157 -0.1943
 5541SOL    HW127552   3.477   1.975   0.862 -0.7158 -0.2049  1.5602
 5541SOL    HW227553   3.538   1.959   1.012  2.0891 -1.7104  0.2876
 5542SOL     OW27554   5.708   2.595   3.132 -0.1277 -0.5880  0.1166
 5542SOL    HW127555   5.689   2.530   3.206 -0.7391  0.2040  0.6705
 5542SOL    HW227556   5.621   2.631   3.097  0.2592  1.3372  1.0945
 5543SOL     OW27557   1.184   7.630   3.406 -0.0326 -0.5853  0.3414
 5543SOL    HW127558   1.129   7.692   3.350  0.3354 -1.0879 -0.5883
 5543SOL    HW227559   1.279   7.635   3.376  0.0821 -1.2139  0.6043
 5544SOL     OW27560   3.120   0.660   1.593  0.3177 -0.2550  0.0307
 5544SOL    HW127561   3.084   0.588   1.653  1.4793 -2.0830 -1.3969
 5544SOL    HW227562   3.047   0.694   1.534  0.1041 -1.3965 -0.3721
 5545SOL     OW27563   5.741   7.268   3.711 -0.1766 -0.0911 -0.3485
 5545SOL    HW127564   5.759   7.309   3.800 -1.4267 -0.9012  0.2979
 5545SOL    HW227565   5.827   7.245   3.666  0.4673  0.5857  0.5302
 5546SOL     OW27566   3.121   2.860   0.704 -0.2068 -0.0361  0.3571
 5546SOL    HW127567   3.182   2.807   0.762 -0.4952 -1.6162 -0.7590
 5546SOL    HW227568   3.038   2.808   0.687 -1.3801  1.6175  0.8941
 5547SOL     OW27569   0.921   1.209   3.875  0.1701  0.1561  0.3897
 5547SOL    HW127570   0.880   1.274   3.811 -1.5482 -1.7918 -0.5835
 5547SOL    HW227571   0.934   1.253   3.964  0.2161  2.1611 -0.5750
 5548SOL     OW27572   8.156   7.717   1.320 -0.4631 -0.4327 -0.2267
 5548SOL    HW127573   8.200   7.668   1.245 -2.1559 -0.1559 -1.4476
 5548SOL    HW227574   8.224   7.769   1.371  0.6669 -0.2745 -1.8593
 5549SOL     OW27575   9.454   3.656   1.986  0.2714  0.1396  0.1904
 5549SOL    HW127576   9.524   3.616   1.926  1.2403  1.2033  0.6079
 5549SOL    HW227577   9.402   3.582   2.030  0.2464 -0.6472 -1.1409
 5550SOL     OW27578   3.430   4.352   2.550  0.4804 -0.0221 -0.0010
 5550SOL    HW127579   3.336   4.328   2.524  0.4308  1.6618 -1.4785
 5550SOL    HW227580   3.440   4.348   2.649 -1.2071 -0.0323  0.1746
 5551SOL     OW27581   3.413   7.961   4.957 -0.1122 -0.7883  0.0404
 5551SOL    HW127582   3.316   7.957   4.981 -0.0158  1.4088  0.9705
 5551SOL    HW227583   3.467   7.922   5.032 -0.1533  0.6230  0.8419
 5552SOL     OW27584   8.362   5.562   0.718 -0.3709  0.4209  0.0765
 5552SOL    HW127585   8.356   5.463   0.709 -0.2469  0.2853  1.4210
 5552SOL    HW227586   8.455   5.588   0.742 -0.1023  0.9752 -1.4972
 5553SOL     OW27587   4.971   7.895   4.352 -0.0251  0.7306 -0.3377
 5553SOL    HW127588   4.927   7.856   4.433  0.1862  0.2006 -0.4723
 5553SOL    HW227589   5.012   7.983   4.376 -1.1951  1.2538 -0.2253
 5554SOL     OW27590   1.419   3.944   6.093  0.5859 -0.1228 -0.0054
 5554SOL    HW127591   1.480   3.988   6.028  1.0997 -0.1026  0.4841
 5554SOL    HW227592   1.398   3.852   6.062  0.4368  0.0567 -0.4453
 5555SOL     OW27593   1.757   5.879   6.692 -0.4928  0.2472 -0.1095
 5555SOL    HW127594   1.803   5.964   6.716 -0.5527 -0.0294  1.0192
 5555SOL    HW227595   1.819   5.821   6.639 -0.0996  0.5638  0.0054
 5556SOL     OW27596   3.573   5.890   0.894 -0.5041  0.0695 -0.3586
 5556SOL    HW127597   3.524   5.942   0.964  0.6023  1.4395 -0.5937
 5556SOL    HW227598   3.613   5.952   0.827  1.1868 -1.0424 -0.4283
 5557SOL     OW27599   4.088   2.718   1.533  0.0599  0.9023 -0.0079
 5557SOL    HW127600   3.995   2.740   1.505 -0.5375 -0.0425  1.2009
 5557SOL    HW227601   4.094   2.621   1.556  1.5578  0.7642 -0.8934
 5558SOL     OW27602   0.020   5.831   2.358  0.1043 -0.0797 -0.2394
 5558SOL    HW127603   0.094   5.764   2.360  0.1169 -0.0507  0.6210
 5558SOL    HW227604   0.057   5.923   2.372 -0.0524 -0.0259 -0.1693
 5559SOL     OW27605   9.215   5.597   5.642  0.5352 -0.7998 -0.4205
 5559SOL    HW127606   9.262   5.662   5.583  0.3743  0.8543  1.2465
 5559SOL    HW227607   9.244   5.504   5.618  2.2387 -0.0075 -1.5323
 5560SOL     OW27608   4.130   3.643   4.677  0.1799  0.5823 -0.0914
 5560SOL    HW127609   4.136   3.592   4.763 -1.5674  0.1457 -0.2193
 5560SOL    HW227610   4.100   3.737   4.696 -0.0047  0.5475 -0.2207
 5561SOL     OW27611   3.261   2.187   1.482 -0.2384 -0.0541  0.3150
 5561SOL    HW127612   3.336   2.125   1.456 -0.2068  0.0155  0.2408
 5561SOL    HW227613   3.228   2.235   1.401  2.0731  2.6424  0.8729
 5562SOL     OW27614   6.659   7.341   3.121 -0.8744  0.0365  0.2713
 5562SOL    HW127615   6.652   7.370   3.216 -0.1107  0.5091  0.1849
 5562SOL    HW227616   6.593   7.392   3.065 -0.1791  0.9341  0.2716
 5563SOL     OW27617   4.481   6.514   1.025  0.1599  0.0978  0.5175
 5563SOL    HW127618   4.541   6.487   1.100  0.7094 -0.1994 -0.0303
 5563SOL    HW227619   4.393   6.545   1.062 -0.4530 -2.2813  1.1972
 5564SOL     OW27620   0.116   6.265   5.823 -0.3543  0.1165 -0.1505
 5564SOL    HW127621   0.116   6.240   5.726  2.0221 -1.2514  0.1603
 5564SOL    HW227622   0.031   6.233   5.866 -1.1051  0.1018 -1.6244
 5565SOL     OW27623   6.916   9.005   5.619 -0.0780  0.0281  0.2218
 5565SOL    HW127624   7.011   9.036   5.620 -0.5824  1.6254 -0.0898
 5565SOL    HW227625   6.891   8.978   5.526  0.3724 -1.4075  0.4994
 5566SOL     OW27626   6.610   9.111   5.123  0.3457 -0.4033 -0.0101
 5566SOL    HW127627   6.606   9.045   5.048  1.8937 -0.9996  0.4274
 5566SOL    HW227628   6.690   9.170   5.110 -0.8196  1.1637 -0.2046
 5567SOL     OW27629   2.856   2.791   1.564  0.1698 -0.1368  0.0993
 5567SOL    HW127630   2.828   2.703   1.604  1.6881 -0.1166  1.2464
 5567SOL    HW227631   2.955   2.792   1.553  0.3770  2.1741  1.9002
 5568SOL     OW27632   8.086   8.547   2.787 -0.0029 -0.2314  0.5411
 5568SOL    HW127633   8.185   8.560   2.794  0.0384  1.2831 -1.9663
 5568SOL    HW227634   8.039   8.616   2.842  0.3687  1.6147 -1.3498
 5569SOL     OW27635   0.304   6.228   6.551  0.3205 -0.2970  0.1712
 5569SOL    HW127636   0.308   6.143   6.604  0.6543 -0.0697  0.5158
 5569SOL    HW227637   0.361   6.297   6.595 -0.4850  0.3138  0.2629
 5570SOL     OW27638   5.350   0.730   4.424 -0.1496 -0.6543 -0.6896
 5570SOL    HW127639   5.305   0.819   4.413  0.6163 -0.1320  0.3006
 5570SOL    HW227640   5.444   0.736   4.390 -0.4262 -1.3882 -1.5980
 5571SOL     OW27641   8.549   7.329   3.859  0.4199  0.3112 -0.3079
 5571SOL    HW127642   8.493   7.411   3.869 -1.0903 -0.3893 -2.5602
 5571SOL    HW227643   8.554   7.304   3.762 -0.0987 -2.8847  0.4265
 5572SOL     OW27644   7.857   3.518   1.121 -0.7224  0.2367  0.2599
 5572SOL    HW127645   7.927   3.587   1.106  1.5422 -1.5382  2.3714
 5572SOL    HW227646   7.774   3.562   1.157  0.4977  1.9157  1.0852
 5573SOL     OW27647   8.483   7.630   3.326 -0.3569  0.7784  0.3571
 5573SOL    HW127648   8.539   7.687   3.386 -0.8731  2.0352 -0.3497
 5573SOL    HW227649   8.541   7.559   3.285  0.1981  0.5146  1.5643
 5574SOL     OW27650   8.362   7.189   2.617 -0.1462  0.6206  0.2473
 5574SOL    HW127651   8.422   7.243   2.675  0.8240 -0.8991  0.7086
 5574SOL    HW227652   8.405   7.176   2.528 -0.0932  0.1255  0.3403
 5575SOL     OW27653   8.087   6.360   2.559  0.2645 -0.0842  0.7138
 5575SOL    HW127654   8.100   6.371   2.657 -0.0073  0.1099  0.7296
 5575SOL    HW227655   8.056   6.267   2.539  2.0433 -0.6870  0.6336
 5576SOL     OW27656   9.194   5.227   2.932 -0.6157 -0.2680  0.0227
 5576SOL    HW127657   9.196   5.148   2.994 -1.0457  0.2180  0.6582
 5576SOL    HW227658   9.099   5.257   2.920 -0.4913 -0.0997 -0.5384
 5577SOL     OW27659   3.189   3.787   2.685 -0.5585 -0.5709  0.3338
 5577SOL    HW127660   3.209   3.810   2.781 -1.2741  0.8006  0.1669
 5577SOL    HW227661   3.127   3.856   2.647  0.2022 -0.7823 -1.2975
 5578SOL     OW27662   7.355   1.748   2.752  0.7607 -0.0286  0.3432
 5578SOL    HW127663   7.303   1.666   2.727 -0.8157  0.5660  1.5676
 5578SOL    HW227664   7.341   1.768   2.849  2.9979  0.3769  0.6007
 5579SOL     OW27665   1.255   5.131   3.123 -0.2635  0.6925 -0.0991
 5579SOL    HW127666   1.219   5.223   3.142 -0.8254  0.3870  0.3302
 5579SOL    HW227667   1.349   5.139   3.091 -0.9110  1.5392 -1.8520
 5580SOL     OW27668   0.555   8.135   0.466 -0.1015 -0.7671  0.1243
 5580SOL    HW127669   0.644   8.146   0.511  0.9256  1.1613 -2.2380
 5580SOL    HW227670   0.498   8.214   0.485 -0.1448 -0.5545 -0.8719
 5581SOL     OW27671   1.466   5.855   2.615  0.0081 -0.6796 -0.2328
 5581SOL    HW127672   1.429   5.781   2.560 -0.0823  0.4296 -1.7003
 5581SOL    HW227673   1.534   5.819   2.679  0.5195 -1.9004 -1.4502
 5582SOL     OW27674   1.350   3.039   1.738  0.1054  0.3319  0.2047
 5582SOL    HW127675   1.275   3.059   1.675  0.7121  0.0116 -0.6252
 5582SOL    HW227676   1.325   3.071   1.830 -2.0627 -1.9901  0.4740
 5583SOL     OW27677   1.220   1.371   1.792  0.3132 -0.2676  0.1250
 5583SOL    HW127678   1.138   1.318   1.771 -0.7231  2.1872 -2.2026
 5583SOL    HW227679   1.211   1.410   1.884 -0.0113 -2.0310  0.8619
 5584SOL     OW27680   8.466   4.358   4.253  0.0646  0.4409 -0.1829
 5584SOL    HW127681   8.497   4.416   4.328 -1.2389 -0.3481  0.9657
 5584SOL    HW227682   8.527   4.279   4.244 -0.9563 -0.5301  1.3591
 5585SOL     OW27683   8.044   8.983   1.286  0.1930  0.5247  0.1357
 5585SOL    HW127684   8.086   9.053   1.228  0.8086 -1.0939 -1.4326
 5585SOL    HW227685   7.951   8.965   1.254 -0.1604  1.0169  0.8828
 5586SOL     OW27686   1.105   3.043   1.595  0.3223 -0.2190  0.3339
 5586SOL    HW127687   1.053   2.987   1.531  0.5110  1.0667 -0.9788
 5586SOL    HW227688   1.054   3.052   1.681 -0.6521 -0.6982 -0.1873
 5587SOL     OW27689   4.028   3.969   0.289  0.2122 -0.5119  0.7138
 5587SOL    HW127690   3.930   3.962   0.306  0.2881  0.5021  1.5944
 5587SOL    HW227691   4.043   4.029   0.210  0.1632  0.2291  1.2576
 5588SOL     OW27692   9.271   6.406   6.478  0.0827 -0.1012 -0.0339
 5588SOL    HW127693   9.341   6.353   6.430  0.9290  0.1355  0.9255
 5588SOL    HW227694   9.311   6.492   6.510 -0.2981 -0.5478  1.6623
 5589SOL     OW27695   0.893   4.322   4.202 -0.1438  0.3120 -0.5790
 5589SOL    HW127696   0.956   4.247   4.221 -1.0956 -0.2165  0.5729
 5589SOL    HW227697   0.861   4.316   4.108  1.8095  0.8173 -1.3180
 5590SOL     OW27698   4.744   1.602   3.849  0.5377 -0.2480 -0.0067
 5590SOL    HW127699   4.708   1.681   3.799  1.4521 -0.5888 -1.2161
 5590SOL    HW227700   4.843   1.600   3.840  0.6130 -0.9068  0.9668
 5591SOL     OW27701   6.828   4.190   0.388  0.6234  0.5808 -0.4379
 5591SOL    HW127702   6.827   4.287   0.412 -1.2714  0.3130  0.6283
 5591SOL    HW227703   6.795   4.136   0.465 -1.7952 -0.6019 -2.2386
 5592SOL     OW27704   2.473   2.477   4.713  0.1076  0.2045 -0.1743
 5592SOL    HW127705   2.404   2.549   4.712  1.0490  1.1269 -0.3287
 5592SOL    HW227706   2.434   2.393   4.749 -0.8699  0.9446  0.5001
 5593SOL     OW27707   6.898   9.910   5.756 -0.5914 -0.3634 -0.3292
 5593SOL    HW127708   6.815   9.946   5.799  0.7026  0.1745  1.7792
 5593SOL    HW227709   6.960   9.985   5.735  1.0463 -1.0477  1.7998
 5594SOL     OW27710   2.539   8.009   1.729  0.2439 -0.4300 -0.6939
 5594SOL    HW127711   2.622   8.062   1.711  1.2977 -0.9308  2.3540
 5594SOL    HW227712   2.463   8.072   1.746  0.6777  0.0679 -0.5684
 5595SOL     OW27713   3.186   6.302   5.927 -0.3666  0.0684 -0.7087
 5595SOL    HW127714   3.124   6.232   5.893  0.0818 -0.8762  0.3966
 5595SOL    HW227715   3.132   6.375   5.970 -0.7224 -0.9280  0.5844
 5596SOL     OW27716   3.470   3.438   1.771 -0.1712  0.6218  0.4221
 5596SOL    HW127717   3.393   3.464   1.830 -0.9799  1.4131 -0.9578
 5596SOL    HW227718   3.444   3.449   1.675  0.7594 -1.6684 -0.1455
 5597SOL     OW27719   1.766   8.817   4.708  0.2494 -0.0596 -0.1819
 5597SOL    HW127720   1.822   8.767   4.642 -0.6759  1.4469 -2.1428
 5597SOL    HW227721   1.810   8.903   4.731  0.6881 -0.6771  1.4096
 5598SOL     OW27722   9.950   6.662   1.986  0.1378  0.5534  0.1807
 5598SOL    HW127723   9.973   6.682   1.891  0.2021 -0.0372  0.0700
 5598SOL    HW227724   9.952   6.563   2.001  0.0093  0.6363  0.7661
 5599SOL     OW27725   2.239   4.249   5.484  0.0437  0.1129 -0.0903
 5599SOL    HW127726   2.332   4.215   5.468 -0.6987 -0.7127 -3.0172
 5599SOL    HW227727   2.226   4.335   5.435 -0.0145  1.5423  2.3338
 5600SOL     OW27728   3.616   0.563   3.199 -0.4761  0.0713  0.4811
 5600SOL    HW127729   3.696   0.506   3.180 -0.7866 -0.7887  1.6715
 5600SOL    HW227730   3.645   0.654   3.226  0.1555 -0.5197  1.8504
 5601SOL     OW27731   0.493   2.973   0.424 -0.0932  0.0878 -0.6083
 5601SOL    HW127732   0.514   3.025   0.506 -0.2153 -2.0349  0.8028
 5601SOL    HW227733   0.568   2.910   0.404 -0.1172  0.5003 -2.0686
 5602SOL     OW27734   5.654   9.519   5.085  0.0054  0.7476 -0.2068
 5602SOL    HW127735   5.688   9.587   5.150  0.7862 -1.6784  2.0241
 5602SOL    HW227736   5.559   9.497   5.107  0.3074 -0.1646  0.2251
 5603SOL     OW27737   8.602   1.814   2.631  0.2233  0.1672  0.2574
 5603SOL    HW127738   8.665   1.890   2.612  1.7789 -1.7698 -2.8022
 5603SOL    HW227739   8.631   1.768   2.715  1.7478  0.5267 -0.0412
 5604SOL     OW27740   9.425   6.531   3.149 -0.2578  0.0304  0.6929
 5604SOL    HW127741   9.493   6.592   3.189  0.2501  0.0551 -0.1950
 5604SOL    HW227742   9.349   6.586   3.113  0.1698  0.1475 -0.0489
 5605SOL     OW27743   7.743   2.440   0.414 -0.2672  0.2636 -0.2300
 5605SOL    HW127744   7.800   2.522   0.413 -1.5633  1.1828  0.2303
 5605SOL    HW227745   7.796   2.362   0.380  2.0811  0.5395  2.6307
 5606SOL     OW27746   9.739   1.958   4.863 -0.1211  0.0010 -0.3045
 5606SOL    HW127747   9.773   1.957   4.768  1.7252  2.6926  0.2516
 5606SOL    HW227748   9.721   1.865   4.893  0.6795 -1.0190 -2.8298
 5607SOL     OW27749   1.859   5.750   6.067 -0.4452  0.0652 -0.1331
 5607SOL    HW127750   1.956   5.742   6.048  0.0494 -0.8436  2.5798
 5607SOL    HW227751   1.844   5.826   6.130 -1.7209  1.2449 -1.7872
 5608SOL     OW27752   6.008   9.618   3.387  0.3521  0.0179 -0.2567
 5608SOL    HW127753   6.007   9.713   3.354  2.0553 -0.6040 -2.2320
 5608SOL    HW227754   5.948   9.562   3.330 -0.5809 -0.1262  0.8523
 5609SOL     OW27755   0.036   7.283   1.480 -0.4591 -0.3920  0.0095
 5609SOL    HW127756   0.075   7.236   1.401  0.7579  1.4119 -0.4788
 5609SOL    HW227757  -0.032   7.349   1.450  0.8644  1.1621  0.3269
 5610SOL     OW27758   0.224   1.103   1.842 -0.3012  0.2654 -0.1713
 5610SOL    HW127759   0.254   1.113   1.747  0.2605 -2.2415 -0.2805
 5610SOL    HW227760   0.132   1.142   1.851 -1.3276 -1.5368 -2.3091
 5611SOL     OW27761   5.253   8.487   4.329 -0.0766 -0.4598 -0.4935
 5611SOL    HW127762   5.156   8.469   4.344 -0.2628  1.0353  0.0957
 5611SOL    HW227763   5.295   8.406   4.287 -1.3797 -1.4417  0.0472
 5612SOL     OW27764   8.094   9.484   2.538 -0.2566 -0.3598  0.2109
 5612SOL    HW127765   8.008   9.433   2.544  0.2962 -1.2667  0.5842
 5612SOL    HW227766   8.086   9.571   2.587 -0.5240 -1.0627  1.4256
 5613SOL     OW27767   1.705   3.647   3.997 -0.6511  0.0974 -0.0956
 5613SOL    HW127768   1.621   3.606   4.032 -0.8729  1.6368  1.1971
 5613SOL    HW227769   1.741   3.712   4.063  0.8815  0.4013 -1.1956
 5614SOL     OW27770   9.826   3.477   5.405 -0.3513 -0.0975  0.0447
 5614SOL    HW127771   9.831   3.482   5.305 -1.2797  2.7097  0.1076
 5614SOL    HW227772   9.917   3.493   5.443 -0.0580 -0.8374 -0.3248
 5615SOL     OW27773   5.476   7.209   4.940  0.2033 -0.1827  0.1335
 5615SOL    HW127774   5.513   7.290   4.984 -0.7657  0.3900 -0.0750
 5615SOL    HW227775   5.392   7.180   4.987 -0.1135 -0.3457 -0.5158
 5616SOL     OW27776   2.981   6.367   0.960 -0.2509  0.1477 -0.4448
 5616SOL    HW127777   2.929   6.432   1.015 -0.6362  1.3670 -2.2166
 5616SOL    HW227778   2.977   6.277   1.003 -2.0565  0.6718  0.5487
 5617SOL     OW27779   7.127   7.465   3.280  0.0279  0.3471 -0.2353
 5617SOL    HW127780   7.209   7.419   3.248 -0.4888 -0.8071  0.0731
 5617SOL    HW227781   7.052   7.399   3.286 -0.7876  1.2807 -0.0270
 5618SOL     OW27782   0.234   0.357   1.903  0.1586 -0.4640 -0.9263
 5618SOL    HW127783   0.267   0.268   1.936  0.5957 -0.8119 -2.2511
 5618SOL    HW227784   0.137   0.350   1.880  0.2534 -0.6791 -1.2715
 5619SOL     OW27785   3.403   2.602   2.206  0.5412 -0.2116  1.0220
 5619SOL    HW127786   3.374   2.654   2.286 -0.5591 -0.5593  0.8564
 5619SOL    HW227787   3.341   2.620   2.130  1.2836 -0.2762  0.3944
 5620SOL     OW27788   6.135   0.783   3.116 -0.1778  0.2883 -0.3521
 5620SOL    HW127789   6.187   0.759   3.198 -0.8348 -1.0041 -0.3076
 5620SOL    HW227790   6.198   0.812   3.043  0.4865  0.2183  0.1911
 5621SOL     OW27791   0.033   4.063   0.557  0.5350 -0.8214 -0.2794
 5621SOL    HW127792  -0.032   4.138   0.573  2.3150  1.4394 -3.0695
 5621SOL    HW227793   0.120   4.084   0.603  1.8767  0.1697 -3.1163
 5622SOL     OW27794   5.046   5.821   0.774  0.4620  0.7506 -0.1961
 5622SOL    HW127795   5.097   5.778   0.699 -1.3490  1.1567 -1.6849
 5622SOL    HW227796   5.111   5.863   0.837  2.0664 -0.4470 -0.9981
 5623SOL     OW27797   7.040   0.621   3.884  0.3031 -0.1439  0.0983
 5623SOL    HW127798   7.080   0.710   3.864 -0.8627  0.4927  0.6294
 5623SOL    HW227799   7.111   0.551   3.875  1.7354  1.0548  1.7252
 5624SOL     OW27800   8.849   4.325   5.100 -0.5232 -0.0134  0.9526
 5624SOL    HW127801   8.864   4.423   5.095 -1.3089  0.0987  0.8270
 5624SOL    HW227802   8.762   4.306   5.144  0.0774 -0.6802  1.8729
 5625SOL     OW27803   2.448   5.070   1.619 -0.5479  0.0135 -0.0639
 5625SOL    HW127804   2.408   5.143   1.674 -0.7766  0.1154 -0.3617
 5625SOL    HW227805   2.459   5.102   1.525 -0.0655 -0.1227 -0.0559
 5626SOL     OW27806   3.413   6.676   1.068 -0.8314 -0.8463  0.1583
 5626SOL    HW127807   3.367   6.689   0.980 -0.2965 -0.7081 -0.1035
 5626SOL    HW227808   3.490   6.614   1.056 -0.6896 -0.7346  0.5042
 5627SOL     OW27809   9.375   4.603   6.721  1.0680  0.0422 -0.2899
 5627SOL    HW127810   9.281   4.629   6.701  0.7029  0.1693  1.5192
 5627SOL    HW227811   9.394   4.513   6.683 -0.5700 -1.0853  1.4956
 5628SOL     OW27812   2.047   6.148   1.004  0.4368 -0.6843  0.1295
 5628SOL    HW127813   1.986   6.223   1.028 -0.3564 -1.6123  1.0825
 5628SOL    HW227814   2.116   6.180   0.939  0.4069  0.9860  0.8890
 5629SOL     OW27815   3.788   8.562   4.334  0.1592 -0.2570  0.0344
 5629SOL    HW127816   3.715   8.597   4.394  0.9395  0.9742  0.2715
 5629SOL    HW227817   3.763   8.577   4.239 -0.5689 -1.1909  0.0687
 5630SOL     OW27818   1.331   7.462   2.827  0.2601 -0.1068 -0.1917
 5630SOL    HW127819   1.258   7.513   2.874 -0.5378 -0.9871 -0.4518
 5630SOL    HW227820   1.309   7.365   2.830  0.9777 -0.2947 -1.0709
 5631SOL     OW27821   0.841   6.916   5.084  0.3158  0.5629 -0.1686
 5631SOL    HW127822   0.877   6.966   5.163 -0.7227 -0.2192  0.8323
 5631SOL    HW227823   0.773   6.849   5.116 -1.9206  1.9228 -1.9603
 5632SOL     OW27824   1.018   5.424   1.256  0.5304  0.0192  0.1645
 5632SOL    HW127825   1.068   5.338   1.248 -0.2789 -0.5549  1.1392
 5632SOL    HW227826   0.925   5.412   1.221  0.5717  0.6419 -0.1680
 5633SOL     OW27827   5.395   9.657   4.882  0.1690 -0.1446 -0.1465
 5633SOL    HW127828   5.302   9.690   4.865  0.4583  0.6707 -0.1492
 5633SOL    HW227829   5.460   9.715   4.833  0.7813  0.1843  1.0331
 5634SOL     OW27830   2.001   1.325   3.848  0.1751  0.4133  0.2510
 5634SOL    HW127831   2.086   1.341   3.898  1.1093  1.7965 -1.7128
 5634SOL    HW227832   1.927   1.378   3.889  0.5910  0.3612  1.0717
 5635SOL     OW27833   4.017   0.182   1.583 -0.2118  0.5094  0.1579
 5635SOL    HW127834   4.035   0.278   1.561 -1.5796  0.7379  0.0007
 5635SOL    HW227835   4.050   0.124   1.508 -0.1062  0.9133 -0.1094
 5636SOL     OW27836   3.562   0.945   2.334 -0.5969  0.4163 -0.1730
 5636SOL    HW127837   3.542   0.950   2.432  0.9678 -0.2427  0.1974
 5636SOL    HW227838   3.635   1.009   2.312  0.0503 -0.4627 -0.6330
 5637SOL     OW27839   0.555   0.464   4.053 -0.0870  0.5569  0.2489
 5637SOL    HW127840   0.460   0.475   4.081 -0.2134  1.8328 -0.6072
 5637SOL    HW227841   0.594   0.384   4.098 -1.2543  0.6199  1.4130
 5638SOL     OW27842   0.759   4.350   2.382 -0.2976 -0.2416  0.3927
 5638SOL    HW127843   0.799   4.431   2.425 -0.8537  0.2274  0.0399
 5638SOL    HW227844   0.817   4.270   2.399  2.9272  1.1283 -3.3846
 5639SOL     OW27845   9.706   4.634   5.356  0.2155  0.6442 -0.0667
 5639SOL    HW127846   9.694   4.733   5.365  1.5516  0.9423 -1.1894
 5639SOL    HW227847   9.629   4.596   5.305  0.4751  1.3720 -1.0272
 5640SOL     OW27848   1.921   6.298   0.223  0.1966  0.1071  0.3809
 5640SOL    HW127849   1.931   6.396   0.208 -2.0126  0.5658  1.6564
 5640SOL    HW227850   1.989   6.266   0.288  1.6895  0.5411 -0.9379
 5641SOL     OW27851   9.471   8.038   4.924 -0.4885  0.6283 -0.2127
 5641SOL    HW127852   9.409   8.049   5.002  1.3053  2.7086  0.9984
 5641SOL    HW227853   9.455   8.111   4.858 -0.0366  0.5784 -0.3835
 5642SOL     OW27854   5.109   0.789   0.420 -0.8440 -0.2197 -0.1307
 5642SOL    HW127855   5.041   0.727   0.382 -3.0247  0.6910  2.0764
 5642SOL    HW227856   5.152   0.746   0.500  0.9661 -0.6450 -1.2978
 5643SOL     OW27857   4.904   9.322   2.576 -0.0284 -0.4143  0.3683
 5643SOL    HW127858   4.838   9.256   2.541  0.7740 -1.3165  0.5198
 5643SOL    HW227859   4.992   9.276   2.590  0.5407  0.6922  0.4703
 5644SOL     OW27860   1.020   9.042   1.109 -0.8096  0.2196  0.5374
 5644SOL    HW127861   0.981   8.953   1.087 -0.3236 -0.5091  2.4918
 5644SOL    HW227862   0.976   9.113   1.055  0.7661 -1.5082 -3.1971
 5645SOL     OW27863   0.942   5.741   4.484 -0.3105  0.2581 -0.2716
 5645SOL    HW127864   1.018   5.804   4.471  1.7905 -2.0144  0.6449
 5645SOL    HW227865   0.938   5.676   4.408 -0.3861 -0.5688  0.4264
 5646SOL     OW27866   3.921   2.973   0.487 -0.1998 -0.3762 -0.3517
 5646SOL    HW127867   3.927   2.895   0.550 -0.3563  0.3853  0.6114
 5646SOL    HW227868   3.993   3.039   0.508  1.2294 -1.1965 -2.4835
 5647SOL     OW27869   7.437   0.344   5.514 -0.1200 -0.1906  0.4201
 5647SOL    HW127870   7.413   0.360   5.610  0.6213 -1.2309  0.7926
 5647SOL    HW227871   7.473   0.429   5.474 -0.0519  0.1399  1.1755
 5648SOL     OW27872   0.174   5.096   5.157  0.2455 -0.0500  0.1742
 5648SOL    HW127873   0.267   5.127   5.137  0.0417 -0.4089 -1.3907
 5648SOL    HW227874   0.114   5.120   5.082 -0.8500 -0.2156  0.9856
 5649SOL     OW27875   7.058   6.981   4.168  0.0007 -0.6260 -0.0217
 5649SOL    HW127876   6.993   7.043   4.212  1.4889  0.0489  1.3026
 5649SOL    HW227877   7.063   7.000   4.070 -1.1663 -0.1352  0.0113
 5650SOL     OW27878   3.232   6.719   1.692  0.7499 -0.0777 -0.3079
 5650SOL    HW127879   3.327   6.729   1.723  0.7695 -1.9798  0.2751
 5650SOL    HW227880   3.230   6.669   1.606  0.2274 -0.5454 -0.0237
 5651SOL     OW27881   4.925   9.920   1.291  0.1947 -0.3140  0.8547
 5651SOL    HW127882   5.002   9.977   1.264  0.8198 -0.8903  1.3760
 5651SOL    HW227883   4.902   9.938   1.387 -0.9040  0.5081  0.4358
 5652SOL     OW27884   6.667   9.917   2.608 -0.2154  0.1487 -0.5091
 5652SOL    HW127885   6.702   9.826   2.584  0.1390  0.1477 -0.0066
 5652SOL    HW227886   6.570   9.922   2.584 -0.1462 -0.2389 -0.8808
 5653SOL     OW27887   2.720   4.001   4.372  0.4885 -0.0163 -0.0568
 5653SOL    HW127888   2.802   3.989   4.315 -0.0247  1.2375 -1.0835
 5653SOL    HW227889   2.639   3.978   4.319  0.0321  0.7521  0.2946
 5654SOL     OW27890   9.194   8.823   1.572  0.1553 -0.1059 -0.2554
 5654SOL    HW127891   9.098   8.842   1.554 -0.2560 -2.1261 -0.3100
 5654SOL    HW227892   9.227   8.883   1.645 -2.2002 -2.0362  2.4514
 5655SOL     OW27893   3.140   4.717   0.181  0.1724  0.1208 -0.3794
 5655SOL    HW127894   3.196   4.725   0.264  0.6559  0.6967 -0.7575
 5655SOL    HW227895   3.163   4.792   0.119 -0.3363 -0.1979 -0.9471
 5656SOL     OW27896   2.739   4.195   3.210 -0.2446  0.4258 -0.2795
 5656SOL    HW127897   2.814   4.136   3.239 -1.9783 -1.4068  0.6209
 5656SOL    HW227898   2.673   4.141   3.158 -1.6940  1.6480  0.2531
 5657SOL     OW27899   9.059   6.947   4.593 -0.1940 -0.4174 -0.4035
 5657SOL    HW127900   8.972   6.993   4.609 -0.4648 -0.3147 -2.0078
 5657SOL    HW227901   9.043   6.849   4.583  0.0456 -0.5522  0.5073
 5658SOL     OW27902   2.815   9.638   1.556  0.3322  0.5565 -0.0953
 5658SOL    HW127903   2.717   9.654   1.543  0.4586 -0.7773 -3.2050
 5658SOL    HW227904   2.833   9.540   1.562  1.5712  0.7547 -0.3709
 5659SOL     OW27905   0.776   5.633   2.941  0.0648 -0.0554  0.0557
 5659SOL    HW127906   0.866   5.640   2.900  0.1266 -3.1090 -0.4300
 5659SOL    HW227907   0.715   5.581   2.881 -1.6263  0.7587  1.0149
 5660SOL     OW27908   7.532   1.246   2.971 -0.7092  0.6393  0.1486
 5660SOL    HW127909   7.535   1.294   2.883  2.2580 -1.0986 -0.7831
 5660SOL    HW227910   7.540   1.312   3.045  0.3116  1.8520 -1.0111
 5661SOL     OW27911   0.373   1.383   1.085 -0.2805 -0.1300 -0.1132
 5661SOL    HW127912   0.407   1.474   1.060 -0.2926 -0.0544  0.1450
 5661SOL    HW227913   0.296   1.359   1.026  3.0707 -2.2587 -3.9002
 5662SOL     OW27914   5.648   1.849   0.762 -0.3325  0.1451 -0.6036
 5662SOL    HW127915   5.694   1.824   0.677  0.1192 -2.2882  0.2966
 5662SOL    HW227916   5.709   1.830   0.839 -0.7388  2.2932  0.2688
 5663SOL     OW27917   8.091   1.526   5.403 -0.4065 -0.5342  0.1912
 5663SOL    HW127918   8.172   1.575   5.436 -0.6761  0.3377 -0.4348
 5663SOL    HW227919   8.112   1.484   5.315 -1.3972  1.7863 -1.1729
 5664SOL     OW27920   7.930   1.513   1.322 -0.7697 -0.1259 -0.1369
 5664SOL    HW127921   7.923   1.612   1.329 -1.7233 -0.2209  0.3182
 5664SOL    HW227922   7.899   1.484   1.231  0.5123  0.0836 -0.6425
 5665SOL     OW27923   1.745   5.920   4.070  0.7028 -0.5924 -0.4632
 5665SOL    HW127924   1.650   5.936   4.094 -0.1093 -1.0218 -3.1712
 5665SOL    HW227925   1.777   5.994   4.009  1.5363 -1.3639 -0.9795
 5666SOL     OW27926   1.761   1.992   1.693 -0.0445 -0.5952  0.5730
 5666SOL    HW127927   1.733   2.054   1.766  1.5906  0.4420  0.3382
 5666SOL    HW227928   1.688   1.986   1.625  0.1229  1.8343  0.1220
 5667SOL     OW27929   5.248   7.590   2.590  0.3900  0.3901  0.0104
 5667SOL    HW127930   5.187   7.642   2.530  1.0409  1.6486  0.4105
 5667SOL    HW227931   5.323   7.649   2.619 -0.2568 -0.0216  2.5780
 5668SOL     OW27932   1.144   9.081   1.346 -0.1071 -0.0674 -0.7529
 5668SOL    HW127933   1.097   9.105   1.261  0.5125  0.0053 -1.0777
 5668SOL    HW227934   1.201   9.000   1.331 -0.4729 -0.4184 -0.2469
 5669SOL     OW27935   6.315   0.016   4.580  0.5838  0.4278 -0.0246
 5669SOL    HW127936   6.273   0.023   4.489  2.1772  0.4058 -0.7833
 5669SOL    HW227937   6.244   0.018   4.650 -0.6662  0.4573 -1.2738
 5670SOL     OW27938   3.109   1.248   2.984  0.5044 -0.0652 -0.0675
 5670SOL    HW127939   3.160   1.175   3.028  1.1412  0.4424  0.0370
 5670SOL    HW227940   3.140   1.258   2.889  2.1180  1.6659  0.6185
 5671SOL     OW27941   1.896   5.473   6.068 -0.0915 -0.0904 -0.6346
 5671SOL    HW127942   1.849   5.557   6.096  1.0154 -0.4182  2.3509
 5671SOL    HW227943   1.842   5.394   6.095 -0.8105 -0.3972 -2.8567
 5672SOL     OW27944   9.373   7.211   0.166  0.2261 -0.0504 -0.1260
 5672SOL    HW127945   9.311   7.198   0.244  1.5627 -0.5096  0.9050
 5672SOL    HW227946   9.458   7.160   0.184  0.2432 -0.8041 -2.2516
 5673SOL     OW27947   3.248   8.563   1.958 -0.2065  0.2319  0.0369
 5673SOL    HW127948   3.309   8.490   1.990 -0.1133 -1.0873 -2.9517
 5673SOL    HW227949   3.293   8.613   1.883 -1.3943  1.5388  0.1809
 5674SOL     OW27950   4.135   1.060   2.181  0.2115 -0.4326 -0.0477
 5674SOL    HW127951   4.131   1.068   2.082  0.0926  2.0366  0.1205
 5674SOL    HW227952   4.227   1.034   2.209  0.6370  0.3131 -0.7297
 5675SOL     OW27953   9.778   3.129   3.498  0.0937  0.5204  0.4067
 5675SOL    HW127954   9.764   3.222   3.534 -0.6976  0.5181  0.1184
 5675SOL    HW227955   9.710   3.111   3.427 -1.5663 -1.2671  2.3802
 5676SOL     OW27956   4.320   1.345   0.823 -0.1970 -0.4124  0.3947
 5676SOL    HW127957   4.384   1.393   0.763 -1.1411  1.1017  0.5829
 5676SOL    HW227958   4.340   1.247   0.821  2.0520  0.0190  0.3528
 5677SOL     OW27959   3.135   7.301   1.828  0.1475 -0.2248 -0.0409
 5677SOL    HW127960   3.049   7.344   1.855 -0.7975 -2.1170  0.0567
 5677SOL    HW227961   3.116   7.222   1.770  1.7937 -0.8441  0.2310
 5678SOL     OW27962   5.064   8.117   1.926 -0.4225 -0.1061  0.1318
 5678SOL    HW127963   5.106   8.094   2.014  0.0608  0.1235 -0.0367
 5678SOL    HW227964   5.006   8.197   1.937  2.0855  1.8594 -0.3997
 5679SOL     OW27965   3.746   6.031   0.274  0.0871 -0.0258  0.5293
 5679SOL    HW127966   3.667   5.972   0.259 -2.5349  3.4001  0.3793
 5679SOL    HW227967   3.806   6.027   0.194 -0.2163 -2.1494  0.3694
 5680SOL     OW27968   5.745   7.428   2.752  0.1514  0.0608  1.1325
 5680SOL    HW127969   5.709   7.336   2.737  1.0530 -0.2472  0.8786
 5680SOL    HW227970   5.708   7.490   2.682  1.9349 -0.7369 -0.5449
 5681SOL     OW27971   8.010   0.033   3.836 -0.0307  0.9265 -0.3139
 5681SOL    HW127972   8.095  -0.011   3.808  0.3287  0.8715  0.8311
 5681SOL    HW227973   8.024   0.082   3.922 -0.7903  2.1168 -0.8474
 5682SOL     OW27974   7.893   8.315   4.163 -0.6041  0.0334  0.2354
 5682SOL    HW127975   7.952   8.275   4.233  0.4318  2.4814  0.8093
 5682SOL    HW227976   7.813   8.357   4.207  0.1800  1.8060 -0.0116
 5683SOL     OW27977   2.183   6.802   4.600  0.0398  0.6745  0.0573
 5683SOL    HW127978   2.083   6.803   4.604 -0.0102 -0.3572 -0.7138
 5683SOL    HW227979   2.218   6.732   4.663  0.3605  2.2619  1.6652
 5684SOL     OW27980   4.867   2.655   4.077  0.3844  0.1807  0.0028
 5684SOL    HW127981   4.873   2.563   4.039  0.5504  1.0171 -2.0442
 5684SOL    HW227982   4.843   2.720   4.005  1.1040  1.8685  1.2390
 5685SOL     OW27983   0.329   1.185   1.588 -0.4857 -0.2186 -0.6189
 5685SOL    HW127984   0.274   1.235   1.521  0.3482  2.2779  0.4617
 5685SOL    HW227985   0.426   1.204   1.572 -0.2304 -0.3871  0.6540
 5686SOL     OW27986   7.323   9.566   5.773  0.2974 -0.2861 -0.4171
 5686SOL    HW127987   7.255   9.637   5.792  0.5681 -0.3569  0.8708
 5686SOL    HW227988   7.290   9.507   5.699 -1.3491 -0.7377  0.6566
 5687SOL     OW27989   9.334   7.345   1.092  0.0716 -0.1662  0.5812
 5687SOL    HW127990   9.329   7.252   1.129  1.1708 -1.1933 -1.6994
 5687SOL    HW227991   9.247   7.368   1.049  0.9846 -1.7554 -2.3279
 5688SOL     OW27992   1.075   7.754   5.599  0.1897  0.0587  0.0800
 5688SOL    HW127993   1.119   7.750   5.509 -1.2679 -0.9776 -0.6075
 5688SOL    HW227994   1.103   7.674   5.653 -0.0222 -0.0492  0.0305
 5689SOL     OW27995   9.001   2.767   0.475 -0.5639  0.0260  0.7379
 5689SOL    HW127996   9.084   2.712   0.489  0.5513  1.7949  1.3321
 5689SOL    HW227997   8.920   2.709   0.484  0.5751 -1.4604  1.5888
 5690SOL     OW27998   6.093   1.382   3.440  0.2538 -0.8698 -0.1275
 5690SOL    HW127999   6.121   1.324   3.365 -1.0152 -0.7203 -0.7425
 5690SOL    HW228000   6.001   1.418   3.422  1.0207  1.3414  0.2175
 5691SOL     OW28001   4.737   0.576   4.668  0.3355 -0.4500 -0.0481
 5691SOL    HW128002   4.670   0.502   4.657  0.7328 -0.7144 -0.7436
 5691SOL    HW228003   4.690   0.663   4.675 -0.1672 -0.8117  1.2520
 5692SOL     OW28004   8.007   9.823   2.383  0.1905 -1.0629  0.6158
 5692SOL    HW128005   7.936   9.767   2.341 -0.5443  1.1960 -1.2914
 5692SOL    HW228006   7.965   9.887   2.448  0.2504  1.0910 -1.3857
 5693SOL     OW28007   7.810   1.491   0.139  0.4851  0.2759 -0.2206
 5693SOL    HW128008   7.723   1.481   0.188  1.2225 -0.4627  0.9308
 5693SOL    HW228009   7.886   1.490   0.203  1.4340 -0.2174 -1.3261
 5694SOL     OW28010   0.542   1.371   3.892 -0.4794  0.7139  0.3510
 5694SOL    HW128011   0.531   1.307   3.816  0.2373  1.0218 -0.0113
 5694SOL    HW228012   0.631   1.415   3.887 -0.3193  0.5421  1.5305
 5695SOL     OW28013   7.485   9.866   5.448 -0.0049  0.5497  0.2421
 5695SOL    HW128014   7.453   9.794   5.387  0.9617 -0.4712  0.9298
 5695SOL    HW228015   7.457   9.955   5.412  0.1450 -0.0728 -1.4382
 5696SOL     OW28016   8.370   9.908   4.749  0.5874  0.4683 -0.0299
 5696SOL    HW128017   8.349  10.004   4.768 -0.4670 -0.0159  1.3661
 5696SOL    HW228018   8.302   9.871   4.686 -1.0169 -0.2596  2.0761
 5697SOL     OW28019   2.329   8.922   2.237 -0.0760 -0.0822 -0.0305
 5697SOL    HW128020   2.237   8.931   2.274 -0.4188  1.9746 -1.3204
 5697SOL    HW228021   2.370   9.012   2.226  1.9427 -0.9446  0.0889
 5698SOL     OW28022   7.903   3.085   0.640  0.1529 -0.3826  0.2292
 5698SOL    HW128023   7.950   3.059   0.724  0.7548 -1.4784 -0.4345
 5698SOL    HW228024   7.915   3.013   0.571  1.6912  1.5436 -1.5953
 5699SOL     OW28025   1.047   6.796   5.475 -0.1529 -0.0698 -0.0009
 5699SOL    HW128026   1.090   6.771   5.561  0.1973  0.4456 -0.0260
 5699SOL    HW228027   1.112   6.784   5.400 -0.1923  0.2911 -0.0920
 5700SOL     OW28028   9.987   8.826   1.179  0.9590  0.2824  0.1171
 5700SOL    HW128029  10.012   8.775   1.262 -0.0396  0.9026  0.8007
 5700SOL    HW228030  10.033   8.914   1.179 -0.3935  0.9985  0.8674
 5701SOL     OW28031   3.765   4.444   0.301  0.7187 -0.2740 -0.6217
 5701SOL    HW128032   3.759   4.447   0.201 -0.7757 -0.2853 -0.5368
 5701SOL    HW228033   3.722   4.525   0.339  0.6805 -0.6048  0.0387
 5702SOL     OW28034   2.351   8.947   1.175  0.2766 -0.1587 -0.0319
 5702SOL    HW128035   2.308   8.982   1.092  0.8285  1.3846  0.3101
 5702SOL    HW228036   2.449   8.967   1.172  0.2611  0.1076  1.0942
 5703SOL     OW28037   2.480   8.119   4.448 -0.1549 -0.0853 -0.1594
 5703SOL    HW128038   2.481   8.205   4.398  0.8403  1.6126  2.6447
 5703SOL    HW228039   2.573   8.082   4.453 -0.5213 -1.1630 -1.0304
 5704SOL     OW28040   9.977   4.023   6.563  0.2534  0.6542  0.1500
 5704SOL    HW128041   9.989   3.947   6.627 -3.0446 -0.0614 -0.0069
 5704SOL    HW228042  10.004   3.994   6.472 -0.8147 -0.3149  0.1283
 5705SOL     OW28043   4.989   4.224   2.935 -0.3066 -0.3749  0.1681
 5705SOL    HW128044   4.916   4.289   2.914  0.2455  0.4171  0.6757
 5705SOL    HW228045   5.022   4.182   2.850  0.4309  1.1992 -0.3475
 5706SOL     OW28046   7.385   0.115   4.028  0.5260  0.4075  0.1531
 5706SOL    HW128047   7.466   0.160   3.990 -0.7151  1.5910 -1.1306
 5706SOL    HW228048   7.358   0.040   3.968  0.3837  0.3196  0.3278
 5707SOL     OW28049   9.517   0.896   4.197 -0.0457  0.2889 -0.2774
 5707SOL    HW128050   9.478   0.807   4.177  0.9234  0.0875 -1.2804
 5707SOL    HW228051   9.452   0.968   4.170 -1.7102 -0.1143  2.4275
 5708SOL     OW28052   4.856   2.138   1.110  0.5706  0.1507 -0.2691
 5708SOL    HW128053   4.880   2.129   1.013 -0.0028 -1.6902 -0.2398
 5708SOL    HW228054   4.771   2.090   1.129 -0.6543  2.5554  0.6675
 5709SOL     OW28055   8.558   6.642   0.327  0.3680 -0.1081  0.2907
 5709SOL    HW128056   8.493   6.691   0.385 -0.6359 -1.9870  0.7989
 5709SOL    HW228057   8.515   6.559   0.292  1.4796  0.2070 -1.9028
 5710SOL     OW28058   1.455   3.372   0.980  0.0302  0.5463 -0.2845
 5710SOL    HW128059   1.487   3.385   0.886 -0.4969  0.4123 -0.4828
 5710SOL    HW228060   1.441   3.275   0.997  2.6123  0.3225  0.7533
 5711SOL     OW28061   3.998   8.154   2.879  0.2677 -0.1025  0.1678
 5711SOL    HW128062   4.090   8.136   2.842 -0.0080 -0.0352 -0.5565
 5711SOL    HW228063   3.929   8.131   2.810 -0.3621 -1.9610  1.3744
 5712SOL     OW28064   3.160   0.013   1.518 -0.0788  0.2036 -0.1047
 5712SOL    HW128065   3.079  -0.040   1.545 -0.0511  0.3340  0.2414
 5712SOL    HW228066   3.160   0.100   1.567 -0.1350  0.5361 -0.6824
 5713SOL     OW28067   1.125   9.709   1.396 -0.0784  0.2892  0.0050
 5713SOL    HW128068   1.126   9.801   1.436 -0.2937  0.4318 -0.3092
 5713SOL    HW228069   1.038   9.694   1.350  0.5600  0.5380 -1.3276
 5714SOL     OW28070   3.715   4.653   1.661  0.3315  0.4396  0.3103
 5714SOL    HW128071   3.808   4.677   1.689  0.1802 -1.4969  2.6181
 5714SOL    HW228072   3.673   4.596   1.732 -1.2003 -2.0046 -2.4563
 5715SOL     OW28073   2.574   0.017   4.434 -0.5267 -0.0380  0.1294
 5715SOL    HW128074   2.618   0.083   4.495  1.8324 -1.0345 -0.4477
 5715SOL    HW228075   2.584  -0.075   4.470 -0.8817 -0.4330 -0.7579
 5716SOL     OW28076   5.282   7.223   4.470  0.2702  0.1543 -0.4251
 5716SOL    HW128077   5.214   7.202   4.539  1.3455 -0.4702  0.4617
 5716SOL    HW228078   5.270   7.318   4.439 -0.7471  0.1655 -0.0151
 5717SOL     OW28079   2.917   4.324   6.278 -0.3023 -0.0722 -0.2981
 5717SOL    HW128080   2.932   4.270   6.196 -0.7457  0.2501 -0.5946
 5717SOL    HW228081   2.826   4.304   6.315 -0.0045 -0.4024  0.2549
 5718SOL     OW28082   9.904   7.229   4.639 -0.3644  0.0022  0.0079
 5718SOL    HW128083   9.884   7.287   4.560 -0.5937 -0.3062 -0.1596
 5718SOL    HW228084   9.891   7.133   4.615  0.8131 -0.1791  0.0402
 5719SOL     OW28085   4.520   1.185   1.000 -0.8592 -0.4215  0.6749
 5719SOL    HW128086   4.453   1.137   0.944  0.3539  0.0508 -1.2586
 5719SOL    HW228087   4.611   1.171   0.962 -0.0945  0.6083  2.0626
 5720SOL     OW28088   7.227   9.110   1.842 -0.7463  0.2046  0.3702
 5720SOL    HW128089   7.310   9.054   1.848 -0.1922  0.8534 -0.8907
 5720SOL    HW228090   7.209   9.153   1.930  0.4324  0.2810  0.5844
 5721SOL     OW28091   0.418   2.706   6.422 -0.1906 -0.4879 -0.0290
 5721SOL    HW128092   0.426   2.709   6.322 -1.4582  0.2098 -0.1206
 5721SOL    HW228093   0.399   2.798   6.456 -0.3221 -0.8288  0.8140
 5722SOL     OW28094   0.673   7.383   1.917 -0.3566 -0.1814 -0.4242
 5722SOL    HW128095   0.616   7.316   1.965 -1.0898  0.4848 -0.3490
 5722SOL    HW228096   0.631   7.406   1.829  0.0530 -0.0507 -0.5899
 5723SOL     OW28097   8.831   1.217   0.390  0.2141  0.1196  0.1666
 5723SOL    HW128098   8.743   1.263   0.400 -0.2085 -0.6978  0.2367
 5723SOL    HW228099   8.905   1.285   0.394 -0.4019  0.7871  0.2503
 5724SOL     OW28100   7.817   9.446   2.837 -0.1127  0.2583 -0.2749
 5724SOL    HW128101   7.828   9.425   2.739 -1.9419  0.6177 -0.5695
 5724SOL    HW228102   7.869   9.380   2.891 -2.1581 -2.2973 -1.3397
 5725SOL     OW28103   4.637   6.581   2.696 -0.0025  0.2666 -0.0398
 5725SOL    HW128104   4.562   6.643   2.719  0.5352  0.0111  2.5273
 5725SOL    HW228105   4.711   6.633   2.654 -0.3225  1.0387  0.3329
 5726SOL     OW28106   8.280   9.389   4.979 -0.2326 -0.3004  0.0710
 5726SOL    HW128107   8.254   9.470   5.031 -1.7232 -1.3497  1.0410
 5726SOL    HW228108   8.212   9.372   4.907 -0.7154 -1.4391  0.7656
 5727SOL     OW28109   0.078   6.104   2.391  0.2277  0.5037 -0.2634
 5727SOL    HW128110   0.148   6.159   2.347  0.4731 -0.4485 -1.0791
 5727SOL    HW228111   0.052   6.146   2.478  1.4407  1.1230 -0.1945
 5728SOL     OW28112   5.105   7.187   4.705  1.0313 -0.9150  0.3213
 5728SOL    HW128113   5.105   7.284   4.682  0.3078 -0.8997  0.3731
 5728SOL    HW228114   5.093   7.176   4.804  1.1439 -1.0504  0.3199
 5729SOL     OW28115   2.439   0.562   4.448 -0.5586 -0.0404  0.0683
 5729SOL    HW128116   2.419   0.502   4.525  1.7067 -0.7837  0.1125
 5729SOL    HW228117   2.453   0.508   4.366  2.0173  0.3313  0.2166
 5730SOL     OW28118   8.983   3.707   4.737  0.5665 -0.1123 -0.1823
 5730SOL    HW128119   8.940   3.618   4.749 -0.6981 -0.0715 -3.9613
 5730SOL    HW228120   8.917   3.779   4.760  0.9331 -0.1153  0.8951
 5731SOL     OW28121   8.271   5.462   2.945 -0.2266 -0.0516 -0.0361
 5731SOL    HW128122   8.235   5.554   2.925 -0.5503 -0.2711 -0.4678
 5731SOL    HW228123   8.241   5.435   3.037 -1.0343 -0.1672 -0.3306
 5732SOL     OW28124   8.397   4.537   1.797 -0.1427 -0.2067 -0.2345
 5732SOL    HW128125   8.355   4.518   1.886 -1.4160 -1.1350 -1.0208
 5732SOL    HW228126   8.333   4.514   1.724  0.3513  1.9223 -1.3806
 5733SOL     OW28127   0.260   5.178   4.408 -0.7310 -0.0596  0.1256
 5733SOL    HW128128   0.340   5.118   4.405 -0.8137 -0.3152  2.2564
 5733SOL    HW228129   0.221   5.177   4.501 -2.2023  1.3663 -0.4573
 5734SOL     OW28130   2.750   3.166   3.980 -0.1029  0.4543 -1.2633
 5734SOL    HW128131   2.847   3.182   3.997 -0.1425  0.4882 -1.0695
 5734SOL    HW228132   2.733   3.068   3.976 -0.1095  0.4444 -1.0124
 5735SOL     OW28133   8.865   7.202   1.169  0.2152 -0.1000  0.5196
 5735SOL    HW128134   8.918   7.251   1.238 -0.9178 -0.8840  1.9824
 5735SOL    HW228135   8.896   7.228   1.078  1.0994  1.6609  1.3042
 5736SOL     OW28136   4.655   8.795   2.739  0.4421 -0.0089  0.1327
 5736SOL    HW128137   4.749   8.762   2.735  1.0653  1.8758 -1.5775
 5736SOL    HW228138   4.622   8.816   2.647 -1.1464  0.7562  0.8357
 5737SOL     OW28139   1.291   9.054   2.553 -0.6732 -0.1478  0.2331
 5737SOL    HW128140   1.211   8.997   2.574  0.8055 -1.5609  2.2197
 5737SOL    HW228141   1.358   9.000   2.503  0.1777  0.2153  0.9683
 5738SOL     OW28142   7.668   7.253   3.792 -0.5742 -0.4865 -0.1072
 5738SOL    HW128143   7.649   7.351   3.801  0.4944 -0.2481 -0.3956
 5738SOL    HW228144   7.679   7.231   3.695  0.4151 -0.6480  0.0361
 5739SOL     OW28145   2.391   3.078   4.901 -0.5264  0.3387 -0.0632
 5739SOL    HW128146   2.297   3.090   4.932 -1.0592 -0.7903 -1.2241
 5739SOL    HW228147   2.392   3.051   4.805  0.8985 -1.4590  0.4203
 5740SOL     OW28148   1.298   4.309   0.751  0.2933  0.3520 -0.0945
 5740SOL    HW128149   1.321   4.319   0.654  1.6263 -0.5010  0.1234
 5740SOL    HW228150   1.283   4.399   0.791  0.3203  0.7424 -0.9499
 5741SOL     OW28151   1.040   7.081   0.410 -0.5856  0.0165  0.3287
 5741SOL    HW128152   1.082   7.018   0.345 -0.8788 -0.4958  0.6340
 5741SOL    HW228153   1.033   7.036   0.499  0.4324  0.9343  0.8923
 5742SOL     OW28154   9.602   0.811   0.888 -0.3838  0.5785  0.3128
 5742SOL    HW128155   9.543   0.821   0.807 -0.4671  0.8770  0.4090
 5742SOL    HW228156   9.546   0.810   0.970 -0.3826 -0.8329  0.3032
 5743SOL     OW28157   3.854   5.463   5.067 -0.4076 -0.1296 -0.0920
 5743SOL    HW128158   3.759   5.445   5.093 -0.2266 -1.0885 -0.0585
 5743SOL    HW228159   3.906   5.378   5.071  0.2859  0.2509 -0.8313
 5744SOL     OW28160   0.445   0.622   3.322  0.0889 -0.1435  0.8828
 5744SOL    HW128161   0.406   0.700   3.372 -0.4226  0.2525 -0.1146
 5744SOL    HW228162   0.410   0.537   3.360  0.7442  0.1130  2.0627
 5745SOL     OW28163   2.797   2.526   1.604  0.0874  0.0964  0.2948
 5745SOL    HW128164   2.716   2.499   1.657 -0.5086  1.0866 -0.0950
 5745SOL    HW228165   2.866   2.454   1.610 -1.1083 -1.0972  0.0251
 5746SOL     OW28166   0.040   4.706   0.993  0.1544 -0.3432  0.7412
 5746SOL    HW128167  -0.023   4.669   0.926 -0.0970  1.2601  0.0512
 5746SOL    HW228168   0.002   4.697   1.085 -0.0008 -1.5294  0.5609
 5747SOL     OW28169   7.495   1.601   5.718 -0.3409 -0.4026 -0.1808
 5747SOL    HW128170   7.520   1.610   5.621  1.4703  0.4551  0.3496
 5747SOL    HW228171   7.576   1.578   5.771 -1.2899 -0.6706  1.1765
 5748SOL     OW28172   2.592   1.424   2.484 -0.4220  0.4317 -0.8004
 5748SOL    HW128173   2.502   1.467   2.494  0.1168  1.4240 -0.0446
 5748SOL    HW228174   2.588   1.330   2.516 -1.7185 -0.2406 -2.8129
 5749SOL     OW28175   3.083   6.703   5.669 -0.0842  0.6292 -0.1510
 5749SOL    HW128176   3.057   6.789   5.625 -0.2406  0.5969 -0.1229
 5749SOL    HW228177   3.182   6.702   5.684  0.3510 -0.4503 -2.8301
 5750SOL     OW28178   4.262   8.693   2.105  0.4648 -0.0304 -0.0189
 5750SOL    HW128179   4.361   8.693   2.089  0.3907  0.3011 -0.4924
 5750SOL    HW228180   4.225   8.602   2.087  0.8098 -0.3684  0.9618
 5751SOL     OW28181   0.058   4.963   3.770  0.4816 -0.3451 -0.2240
 5751SOL    HW128182   0.129   5.031   3.783  0.0417  0.0968 -0.1184
 5751SOL    HW228183   0.041   4.916   3.856  1.7747 -1.5729 -0.6215
 5752SOL     OW28184   0.455   9.891   0.588 -0.0370  0.3117 -0.5330
 5752SOL    HW128185   0.372   9.929   0.628  1.3002  1.0835  1.5677
 5752SOL    HW228186   0.446   9.792   0.581 -0.4086  0.1875  1.4617
 5753SOL     OW28187   9.060   3.412   3.987  0.1368  0.4567 -0.4040
 5753SOL    HW128188   9.158   3.400   4.006  0.3059  1.0276 -0.8797
 5753SOL    HW228189   9.024   3.329   3.943 -0.3873 -1.0885  2.8469
 5754SOL     OW28190   3.850   5.421   1.907  0.3235  0.5327 -0.0848
 5754SOL    HW128191   3.882   5.414   2.001  2.1476  0.9501 -0.6572
 5754SOL    HW228192   3.878   5.340   1.856 -0.6379  0.3190 -0.2754
 5755SOL     OW28193   7.526   1.054   4.687 -0.1704 -0.3950 -0.1284
 5755SOL    HW128194   7.470   0.987   4.735 -1.2085  0.6087  0.0906
 5755SOL    HW228195   7.477   1.142   4.684  0.9164  0.1906 -0.9113
 5756SOL     OW28196   9.846   5.163   4.501  0.0318  0.3171  0.5237
 5756SOL    HW128197   9.891   5.230   4.441  1.5096  0.0214  1.2683
 5756SOL    HW228198   9.750   5.187   4.512  0.1315  1.3004 -0.6571
 5757SOL     OW28199   2.886   8.922   1.568 -0.0761  0.2733  0.2998
 5757SOL    HW128200   2.880   8.980   1.650  0.0058 -0.8122  1.0848
 5757SOL    HW228201   2.947   8.964   1.501  1.9862 -0.1344  1.8864
 5758SOL     OW28202   4.287   2.895   1.622  0.8758  0.4525 -0.0428
 5758SOL    HW128203   4.376   2.852   1.632  0.5140 -0.2857  0.0781
 5758SOL    HW228204   4.222   2.829   1.584  0.2013  0.7483  0.5629
 5759SOL     OW28205   8.564   2.530   1.791 -0.3035  0.0173 -0.2261
 5759SOL    HW128206   8.470   2.516   1.820 -0.2958 -0.9678 -0.6677
 5759SOL    HW228207   8.567   2.601   1.721 -0.9204 -1.0230 -1.3321
 5760SOL     OW28208   0.211   7.584   1.455 -0.2661 -0.7282  0.0054
 5760SOL    HW128209   0.189   7.488   1.472 -0.4669 -0.1866  3.1553
 5760SOL    HW228210   0.246   7.626   1.539 -2.1968  2.4921 -0.6829
 5761SOL     OW28211   1.536   6.305   2.723 -0.6173  0.5330 -0.1363
 5761SOL    HW128212   1.480   6.236   2.677 -0.3105  0.2190 -0.0390
 5761SOL    HW228213   1.603   6.342   2.659 -0.4463  0.3762 -0.0468
 5762SOL     OW28214   1.144   1.929   2.605  0.2068 -0.0237  0.0105
 5762SOL    HW128215   1.154   1.984   2.688 -1.4113  0.2938  0.0140
 5762SOL    HW228216   1.221   1.947   2.544  0.6295  0.8826  0.7991
 5763SOL     OW28217   4.047   4.087   0.028 -0.0355  0.4732  0.3222
 5763SOL    HW128218   3.973   4.021   0.022  2.0322 -2.0506  1.6990
 5763SOL    HW228219   4.013   4.178   0.002 -3.3753 -0.7466  0.2219
 5764SOL     OW28220   8.853   4.449   4.676 -0.0234  0.2035  0.4772
 5764SOL    HW128221   8.856   4.407   4.586  2.2169  0.8087  0.2568
 5764SOL    HW228222   8.853   4.549   4.667  0.9070  0.2718  1.1550
 5765SOL     OW28223   7.835   9.350   2.575  0.3741  0.0757 -0.1064
 5765SOL    HW128224   7.793   9.260   2.587  0.4371  0.0988  0.3332
 5765SOL    HW228225   7.794   9.397   2.497  1.3005 -0.8887 -1.1930
 5766SOL     OW28226   7.091   8.068   2.733  0.1732  0.2183  0.1141
 5766SOL    HW128227   7.124   8.046   2.825 -1.6703  1.0328  0.9938
 5766SOL    HW228228   6.992   8.053   2.728  0.0448  1.3735 -1.3630
 5767SOL     OW28229   6.996   0.844   6.667  0.0971 -0.6647  0.2194
 5767SOL    HW128230   7.076   0.874   6.614 -2.4230  1.8332 -2.3529
 5767SOL    HW228231   6.942   0.781   6.611 -2.2329  1.4382  0.0382
 5768SOL     OW28232   7.388   1.399   5.207 -0.3893  0.2003 -0.3686
 5768SOL    HW128233   7.300   1.447   5.200 -0.9543 -0.8844 -0.8960
 5768SOL    HW228234   7.376   1.317   5.262  1.0742  1.7793  2.4562
 5769SOL     OW28235   5.822   9.483   3.232  0.3050 -0.6224 -0.2103
 5769SOL    HW128236   5.734   9.468   3.277  1.3957 -0.6427  2.0167
 5769SOL    HW228237   5.808   9.521   3.141 -2.0089 -1.0791 -0.0598
 5770SOL     OW28238   8.750   3.254   3.518 -1.0234  0.2594  0.1869
 5770SOL    HW128239   8.788   3.163   3.534 -0.0751  0.6913  0.3791
 5770SOL    HW228240   8.739   3.268   3.419 -2.2780 -0.5071  0.2004
 5771SOL     OW28241   2.401   5.166   3.522 -0.2053  0.5258 -0.2481
 5771SOL    HW128242   2.411   5.088   3.585 -0.4733 -0.1427 -1.0313
 5771SOL    HW228243   2.323   5.151   3.462  1.7635 -0.2101 -2.6938
 5772SOL     OW28244   3.360   5.705   5.484  0.4297 -0.4627  0.5335
 5772SOL    HW128245   3.355   5.781   5.548  0.6283 -0.0516  0.0624
 5772SOL    HW228246   3.455   5.683   5.465  0.3716 -0.5547  0.3475
 5773SOL     OW28247   6.688   0.620   5.242  0.8119 -0.2013  0.7754
 5773SOL    HW128248   6.763   0.566   5.206 -0.1039 -0.0381 -1.4473
 5773SOL    HW228249   6.707   0.717   5.230  0.0549 -0.1699 -0.2253
 5774SOL     OW28250   5.012   9.905   2.433 -0.3439 -0.0861  0.3272
 5774SOL    HW128251   5.036   9.900   2.530 -0.8479  0.2270  0.4730
 5774SOL    HW228252   4.944   9.977   2.419 -0.1283  0.0052 -0.2918
 5775SOL     OW28253   3.283   1.149   2.721  0.2363  0.1323  0.0520
 5775SOL    HW128254   3.319   1.226   2.669 -0.4114 -0.2748 -1.0151
 5775SOL    HW228255   3.199   1.117   2.679  2.1274 -3.1882 -1.4284
 5776SOL     OW28256   1.026   6.681   5.970 -0.6720 -0.2382  0.3882
 5776SOL    HW128257   1.035   6.582   5.962 -0.2362 -0.3045  1.6766
 5776SOL    HW228258   0.948   6.704   6.028  1.2220  0.1041  2.8803
 5777SOL     OW28259   7.157   8.859   2.959  0.0349 -0.4024  0.6055
 5777SOL    HW128260   7.135   8.904   3.045 -0.6252 -1.3871  0.9684
 5777SOL    HW228261   7.150   8.925   2.884 -1.6626 -0.0625  1.0351
 5778SOL     OW28262   0.516   0.191   1.144 -0.0965  0.2003  0.7585
 5778SOL    HW128263   0.538   0.215   1.239  0.5703  0.7438  0.4706
 5778SOL    HW228264   0.498   0.275   1.092 -0.1266 -0.0741  0.3249
 5779SOL     OW28265   0.486   5.938   4.900  0.0094  0.3592  0.2053
 5779SOL    HW128266   0.547   5.879   4.849  1.0081  0.7503  0.9343
 5779SOL    HW228267   0.397   5.893   4.911  1.1343 -1.5548  1.8145
 5780SOL     OW28268   1.114   6.927   3.643  0.7340 -0.1185  0.3318
 5780SOL    HW128269   1.062   6.936   3.558 -0.6071  1.0944  1.2659
 5780SOL    HW228270   1.207   6.896   3.622  0.2411 -0.3992 -1.5161
 5781SOL     OW28271   1.478   3.774   2.975 -0.1918 -0.9903 -0.1183
 5781SOL    HW128272   1.542   3.697   2.980 -0.2046 -0.9597  0.6819
 5781SOL    HW228273   1.500   3.839   3.049 -0.2375 -0.2772 -0.7280
 5782SOL     OW28274   3.963   5.157   2.665  0.1031  0.2529  0.2400
 5782SOL    HW128275   4.061   5.172   2.656 -0.0911  1.7999  0.5384
 5782SOL    HW228276   3.917   5.245   2.682 -1.4940 -0.2260 -1.3638
 5783SOL     OW28277   8.056   8.582   2.529  0.3617  0.2749  0.1222
 5783SOL    HW128278   8.114   8.661   2.505  1.8678 -1.2521 -1.4165
 5783SOL    HW228279   8.058   8.568   2.627  1.4904  1.1059  0.2367
 5784SOL     OW28280   9.505   7.320   5.462 -0.1175  0.1449 -0.1929
 5784SOL    HW128281   9.562   7.250   5.417 -0.7565 -0.1072 -0.6220
 5784SOL    HW228282   9.446   7.363   5.394  0.1111  0.9501  0.1166
 5785SOL     OW28283   5.586   8.827   3.308 -0.2915  0.1270 -0.5431
 5785SOL    HW128284   5.571   8.747   3.251  1.9962  0.6623 -1.9532
 5785SOL    HW228285   5.629   8.799   3.394  0.0110 -0.2265 -0.8070
 5786SOL     OW28286   0.599   5.829   4.673 -0.1088 -0.5071 -0.2590
 5786SOL    HW128287   0.596   5.735   4.641 -1.7622 -0.4601 -0.3100
 5786SOL    HW228288   0.547   5.887   4.611  0.7256  0.4066 -0.1132
 5787SOL     OW28289   7.572   7.581   3.350  0.0325 -0.2314 -0.7581
 5787SOL    HW128290   7.510   7.508   3.379 -0.8634  0.5918 -0.5634
 5787SOL    HW228291   7.632   7.605   3.426  0.2780 -0.7125 -0.7975
 5788SOL     OW28292   2.598   2.732   4.210  0.0353  0.9422  0.3363
 5788SOL    HW128293   2.693   2.724   4.240  0.8249  1.7776 -1.8876
 5788SOL    HW228294   2.575   2.654   4.153 -1.0026  0.1498  1.7940
 5789SOL     OW28295   1.488   6.166   4.621  0.3042 -0.7568  0.7740
 5789SOL    HW128296   1.469   6.086   4.564 -2.6904  1.4639 -1.4700
 5789SOL    HW228297   1.466   6.145   4.716 -0.4870 -2.5630  0.2118
 5790SOL     OW28298   4.934   4.879   2.177 -0.1657 -0.0541 -0.0041
 5790SOL    HW128299   4.956   4.784   2.197 -0.8084 -0.1795  0.0966
 5790SOL    HW228300   4.910   4.888   2.080 -0.4162 -0.0499  0.0587
 5791SOL     OW28301   0.917   5.718   0.193 -0.0914 -0.7472 -0.4959
 5791SOL    HW128302   0.989   5.787   0.194 -0.1696 -0.6214 -1.9653
 5791SOL    HW228303   0.866   5.721   0.278  0.7518  0.1110 -0.0155
 5792SOL     OW28304   1.673   8.153   0.580  0.4849 -0.3191  0.7247
 5792SOL    HW128305   1.717   8.219   0.519  0.4954  0.9228  2.0375
 5792SOL    HW228306   1.717   8.064   0.570  0.9709  0.0515 -0.5330
 5793SOL     OW28307   1.110   3.753   5.550  0.0712 -0.4868 -0.4078
 5793SOL    HW128308   1.127   3.851   5.545 -0.5561 -0.3518  0.0898
 5793SOL    HW228309   1.012   3.735   5.540 -0.0422 -0.9258  1.2755
 5794SOL     OW28310   4.694   9.605   1.755 -0.4035  0.5264  0.3089
 5794SOL    HW128311   4.642   9.634   1.835 -0.4912 -0.8595  0.7651
 5794SOL    HW228312   4.715   9.684   1.698 -0.9094  1.4262  1.3665
 5795SOL     OW28313   9.541   5.296   3.408 -0.0052  0.1372  0.1422
 5795SOL    HW128314   9.471   5.225   3.422  0.5172 -0.1983  1.1116
 5795SOL    HW228315   9.630   5.261   3.437  0.2553  1.2062  0.6593
 5796SOL     OW28316   3.748   3.536   1.818  0.7240  0.1747 -0.4264
 5796SOL    HW128317   3.653   3.518   1.793  0.3644  0.1155  0.9372
 5796SOL    HW228318   3.782   3.461   1.875  1.0454  1.0158  0.5081
 5797SOL     OW28319   9.823   6.967   4.180  0.3703 -0.0153  0.3693
 5797SOL    HW128320   9.888   7.043   4.172  1.0371 -0.5785  0.4351
 5797SOL    HW228321   9.870   6.886   4.214 -0.3245 -0.4945  0.2015
 5798SOL     OW28322   4.657   7.171   3.538  0.2707  0.1644  0.0767
 5798SOL    HW128323   4.682   7.265   3.515  0.8724  0.0758  0.3669
 5798SOL    HW228324   4.678   7.111   3.460 -1.2718  0.4618 -0.5749
 5799SOL     OW28325   7.663   2.509   1.933 -0.0567  0.3495 -0.0330
 5799SOL    HW128326   7.668   2.436   1.865 -0.9395 -0.3209  0.5987
 5799SOL    HW228327   7.604   2.480   2.008  0.8920  1.0785  1.0187
 5800SOL     OW28328   1.501   4.602   0.438  0.0510 -0.1774  0.2721
 5800SOL    HW128329   1.527   4.627   0.344  0.2701 -0.6767  0.1946
 5800SOL    HW228330   1.431   4.664   0.471  0.0248  0.0476 -0.2022
 5801SOL     OW28331   4.390   2.490   1.594 -0.1046 -0.0154 -0.4714
 5801SOL    HW128332   4.487   2.499   1.620 -0.8223  3.6792  1.2983
 5801SOL    HW228333   4.363   2.569   1.539 -2.5531 -0.1003  0.5468
 5802SOL     OW28334   2.399   9.425   1.996  0.1439  0.5385  0.1537
 5802SOL    HW128335   2.496   9.443   2.016  0.4066  0.4054 -0.9651
 5802SOL    HW228336   2.357   9.506   1.956 -0.1377  0.5046  0.3779
 5803SOL     OW28337   6.584   4.607   0.389 -0.2179  0.2008 -0.5828
 5803SOL    HW128338   6.635   4.530   0.427 -0.1612  0.3625 -0.3333
 5803SOL    HW228339   6.647   4.678   0.359 -0.2459 -0.0807 -1.3213
 5804SOL     OW28340   3.966   7.527   3.116 -0.5103 -0.7234 -0.0104
 5804SOL    HW128341   3.976   7.540   3.215  1.1014 -0.9248 -0.1315
 5804SOL    HW228342   3.984   7.432   3.093 -0.3181 -0.5576 -0.5583
 5805SOL     OW28343   2.099   0.725   2.269 -0.3941  0.0683  0.2189
 5805SOL    HW128344   2.101   0.751   2.365 -1.0181  2.0314 -0.2742
 5805SOL    HW228345   2.186   0.749   2.226 -0.0210 -1.0343  0.3231
 5806SOL     OW28346   7.344   0.987   1.697  0.1559  0.8197 -0.7572
 5806SOL    HW128347   7.377   0.913   1.638  0.8408  1.1046 -0.7341
 5806SOL    HW228348   7.368   1.075   1.656  0.7167  1.0206 -0.0095
 5807SOL     OW28349   8.079   3.691   4.909  0.0000  0.5952 -0.5579
 5807SOL    HW128350   8.058   3.740   4.825 -0.6192 -0.3393 -0.9631
 5807SOL    HW228351   8.006   3.707   4.976  0.7049  1.6844 -0.0320
 5808SOL     OW28352   1.671   7.307   4.336  0.2244  0.2177 -0.6413
 5808SOL    HW128353   1.690   7.337   4.243  0.5244  2.4395  0.1076
 5808SOL    HW228354   1.590   7.354   4.371  0.0602 -0.6632  0.1891
 5809SOL     OW28355   4.262   0.721   1.349  0.3026 -0.1569 -0.9262
 5809SOL    HW128356   4.171   0.729   1.309 -0.9560  1.3604  2.0344
 5809SOL    HW228357   4.322   0.792   1.310 -0.3820  0.1654 -1.4018
 5810SOL     OW28358   9.682   4.585   3.424  0.8858  0.5743  0.4859
 5810SOL    HW128359   9.630   4.576   3.339  0.7159  1.0360  0.5398
 5810SOL    HW228360   9.762   4.643   3.408  2.3913 -1.5710 -0.0468
 5811SOL     OW28361   9.479   8.104   4.570  0.0406 -1.2688  0.1716
 5811SOL    HW128362   9.512   8.189   4.529  1.4347 -0.9042  1.9978
 5811SOL    HW228363   9.555   8.041   4.582 -0.4868 -1.6804  1.4432
 5812SOL     OW28364   7.038   1.256   3.778  0.1305  0.3391 -0.2121
 5812SOL    HW128365   6.962   1.210   3.732  1.1428 -1.0010 -0.5937
 5812SOL    HW228366   7.091   1.308   3.711 -1.0806  2.1994  0.2393
 5813SOL     OW28367   8.914   5.091   3.179  0.1015  0.3798  0.0981
 5813SOL    HW128368   8.989   5.083   3.114 -0.0011  1.5757 -0.1720
 5813SOL    HW228369   8.828   5.070   3.134  0.2975 -1.4976  0.5290
 5814SOL     OW28370   1.408   4.219   1.053 -0.1269 -0.3340  0.3553
 5814SOL    HW128371   1.482   4.240   1.117  0.3235 -1.3968  0.2129
 5814SOL    HW228372   1.350   4.299   1.041 -0.3296 -0.1721  2.2329
 5815SOL     OW28373   1.701   3.581   5.942 -0.1068  0.4794 -0.2798
 5815SOL    HW128374   1.644   3.589   6.024 -0.7097  1.7996 -0.8034
 5815SOL    HW228375   1.654   3.524   5.874 -0.6382  1.2362 -0.5565
 5816SOL     OW28376   3.659   4.855   2.259  0.1599 -0.2906  0.7178
 5816SOL    HW128377   3.738   4.841   2.319  0.4956 -0.0053  0.3417
 5816SOL    HW228378   3.581   4.885   2.314  0.0464 -1.4953  1.2209
 5817SOL     OW28379   8.372   1.517   0.728 -0.1733 -0.4009 -0.3414
 5817SOL    HW128380   8.398   1.577   0.804 -0.0197 -0.7977 -0.0827
 5817SOL    HW228381   8.308   1.448   0.760 -1.7723  0.7147 -1.0262
 5818SOL     OW28382   2.038   9.909   4.497  0.2522  0.1068  0.2419
 5818SOL    HW128383   2.037  10.005   4.470  0.2291 -0.6394 -2.5201
 5818SOL    HW228384   1.944   9.873   4.496  0.1836  0.1858  1.8707
 5819SOL     OW28385   3.837   8.068   4.486  0.3416 -0.3125 -0.4028
 5819SOL    HW128386   3.762   8.067   4.552 -0.8842 -0.5277 -1.7758
 5819SOL    HW228387   3.829   8.147   4.426  1.0906 -0.4547 -0.7016
 5820SOL     OW28388   9.954   9.588   3.857  0.0072  0.7059 -0.1157
 5820SOL    HW128389  10.022   9.552   3.922 -0.2366  0.1132 -0.1893
 5820SOL    HW228390   9.993   9.590   3.765  0.6640  2.3892  0.1896
 5821SOL     OW28391   8.180   0.485   1.524  0.4471 -0.2057  0.0998
 5821SOL    HW128392   8.252   0.418   1.544  2.1014  1.4264 -0.1845
 5821SOL    HW228393   8.145   0.522   1.610  0.6983 -0.2693  0.2324
 5822SOL     OW28394   7.593   9.899   3.872 -0.7983  0.2203  0.3318
 5822SOL    HW128395   7.604   9.945   3.784  0.9427 -0.0943  0.3751
 5822SOL    HW228396   7.641   9.811   3.871  0.2746  0.7619  2.0030
 5823SOL     OW28397   8.475   5.189   4.204  0.2450  0.3042 -0.6064
 5823SOL    HW128398   8.557   5.143   4.236  1.6149  0.7098 -3.3808
 5823SOL    HW228399   8.496   5.285   4.184 -1.3496  0.8651  0.2960
 5824SOL     OW28400   5.511   3.779   1.338 -0.2500  0.7159  0.1862
 5824SOL    HW128401   5.490   3.733   1.252 -0.9763 -0.5086  1.0036
 5824SOL    HW228402   5.427   3.793   1.390  0.3897 -0.2314  1.5088
 5825SOL     OW28403   6.695   0.939   2.183  0.1655  0.5064  0.0185
 5825SOL    HW128404   6.724   1.035   2.188  0.5322  0.4258 -0.4161
 5825SOL    HW228405   6.629   0.920   2.254  0.0546  1.1005  0.0775
 5826SOL     OW28406   0.462   8.661   3.197 -0.2592  0.1866  0.0209
 5826SOL    HW128407   0.525   8.592   3.233  0.3393  0.1480 -1.0844
 5826SOL    HW228408   0.373   8.618   3.180 -0.7016  0.3102  1.8600
 5827SOL     OW28409   0.309   3.422   1.561  0.4468  0.0162  0.1085
 5827SOL    HW128410   0.389   3.482   1.567 -0.0281  0.7238 -0.5914
 5827SOL    HW228411   0.280   3.415   1.465 -0.2395 -0.3613  0.3416
 5828SOL     OW28412   3.985   4.569   1.738 -0.4034 -0.3432 -0.3149
 5828SOL    HW128413   3.976   4.623   1.822  1.5002 -0.6982  0.1632
 5828SOL    HW228414   3.936   4.482   1.749 -1.4058  0.2346 -0.1512
 5829SOL     OW28415   9.884   8.442   3.795 -0.3042  0.2839 -0.2055
 5829SOL    HW128416   9.983   8.434   3.804 -0.2227  0.3652 -1.0161
 5829SOL    HW228417   9.847   8.358   3.755 -0.2619  1.2353 -2.2456
 5830SOL     OW28418   7.236   1.287   3.577 -0.4024 -0.0086  0.3150
 5830SOL    HW128419   7.179   1.227   3.521 -0.0802  0.0846 -0.1183
 5830SOL    HW228420   7.314   1.319   3.523  0.0801 -0.1613  0.9144
 5831SOL     OW28421   0.234   0.244   4.403 -0.3079 -0.4967 -0.2822
 5831SOL    HW128422   0.168   0.170   4.387 -0.2309 -1.0068  1.6669
 5831SOL    HW228423   0.323   0.204   4.426  0.3914  0.1965 -1.7566
 5832SOL     OW28424   9.880   1.219   3.870 -0.4225 -0.1048 -0.0698
 5832SOL    HW128425   9.801   1.240   3.928 -1.2653 -0.3523 -1.1174
 5832SOL    HW228426   9.960   1.267   3.905 -1.3265  1.2228  0.2221
 5833SOL     OW28427   8.489   9.332   2.793 -0.0581 -0.5887 -0.6030
 5833SOL    HW128428   8.569   9.318   2.734  0.5725 -0.3474  0.1892
 5833SOL    HW228429   8.447   9.420   2.772 -0.1090 -0.7111 -1.0140
 5834SOL     OW28430   2.593   4.825   5.924 -0.3192 -0.0506  0.4027
 5834SOL    HW128431   2.499   4.857   5.911 -0.5535 -0.7509  0.3437
 5834SOL    HW228432   2.645   4.836   5.840 -0.9238 -1.5585 -0.1861
 5835SOL     OW28433   9.014   3.378   2.729  0.4816 -0.0101 -0.5101
 5835SOL    HW128434   9.063   3.290   2.729  1.0132  0.2681 -1.9659
 5835SOL    HW228435   9.060   3.441   2.791 -0.1819 -0.9004  0.9156
 5836SOL     OW28436   2.121   9.278   4.481  0.2276 -0.0013 -0.2372
 5836SOL    HW128437   2.155   9.347   4.416  1.5574 -1.3399 -1.0178
 5836SOL    HW228438   2.107   9.321   4.570  1.0584  1.2812 -0.6922
 5837SOL     OW28439   6.723   9.593   3.991  0.8017  0.0730 -0.8741
 5837SOL    HW128440   6.712   9.676   3.937 -0.4493 -0.7637 -1.9225
 5837SOL    HW228441   6.633   9.551   4.007  1.3347 -0.6373  0.3570
 5838SOL     OW28442   3.545   4.760   1.456 -0.5103  0.4497 -0.0815
 5838SOL    HW128443   3.471   4.700   1.427 -1.6956  1.2993  1.1491
 5838SOL    HW228444   3.598   4.715   1.528  1.1296 -0.7817 -2.0067
 5839SOL     OW28445   3.648   4.665   0.404 -0.2297  0.2032  0.4901
 5839SOL    HW128446   3.570   4.720   0.373 -0.7401  0.2435  1.7925
 5839SOL    HW228447   3.665   4.683   0.501  1.4279  0.2087  0.2130
 5840SOL     OW28448   8.380   2.476   0.121 -0.0456  0.0524 -0.0126
 5840SOL    HW128449   8.301   2.526   0.085  0.0089 -1.1823 -1.9757
 5840SOL    HW228450   8.460   2.535   0.123 -0.1309  0.2669 -1.7096
 5841SOL     OW28451   0.548   8.499   0.130 -0.3020 -0.0098  0.0189
 5841SOL    HW128452   0.648   8.500   0.137 -0.3342  2.2483  0.3949
 5841SOL    HW228453   0.519   8.413   0.089  1.8300 -0.5219 -0.4768
 5842SOL     OW28454   3.360   6.420   2.168 -0.9335 -0.2832  0.0259
 5842SOL    HW128455   3.294   6.456   2.102  0.5382 -0.2871 -1.4667
 5842SOL    HW228456   3.451   6.416   2.127 -0.0531 -0.6557  1.9294
 5843SOL     OW28457   8.214   3.571   3.182  0.3461 -0.2249  0.1620
 5843SOL    HW128458   8.208   3.671   3.184  2.4220 -0.0620 -0.4374
 5843SOL    HW228459   8.262   3.543   3.098 -1.3853 -1.7910 -0.3258
 5844SOL     OW28460   8.682   9.139   5.434  0.3640  0.0411  0.6711
 5844SOL    HW128461   8.614   9.212   5.423  0.6767  0.4824  1.6075
 5844SOL    HW228462   8.770   9.180   5.458  1.1146 -0.4834 -1.1376
 5845SOL     OW28463   4.244   1.624   3.891 -0.3966  0.7530  0.0123
 5845SOL    HW128464   4.145   1.625   3.901 -0.4866  1.4043 -0.8988
 5845SOL    HW228465   4.283   1.556   3.954 -1.4403  0.2439  0.1204
 5846SOL     OW28466   1.007   9.928   1.051 -0.3104 -0.4497 -0.2931
 5846SOL    HW128467   0.932   9.988   1.023 -0.7313 -0.6075  0.4840
 5846SOL    HW228468   1.084   9.983   1.080 -0.8762 -0.2812  0.8972
 5847SOL     OW28469   2.201   4.248   0.909  0.1281  0.7954 -0.2161
 5847SOL    HW128470   2.108   4.265   0.877  0.0422  2.9302  1.1017
 5847SOL    HW228471   2.199   4.192   0.992  0.0450  0.5721 -0.3682
 5848SOL     OW28472   9.176   9.530   4.375  0.1667  0.3800 -0.0545
 5848SOL    HW128473   9.120   9.594   4.428 -0.2776  0.4314 -0.5877
 5848SOL    HW228474   9.121   9.488   4.303  0.8047  0.4267 -0.5789
 5849SOL     OW28475   9.589   7.409   5.110 -0.2687 -0.2461  0.0539
 5849SOL    HW128476   9.506   7.466   5.109 -0.3018 -0.2934  0.1599
 5849SOL    HW228477   9.655   7.448   5.174  0.1014  0.2335 -0.6172
 5850SOL     OW28478   6.648   9.734   2.317 -0.1163 -0.7362 -0.0913
 5850SOL    HW128479   6.553   9.705   2.326  0.2273 -1.4594  1.2457
 5850SOL    HW228480   6.693   9.729   2.405  1.1864 -0.4412 -0.7293
 5851SOL     OW28481   0.675   6.303   5.296  0.1124  0.5527  0.0394
 5851SOL    HW128482   0.634   6.246   5.225  0.5815  0.8293 -0.4582
 5851SOL    HW228483   0.641   6.397   5.288 -0.7117  0.3292  0.8999
 5852SOL     OW28484   4.152   9.096   2.834  0.1816  0.3682  0.1779
 5852SOL    HW128485   4.173   9.081   2.931  1.7580 -3.2486 -0.6220
 5852SOL    HW228486   4.080   9.033   2.806 -0.8734  1.9909 -0.8356
 5853SOL     OW28487   9.161   7.582   0.078  0.6309 -0.3619 -0.4524
 5853SOL    HW128488   9.176   7.550  -0.016 -0.1885 -2.1592  0.0062
 5853SOL    HW228489   9.161   7.503   0.140 -1.1279  0.5578  0.7576
 5854SOL     OW28490   2.104   2.916   5.338  0.0578 -0.0345  0.3679
 5854SOL    HW128491   2.153   2.837   5.376 -0.6973 -0.9030 -0.4296
 5854SOL    HW228492   2.054   2.962   5.411 -0.6676 -1.1567  0.5917
 5855SOL     OW28493   0.187   5.377   0.165 -0.1377  0.0085 -0.3753
 5855SOL    HW128494   0.155   5.461   0.207  2.6368  0.4792  0.9269
 5855SOL    HW228495   0.281   5.390   0.132  0.0934 -2.3636 -0.7421
 5856SOL     OW28496   8.845   6.440   2.626 -0.0127  0.2698 -0.0515
 5856SOL    HW128497   8.762   6.496   2.631  0.1917  0.6966 -1.4771
 5856SOL    HW228498   8.844   6.385   2.543  0.7818 -0.3045  0.3093
 5857SOL     OW28499   8.205   9.892   0.780 -0.2201  0.6223 -0.5243
 5857SOL    HW128500   8.232   9.976   0.732 -0.3318  2.0047  1.7642
 5857SOL    HW228501   8.287   9.843   0.810 -0.1570  1.1603  0.2084
 5858SOL     OW28502   9.514   0.324   2.904 -0.3717  0.0625  0.3810
 5858SOL    HW128503   9.421   0.288   2.906 -0.2150 -0.3158  4.2387
 5858SOL    HW228504   9.518   0.411   2.952  1.3743 -0.2145  0.7788
 5859SOL     OW28505   3.786   4.564   4.253 -0.2297 -0.5133  0.3255
 5859SOL    HW128506   3.866   4.618   4.280  0.2492 -0.6243 -0.8208
 5859SOL    HW228507   3.713   4.626   4.222 -0.2716 -0.4553  0.5363
 5860SOL     OW28508   3.050   6.949   5.548  0.1491 -0.1674  0.3682
 5860SOL    HW128509   3.001   6.984   5.628 -2.2203  2.5094 -2.1670
 5860SOL    HW228510   3.137   6.998   5.538 -0.0490  0.2450  0.6732
 5861SOL     OW28511   8.830   2.212   1.931  0.4333 -0.0270  0.0337
 5861SOL    HW128512   8.887   2.206   1.849  0.0013  0.7657 -0.3309
 5861SOL    HW228513   8.867   2.281   1.993 -0.2028  0.5903 -0.2683
 5862SOL     OW28514   1.968   2.470   3.062 -1.0167  0.0580 -0.4424
 5862SOL    HW128515   1.912   2.499   3.140  0.1018  0.1487  0.3336
 5862SOL    HW228516   1.934   2.513   2.979 -1.9480  0.3080  0.0596
 5863SOL     OW28517   0.859   7.700   2.393  0.3959  0.1971 -0.5517
 5863SOL    HW128518   0.871   7.601   2.399  0.7668  0.2957  0.5371
 5863SOL    HW228519   0.890   7.732   2.303 -0.1044 -0.7226 -1.0548
 5864SOL     OW28520   2.668   9.407   2.099  0.0159 -0.8347 -0.7855
 5864SOL    HW128521   2.726   9.325   2.103  2.0049  0.4914 -1.6635
 5864SOL    HW228522   2.704   9.470   2.030 -1.5437  0.7479 -0.1938
 5865SOL     OW28523   7.767   7.889   4.996 -0.0831  0.5830 -0.3049
 5865SOL    HW128524   7.843   7.937   4.952  1.6381  0.6261  2.5782
 5865SOL    HW228525   7.801   7.805   5.039 -1.9546 -0.1798 -0.2597
 5866SOL     OW28526   5.811   1.764   4.166 -0.6170  0.2939 -0.1953
 5866SOL    HW128527   5.814   1.801   4.073  2.7365  0.5240 -0.0593
 5866SOL    HW228528   5.855   1.829   4.229  3.2464 -2.7282  0.4266
 5867SOL     OW28529   7.097   0.545   5.623  0.1366  0.4328  0.2431
 5867SOL    HW128530   7.122   0.626   5.571  0.8455  0.8001  1.1268
 5867SOL    HW228531   7.005   0.556   5.660  0.1381  0.7321  0.1600
 5868SOL     OW28532   8.155   1.514   6.377 -0.3647  0.1396 -0.1005
 5868SOL    HW128533   8.132   1.507   6.279 -0.1590 -0.3289 -0.1195
 5868SOL    HW228534   8.227   1.448   6.398 -2.6872 -2.1113  1.0483
 5869SOL     OW28535   9.871   4.192   2.213  0.1752 -0.8606 -0.0444
 5869SOL    HW128536   9.842   4.267   2.153 -0.1974  0.0608  1.2611
 5869SOL    HW228537   9.970   4.198   2.228  0.3357 -1.3367 -0.8863
 5870SOL     OW28538   2.607   8.370   3.067  0.0157 -0.0771 -0.2250
 5870SOL    HW128539   2.602   8.336   2.973  2.1768  0.9426 -0.7632
 5870SOL    HW228540   2.522   8.417   3.090 -0.8303 -0.9869 -1.3959
 5871SOL     OW28541   8.040   7.136   3.989 -0.6393 -0.0560  0.2042
 5871SOL    HW128542   8.117   7.155   3.929  1.9208 -2.2544  2.6659
 5871SOL    HW228543   7.981   7.066   3.948 -0.2274  0.1551 -0.7599
 5872SOL     OW28544   8.781   0.208   2.471 -0.4272  0.5549 -0.1745
 5872SOL    HW128545   8.809   0.226   2.376 -0.3715  0.6619 -0.1378
 5872SOL    HW228546   8.706   0.142   2.471  0.6945 -0.7681 -0.2159
 5873SOL     OW28547   0.689   5.063   0.050 -0.2371  0.3133  0.2829
 5873SOL    HW128548   0.671   5.053  -0.048 -1.0054  1.0867  0.3424
 5873SOL    HW228549   0.646   4.987   0.100  2.0473 -1.3526 -0.1691
 5874SOL     OW28550   4.823   9.332   1.520 -0.2589 -0.2945 -0.2152
 5874SOL    HW128551   4.784   9.276   1.593 -0.5268  1.4372  1.0193
 5874SOL    HW228552   4.756   9.400   1.491  0.3860  0.0008 -1.0127
 5875SOL     OW28553   3.138   0.335   2.305 -0.3883  0.5500 -0.1272
 5875SOL    HW128554   3.101   0.243   2.316 -0.8012  0.7596  0.2700
 5875SOL    HW228555   3.151   0.354   2.207  0.8098 -0.3583 -0.1492
 5876SOL     OW28556   7.095   8.276   4.564  0.3047 -0.0524 -0.7684
 5876SOL    HW128557   7.084   8.375   4.568 -1.1530 -0.2241 -0.3121
 5876SOL    HW228558   7.052   8.241   4.481 -0.9841 -0.5201  0.0826
 5877SOL     OW28559   5.459   0.341   3.387  0.4040 -0.2144 -0.3297
 5877SOL    HW128560   5.491   0.273   3.453 -1.1230 -0.9146 -0.2915
 5877SOL    HW228561   5.363   0.323   3.365 -0.1041  2.1086 -0.1016
 5878SOL     OW28562   6.932   7.944   2.342  0.7227  0.1704  0.7142
 5878SOL    HW128563   6.856   7.904   2.393  0.5120  0.1895  0.4211
 5878SOL    HW228564   6.942   8.041   2.368 -1.1931  0.9618 -1.2969
 5879SOL     OW28565   7.713   7.145   3.499  0.1208 -0.0718  0.8241
 5879SOL    HW128566   7.808   7.114   3.501  0.0975 -0.2014  0.0613
 5879SOL    HW228567   7.654   7.073   3.463  0.2637  1.3149 -2.3904
 5880SOL     OW28568   1.685   2.054   3.573  0.0260 -0.5112  0.3316
 5880SOL    HW128569   1.709   1.978   3.513  0.7085 -0.6703  0.8018
 5880SOL    HW228570   1.699   2.026   3.668 -0.8795 -0.2035  0.5627
 5881SOL     OW28571   2.774   6.677   2.065 -0.2334 -0.7354 -0.5021
 5881SOL    HW128572   2.846   6.609   2.053 -0.9041 -1.2137 -2.0603
 5881SOL    HW228573   2.796   6.759   2.013 -0.1683 -0.3677  0.1079
 5882SOL     OW28574   8.642   2.597   0.959 -0.3067  0.0653  0.1635
 5882SOL    HW128575   8.544   2.603   0.980 -0.1550  2.8774  0.2204
 5882SOL    HW228576   8.658   2.522   0.894 -2.5321 -0.1939 -0.1196
 5883SOL     OW28577   0.401   2.438   1.877 -0.4690 -0.1284 -0.0209
 5883SOL    HW128578   0.453   2.404   1.799  1.1577  1.4079  0.3702
 5883SOL    HW228579   0.304   2.422   1.862 -0.2868  1.2397 -2.8777
 5884SOL     OW28580   5.594   1.141   2.407  0.5458  0.4677 -0.2067
 5884SOL    HW128581   5.662   1.183   2.467  1.9857  2.4683 -3.1306
 5884SOL    HW228582   5.505   1.183   2.424  0.8941  0.8884  0.6246
 5885SOL     OW28583   3.546   5.461   6.309  0.5203 -0.0759 -0.1427
 5885SOL    HW128584   3.570   5.375   6.264  1.0389 -0.4040  0.7573
 5885SOL    HW228585   3.629   5.512   6.332  0.3520 -0.6383  1.8348
 5886SOL     OW28586   9.299   3.655   0.482  0.2953 -0.5598  0.5872
 5886SOL    HW128587   9.316   3.708   0.565 -0.1218  1.1688 -0.4141
 5886SOL    HW228588   9.220   3.692   0.434  1.4165 -0.6190 -1.3480
 5887SOL     OW28589   5.017   0.781   2.328  0.4063  0.7015  0.3366
 5887SOL    HW128590   4.965   0.746   2.250  0.1227 -0.7969  1.1658
 5887SOL    HW228591   5.012   0.880   2.330  0.5125  0.7604 -1.6083
 5888SOL     OW28592   5.471   0.051   3.157  0.1320 -0.4316 -0.3423
 5888SOL    HW128593   5.472   0.136   3.104  0.2865  0.5371  1.2011
 5888SOL    HW228594   5.418   0.064   3.241  0.7940 -1.6356  0.2735
 5889SOL     OW28595   9.930   0.934   3.864  0.4741  0.2432 -0.6766
 5889SOL    HW128596   9.874   0.882   3.929  0.3836 -0.2605 -1.1535
 5889SOL    HW228597   9.905   1.031   3.869  0.1041  0.1316 -0.3286
 5890SOL     OW28598   5.431   9.202   4.180 -0.5145 -0.0408  0.3527
 5890SOL    HW128599   5.526   9.221   4.159 -0.5080  0.5752  0.9469
 5890SOL    HW228600   5.387   9.284   4.214 -1.5606 -0.0176 -0.9855
 5891SOL     OW28601   5.176   5.201   0.409 -0.1736 -0.3179  0.1162
 5891SOL    HW128602   5.204   5.171   0.318  0.4427  0.6309 -0.0227
 5891SOL    HW228603   5.228   5.150   0.478 -0.7194 -1.1152 -0.0572
 5892SOL     OW28604   9.830   2.247   1.131  0.0877 -0.7049 -0.3395
 5892SOL    HW128605   9.732   2.267   1.121  0.4441  1.0452 -0.5096
 5892SOL    HW228606   9.876   2.264   1.044  0.9713  1.2154  0.4638
 5893SOL     OW28607   1.244   0.784   1.099 -0.2822  0.1852  0.0457
 5893SOL    HW128608   1.196   0.868   1.072  0.6160  0.7112  0.0749
 5893SOL    HW228609   1.334   0.782   1.057  0.2004 -0.1410  1.0836
 5894SOL     OW28610   2.006   2.166   3.747 -0.1870  0.5848  0.5885
 5894SOL    HW128611   1.994   2.166   3.648  0.9389  0.4183  0.4534
 5894SOL    HW228612   2.043   2.254   3.777  0.0683  0.4113  0.7870
 5895SOL     OW28613   2.764   8.979   2.641 -0.4316 -0.8159  0.1078
 5895SOL    HW128614   2.760   9.043   2.718  0.5707 -1.6714  0.8891
 5895SOL    HW228615   2.672   8.958   2.610 -0.9553 -1.8642  2.2522
 5896SOL     OW28616   7.914   2.369   4.654  0.7057 -0.6099  0.1408
 5896SOL    HW128617   7.829   2.398   4.611 -0.1600 -2.8076  0.2620
 5896SOL    HW228618   7.978   2.445   4.658 -0.1695  0.3285 -2.6176
 5897SOL     OW28619   9.714   5.220   6.590  0.1675 -0.3061  0.6404
 5897SOL    HW128620   9.652   5.298   6.597 -1.1661 -1.4590  2.1502
 5897SOL    HW228621   9.779   5.222   6.667 -0.0199 -0.7992  0.8124
 5898SOL     OW28622   8.635   5.705   3.923  0.7376 -0.0291 -0.1501
 5898SOL    HW128623   8.615   5.779   3.859  0.7607  0.6564  0.6398
 5898SOL    HW228624   8.632   5.739   4.017 -1.0970 -1.4326  0.3205
 5899SOL     OW28625   8.886   0.788   2.579  0.5293  0.2222  0.8247
 5899SOL    HW128626   8.831   0.863   2.614  1.3440  0.5036  1.5159
 5899SOL    HW228627   8.826   0.712   2.554 -0.3192  1.1608 -0.0652
 5900SOL     OW28628   3.833   0.135   1.756  0.3529  0.1890 -0.1957
 5900SOL    HW128629   3.907   0.159   1.694  0.3160 -0.6633 -0.5784
 5900SOL    HW228630   3.749   0.181   1.729  0.5425  0.4844 -0.2737
 5901SOL     OW28631   8.903   2.153   1.672  0.6633 -0.0392 -0.6390
 5901SOL    HW128632   8.885   2.145   1.574  0.9373 -2.4289 -0.5308
 5901SOL    HW228633   8.927   2.063   1.708  0.1215  0.7401  1.7134
 5902SOL     OW28634   7.800   4.316   1.079  0.1222  0.4016  0.0694
 5902SOL    HW128635   7.871   4.374   1.040  1.1493 -1.0716 -0.2663
 5902SOL    HW228636   7.715   4.369   1.086  0.7382  1.6151 -1.2676
 5903SOL     OW28637   1.007   8.196   1.431  0.0795 -0.1868  0.6075
 5903SOL    HW128638   0.956   8.167   1.512 -0.1173 -0.6364  0.3270
 5903SOL    HW228639   0.944   8.210   1.355  0.2302  0.5489  0.6212
 5904SOL     OW28640   6.075   9.692   2.984  0.0996 -0.0506 -0.1936
 5904SOL    HW128641   5.981   9.658   2.981 -0.0516  0.2503  1.0075
 5904SOL    HW228642   6.136   9.618   3.013  0.0815  0.0634  0.1367
 5905SOL     OW28643   6.438   7.342   2.329 -0.6448 -0.8129 -0.1324
 5905SOL    HW128644   6.445   7.436   2.295  1.2734 -0.9913 -0.3165
 5905SOL    HW228645   6.395   7.284   2.260 -2.0685 -0.0276  0.0821
 5906SOL     OW28646   6.994   8.961   4.618 -0.1465 -0.1561  0.1885
 5906SOL    HW128647   6.979   9.060   4.615 -1.5897 -0.3989 -3.3358
 5906SOL    HW228648   6.957   8.924   4.703  0.8643  2.3575  1.7919
 5907SOL     OW28649   0.990   5.742   6.064 -0.0878 -0.0517 -0.1925
 5907SOL    HW128650   1.015   5.739   5.967 -0.1656  0.9298 -0.2404
 5907SOL    HW228651   1.072   5.753   6.119  0.1661 -2.4289 -0.0256
 5908SOL     OW28652   3.647   3.806   2.778  0.1366 -0.4216 -0.2618
 5908SOL    HW128653   3.711   3.795   2.702  0.9266  0.2868  0.2881
 5908SOL    HW228654   3.557   3.830   2.742  0.5736  0.2128 -0.9637
 5909SOL     OW28655   6.762   8.067   4.179 -0.8109 -0.0334 -0.2194
 5909SOL    HW128656   6.677   8.025   4.150 -0.8449  1.1219 -1.8272
 5909SOL    HW228657   6.832   7.996   4.189 -0.6822 -0.4517 -3.5441
 5910SOL     OW28658   6.881   0.157   0.508  0.1755 -0.6564  0.4527
 5910SOL    HW128659   6.941   0.218   0.456 -0.6365 -0.9366 -0.8314
 5910SOL    HW228660   6.877   0.068   0.464  1.2900 -1.6381  2.2788
 5911SOL     OW28661   7.259   1.994   2.675 -0.0740 -0.2122 -0.3828
 5911SOL    HW128662   7.299   1.906   2.700 -0.6639 -0.3816 -0.0205
 5911SOL    HW228663   7.273   2.060   2.749 -1.5504 -0.6272  0.2974
 5912SOL     OW28664   7.590   0.178   5.128 -0.3169 -0.4506 -0.6867
 5912SOL    HW128665   7.688   0.179   5.147 -0.6585 -0.5050  1.1839
 5912SOL    HW228666   7.570   0.239   5.052  1.0272  0.4595 -0.3241
 5913SOL     OW28667   1.644   5.730   1.716 -0.0978  0.0736 -0.1113
 5913SOL    HW128668   1.565   5.779   1.753 -0.7880 -0.7452 -0.4794
 5913SOL    HW228669   1.728   5.779   1.740 -0.7663  1.4054 -0.4470
 5914SOL     OW28670   7.103   1.516   0.278 -0.0077  0.3945  0.4144
 5914SOL    HW128671   7.151   1.512   0.191  1.0200  1.2131  0.9235
 5914SOL    HW228672   7.016   1.468   0.271  0.2210  0.1653 -0.9556
 5915SOL     OW28673   9.402   7.108   3.405 -0.2221  0.1821  0.3219
 5915SOL    HW128674   9.487   7.069   3.440  0.1497  1.1938  0.5356
 5915SOL    HW228675   9.334   7.109   3.479  0.4791  2.0619  0.9568
 5916SOL     OW28676   8.114   1.970   1.497  0.3931 -0.0748 -0.4414
 5916SOL    HW128677   8.158   2.059   1.505 -0.5653  0.5262 -1.6511
 5916SOL    HW228678   8.183   1.901   1.475  1.1674  0.3175  0.6816
 5917SOL     OW28679   9.289   1.550   0.741  0.2804  0.3122  0.7250
 5917SOL    HW128680   9.347   1.599   0.806 -0.1941  0.7872  0.7957
 5917SOL    HW228681   9.196   1.544   0.778  0.0410  0.4602  0.1464
 5918SOL     OW28682   3.245   2.833   4.643  0.2516  0.3204  0.9868
 5918SOL    HW128683   3.329   2.793   4.678  0.6637 -0.0995 -0.4410
 5918SOL    HW228684   3.246   2.932   4.657  1.5243  0.4715 -0.0948
 5919SOL     OW28685   3.138   1.211   4.098 -0.3458  0.1162  0.2493
 5919SOL    HW128686   3.154   1.223   4.000 -1.5675 -0.6943 -0.0651
 5919SOL    HW228687   3.049   1.250   4.122  0.7552  1.9824  1.3980
 5920SOL     OW28688   1.357   7.156   1.224 -0.0643  0.2552  0.5959
 5920SOL    HW128689   1.290   7.085   1.244  1.1640 -1.2131 -0.3921
 5920SOL    HW228690   1.442   7.136   1.272  0.0664  1.4747  0.8999
 5921SOL     OW28691   5.415   8.259   3.725  0.3931 -0.5442 -0.0306
 5921SOL    HW128692   5.441   8.327   3.656 -0.6714 -0.6680 -0.5528
 5921SOL    HW228693   5.316   8.252   3.730  0.4811 -1.4442  0.6385
 5922SOL     OW28694   2.055   0.084   1.455  0.1302 -0.9076 -0.5908
 5922SOL    HW128695   1.971   0.071   1.401 -0.5563 -0.6955  0.4142
 5922SOL    HW228696   2.061   0.180   1.483  0.0462 -1.1952  0.4201
 5923SOL     OW28697   3.462   4.177   4.045 -0.4616  0.1269  0.1508
 5923SOL    HW128698   3.457   4.163   3.946  0.4405  0.1812  0.0904
 5923SOL    HW228699   3.552   4.150   4.078 -1.5850 -2.2315  1.3623
 5924SOL     OW28700   2.911   7.462   1.917 -0.1667  0.0288  0.5055
 5924SOL    HW128701   2.887   7.528   1.988 -2.3525 -0.6731  0.4565
 5924SOL    HW228702   2.918   7.509   1.829 -2.4529  0.1169  0.3424
 5925SOL     OW28703   9.144   0.162   2.849 -0.3071 -0.2320  0.1484
 5925SOL    HW128704   9.137   0.142   2.752  0.5450  1.2471 -0.2312
 5925SOL    HW228705   9.227   0.120   2.886 -0.8092 -1.0859  0.3304
 5926SOL     OW28706   4.301   7.813   0.363  0.2576  0.1551 -0.3314
 5926SOL    HW128707   4.293   7.910   0.340  0.3071  0.5911  1.4623
 5926SOL    HW228708   4.398   7.786   0.360  0.2958  0.2882 -0.3005
 5927SOL     OW28709   6.372   8.032   3.084 -0.0806 -0.2085 -0.4664
 5927SOL    HW128710   6.349   8.083   3.167  0.6057  0.1139 -0.4758
 5927SOL    HW228711   6.380   8.095   3.007 -0.1518 -0.4425 -0.6644
 5928SOL     OW28712   3.697   5.115   1.346 -0.6012  0.1898  0.3281
 5928SOL    HW128713   3.657   5.206   1.329 -1.5922 -0.3657 -0.3649
 5928SOL    HW228714   3.634   5.045   1.314  0.1912 -0.7522  0.8134
 5929SOL     OW28715   4.268   3.555   2.365  0.3154 -0.0585  0.6578
 5929SOL    HW128716   4.268   3.652   2.342  1.7034  0.8183  4.0342
 5929SOL    HW228717   4.175   3.526   2.387 -0.1170  0.4706 -0.4494
 5930SOL     OW28718   7.293   1.484   0.080 -0.4161 -0.4813 -0.4021
 5930SOL    HW128719   7.303   1.393   0.038  1.3474 -0.5764  0.1956
 5930SOL    HW228720   7.297   1.554   0.008 -2.0786 -0.8713 -0.9005
 5931SOL     OW28721   1.836   5.175   2.272  0.1597 -0.3082  0.2932
 5931SOL    HW128722   1.875   5.233   2.343  3.2918 -2.8991  0.8152
 5931SOL    HW228723   1.788   5.099   2.314  0.4197 -0.8342 -0.3429
 5932SOL     OW28724   0.195   8.602   0.337  0.6452 -0.2382 -0.4103
 5932SOL    HW128725   0.236   8.604   0.428  0.4833 -1.2239 -0.3090
 5932SOL    HW228726   0.256   8.648   0.272  0.7516  0.4814  0.1984
 5933SOL     OW28727   7.023   7.671   2.377  0.3540 -0.2763  0.6723
 5933SOL    HW128728   6.948   7.718   2.331  0.6859  1.7608  2.1170
 5933SOL    HW228729   7.106   7.679   2.321  0.1719 -0.0340  0.4352
 5934SOL     OW28730   0.481   8.359   1.474 -0.0733  0.0932  0.2270
 5934SOL    HW128731   0.532   8.378   1.559  0.2792  1.6511 -0.3190
 5934SOL    HW228732   0.417   8.284   1.490  0.4328 -0.0456  1.7029
 5935SOL     OW28733   2.276   6.141   1.903  0.2326  0.2407  0.4004
 5935SOL    HW128734   2.230   6.105   1.822 -0.4852 -0.9832  1.3405
 5935SOL    HW228735   2.210   6.188   1.961  0.6083  0.5099  0.6079
 5936SOL     OW28736   3.641   3.071   1.284  0.4431 -0.0172 -0.1805
 5936SOL    HW128737   3.684   3.002   1.224 -0.6774 -0.4488 -0.4954
 5936SOL    HW228738   3.637   3.036   1.377  0.2137 -0.2283 -0.2690
 5937SOL     OW28739   6.347   8.842   3.330  0.4556 -0.1192 -0.3523
 5937SOL    HW128740   6.369   8.826   3.234 -1.5071  0.4716 -0.9275
 5937SOL    HW228741   6.247   8.843   3.342  0.6674 -0.9692  1.8241
 5938SOL     OW28742   9.272   3.405   5.039  0.4046 -0.4024 -0.0518
 5938SOL    HW128743   9.293   3.502   5.048 -0.6036 -0.3822  2.1523
 5938SOL    HW228744   9.177   3.393   5.012  0.4339 -0.8003  0.0113
 5939SOL     OW28745   4.462   2.875   0.918  0.3184  0.4353  0.0675
 5939SOL    HW128746   4.467   2.957   0.976 -0.3587  1.5918 -1.4513
 5939SOL    HW228747   4.545   2.867   0.863 -0.1688  0.8471 -0.7377
 5940SOL     OW28748   7.140   8.699   3.673  0.1792 -0.4720 -0.1629
 5940SOL    HW128749   7.236   8.720   3.692  0.1226 -0.0475 -0.3446
 5940SOL    HW228750   7.082   8.763   3.724 -0.0403 -1.8834  1.3992
 5941SOL     OW28751   7.220   0.843   1.174 -0.1228  0.5211 -0.0833
 5941SOL    HW128752   7.290   0.909   1.200 -0.4825  0.8596  0.0294
 5941SOL    HW228753   7.223   0.765   1.237  1.0371 -0.1020 -0.8888
 5942SOL     OW28754   6.325   7.947   2.708 -0.0479 -0.4267  0.2184
 5942SOL    HW128755   6.411   7.988   2.738  0.6450 -1.6257 -0.0761
 5942SOL    HW228756   6.272   8.013   2.655  1.3772 -0.1531 -0.8709
 5943SOL     OW28757   8.271   6.847   4.414 -0.9567  0.1833  0.2626
 5943SOL    HW128758   8.289   6.787   4.337  0.3784  0.0480  0.6741
 5943SOL    HW228759   8.270   6.942   4.383  1.7217  0.3023  0.4005
 5944SOL     OW28760   0.557   8.794   0.648 -0.7691 -0.3470 -1.0692
 5944SOL    HW128761   0.503   8.876   0.664 -0.9732 -0.9905  1.9275
 5944SOL    HW228762   0.624   8.784   0.722  0.8460 -1.6154 -2.6715
 5945SOL     OW28763   0.379   6.098   2.827  0.6553 -0.2439 -0.1926
 5945SOL    HW128764   0.430   6.158   2.889  0.3013  0.4233 -0.5395
 5945SOL    HW228765   0.428   6.089   2.741  0.5360 -0.1715 -0.2685
 5946SOL     OW28766   3.597   3.960   3.362  0.2492 -0.1620 -0.2216
 5946SOL    HW128767   3.634   4.050   3.338  1.4346 -0.7568 -0.6350
 5946SOL    HW228768   3.616   3.941   3.459 -0.3275  0.1867 -0.0373
 5947SOL     OW28769   5.537   3.085   2.713  0.6287  0.1893  0.0689
 5947SOL    HW128770   5.439   3.071   2.696  0.3335  2.1475  0.0221
 5947SOL    HW228771   5.583   2.997   2.715 -0.8432 -0.6777 -1.7781
 5948SOL     OW28772   3.226   8.870   1.306  0.3627 -0.0698 -0.0830
 5948SOL    HW128773   3.313   8.906   1.340  0.4691 -0.9562  0.5985
 5948SOL    HW228774   3.156   8.942   1.313  1.1900  0.8715 -1.3103
 5949SOL     OW28775   6.741   7.118   3.936 -0.4503 -0.1700  0.2945
 5949SOL    HW128776   6.662   7.057   3.927 -1.4882  0.7779  2.7690
 5949SOL    HW228777   6.719   7.193   3.998  1.0258  2.4164 -2.1653
 5950SOL     OW28778   4.348   1.791   4.627 -0.0131  0.4854  0.5213
 5950SOL    HW128779   4.278   1.727   4.659 -0.1537 -0.0946 -0.9022
 5950SOL    HW228780   4.420   1.740   4.579  1.6292  1.0239  2.3507
 5951SOL     OW28781   0.893   5.043   3.596  0.3477  0.3469 -0.6715
 5951SOL    HW128782   0.826   5.097   3.645  0.0763  0.1514 -0.8266
 5951SOL    HW228783   0.873   4.945   3.608  0.5157  0.2906 -0.8380
 5952SOL     OW28784   1.568   8.608   2.843 -0.1367  0.3590 -0.2728
 5952SOL    HW128785   1.499   8.537   2.829 -0.3280  0.8801 -2.0889
 5952SOL    HW228786   1.524   8.698   2.846  0.4914  0.7408 -1.9866
 5953SOL     OW28787   7.812   7.757   5.405 -0.2530  0.0723 -0.3816
 5953SOL    HW128788   7.897   7.746   5.457 -0.6289  0.2236  0.2695
 5953SOL    HW228789   7.795   7.854   5.389 -0.5676  0.0688 -0.0726
 5954SOL     OW28790   3.283   5.806   6.296 -0.0617 -0.3633 -0.4808
 5954SOL    HW128791   3.349   5.858   6.241 -0.7976  0.0364 -1.0079
 5954SOL    HW228792   3.317   5.795   6.389  0.7555 -0.1825 -0.7566
 5955SOL     OW28793   9.176   4.115   6.744 -0.1093  0.0604  0.5362
 5955SOL    HW128794   9.205   4.208   6.767  0.1221 -0.0139  0.5451
 5955SOL    HW228795   9.097   4.118   6.683  0.7642  0.2679 -0.6002
 5956SOL     OW28796   8.462   5.385   5.666  0.7167 -0.2889  0.6514
 5956SOL    HW128797   8.500   5.296   5.638  0.9802  0.2271 -0.6584
 5956SOL    HW228798   8.365   5.374   5.687  1.2199 -1.3256  2.6482
 5957SOL     OW28799   0.925   1.620   4.609  0.4413  0.2459  0.9449
 5957SOL    HW128800   0.912   1.676   4.527  1.6489 -0.8935 -0.0446
 5957SOL    HW228801   1.023   1.600   4.621  0.1634 -0.5071  2.0552
 5958SOL     OW28802   3.520   6.185   1.449  0.0002  0.1644  0.0109
 5958SOL    HW128803   3.481   6.216   1.362  0.4483  0.9132  0.0741
 5958SOL    HW228804   3.597   6.125   1.431  0.8159  1.2374 -0.1157
 5959SOL     OW28805   1.139   6.759   5.747 -0.5703  0.0933 -0.3614
 5959SOL    HW128806   1.093   6.741   5.833  0.3904 -1.3556 -0.1373
 5959SOL    HW228807   1.211   6.827   5.761 -0.6374  0.1066 -0.0843
 5960SOL     OW28808   9.883   7.552   1.190  0.1768  0.5895 -0.7945
 5960SOL    HW128809   9.832   7.466   1.191 -0.2883  0.8660  1.0570
 5960SOL    HW228810   9.898   7.581   1.095 -1.0107 -0.7314 -1.4016
 5961SOL     OW28811   9.483   8.312   1.009 -0.2484 -0.3893 -0.2121
 5961SOL    HW128812   9.559   8.367   0.974  1.1709 -1.6336  0.8587
 5961SOL    HW228813   9.484   8.222   0.965 -0.7162 -0.6336  0.2761
 5962SOL     OW28814   9.186   4.509   5.959 -0.2024  0.6330 -0.0599
 5962SOL    HW128815   9.286   4.498   5.957 -0.0125  2.1517  0.9432
 5962SOL    HW228816   9.163   4.606   5.961 -1.7405  0.3105 -1.4040
 5963SOL     OW28817   2.125   5.207   3.898  0.4551 -0.0071  0.0138
 5963SOL    HW128818   2.141   5.304   3.880 -2.5336  0.4261 -0.4828
 5963SOL    HW228819   2.027   5.191   3.911  0.9046 -2.9798  0.0141
 5964SOL     OW28820   1.729   5.366   3.516 -0.4008 -0.6465  0.3423
 5964SOL    HW128821   1.764   5.456   3.488 -1.5292 -0.0852  0.6537
 5964SOL    HW228822   1.768   5.341   3.605 -0.1054 -0.4319  0.2726
 5965SOL     OW28823   8.008   5.026   1.269  0.1900  0.0413  0.4130
 5965SOL    HW128824   7.999   5.005   1.367  0.1233 -2.2434 -0.0424
 5965SOL    HW228825   7.948   4.965   1.217 -0.7307  2.1203 -0.9779
 5966SOL     OW28826   2.828   8.479   1.353 -0.0692 -0.0187  0.0593
 5966SOL    HW128827   2.842   8.517   1.444 -0.6566 -0.1659  0.2115
 5966SOL    HW228828   2.912   8.432   1.324  1.2127  2.7022 -0.7878
 5967SOL     OW28829   9.885   6.603   6.141 -0.4603  0.7249  0.4589
 5967SOL    HW128830   9.978   6.639   6.149  0.6421 -1.8305 -0.4969
 5967SOL    HW228831   9.823   6.677   6.113  1.6975  1.9266 -1.2859
 5968SOL     OW28832   9.639   3.837   1.117 -0.1840 -0.2427  0.7704
 5968SOL    HW128833   9.555   3.788   1.141  0.2540 -1.6224 -0.4595
 5968SOL    HW228834   9.686   3.789   1.043  0.9156  1.3587  0.4047
 5969SOL     OW28835   8.333   3.412   5.266 -0.2524  0.3035 -0.3089
 5969SOL    HW128836   8.307   3.360   5.347 -1.2619 -1.4561 -1.7288
 5969SOL    HW228837   8.271   3.390   5.191  1.5291  0.8012 -1.9731
 5970SOL     OW28838   0.172   9.220   3.904 -0.0835 -0.0042  0.9749
 5970SOL    HW128839   0.089   9.232   3.958 -0.4688  1.3748  0.0955
 5970SOL    HW228840   0.147   9.186   3.813  0.2659  0.7233  0.6004
 5971SOL     OW28841   2.309   5.973   2.282 -0.0256 -0.3632  0.0004
 5971SOL    HW128842   2.289   5.886   2.325  0.4024 -1.0369 -1.1372
 5971SOL    HW228843   2.368   6.028   2.342  1.5445 -1.7710 -0.2347
 5972SOL     OW28844   0.742   6.316   2.765 -0.1911 -0.1463 -0.4607
 5972SOL    HW128845   0.733   6.257   2.684 -0.3662 -0.5297 -0.1614
 5972SOL    HW228846   0.673   6.291   2.832 -0.4728  0.6179 -0.4630
 5973SOL     OW28847   0.772   0.272   1.386 -0.1803  0.2641 -0.3332
 5973SOL    HW128848   0.682   0.259   1.428  0.4054 -1.6568  0.3998
 5973SOL    HW228849   0.812   0.358   1.417 -2.1821  1.6388 -1.4761
 5974SOL     OW28850   1.240   6.104   3.469  0.2413  0.4284 -0.0253
 5974SOL    HW128851   1.233   6.016   3.516 -0.7045  0.4332 -0.1338
 5974SOL    HW228852   1.331   6.143   3.483  0.3902 -0.1787  0.7052
 5975SOL     OW28853   0.653   5.276   0.194 -0.3779  0.1841 -0.8742
 5975SOL    HW128854   0.658   5.207   0.122  1.1319  0.6273 -1.2070
 5975SOL    HW228855   0.742   5.318   0.206 -0.9411  1.0585  0.3436
 5976SOL     OW28856   0.350   5.529   3.503  0.1681  0.8526  0.1454
 5976SOL    HW128857   0.428   5.523   3.442  0.0366  0.6152 -0.0029
 5976SOL    HW228858   0.266   5.540   3.450 -0.2570 -2.0208  0.1038
 5977SOL     OW28859   8.947   5.660   5.498  0.2571  0.6863 -0.0566
 5977SOL    HW128860   9.026   5.642   5.557  1.0795  1.6319 -0.8379
 5977SOL    HW228861   8.877   5.591   5.513  0.0063  1.4862  2.7983
 5978SOL     OW28862   8.267   5.144   3.382  0.5169  0.1790 -0.4014
 5978SOL    HW128863   8.299   5.148   3.476 -0.3974 -1.9923  0.0316
 5978SOL    HW228864   8.333   5.093   3.326  0.0101 -0.4023 -0.4718
 5979SOL     OW28865   3.217   6.915   2.421  0.5640  0.5858 -0.0893
 5979SOL    HW128866   3.146   6.945   2.357 -0.0582  0.1909  0.4021
 5979SOL    HW228867   3.190   6.940   2.514  0.2262 -1.1060  0.2879
 5980SOL     OW28868   7.078   8.450   3.076 -0.1290 -0.5859 -0.2161
 5980SOL    HW128869   7.173   8.476   3.063 -0.0893 -0.3986  0.4268
 5980SOL    HW228870   7.073   8.357   3.112 -0.2316 -1.0460 -1.3865
 5981SOL     OW28871   5.467   9.394   4.749  0.4997  0.0675 -0.8189
 5981SOL    HW128872   5.434   9.489   4.747  0.8017  0.1498 -2.5289
 5981SOL    HW228873   5.563   9.393   4.778 -0.0005  0.1123  0.9241
 5982SOL     OW28874   9.461   5.770   4.515  0.0659  0.0347  0.3753
 5982SOL    HW128875   9.399   5.691   4.525  1.3133 -1.5524 -3.4441
 5982SOL    HW228876   9.532   5.765   4.585 -0.9197 -1.2550  1.3174
 5983SOL     OW28877   2.800   4.945   4.705 -0.3022 -0.7004  0.0581
 5983SOL    HW128878   2.761   4.874   4.763  1.7715 -3.0113 -1.2746
 5983SOL    HW228879   2.804   4.912   4.610 -0.3470  1.6433 -0.7951
 5984SOL     OW28880   3.274   3.519   1.935  0.0669  0.1687 -0.1882
 5984SOL    HW128881   3.189   3.472   1.961 -0.1660  0.2843 -0.7195
 5984SOL    HW228882   3.302   3.580   2.009  0.4107 -0.8521  0.5395
 5985SOL     OW28883   3.115   8.164   5.143  0.3533  0.2450  0.0901
 5985SOL    HW128884   3.151   8.244   5.096 -1.0094  0.5698 -0.4159
 5985SOL    HW228885   3.187   8.123   5.199  0.9037  2.1429  0.8023
 5986SOL     OW28886   0.549   4.476   6.002 -0.1191  0.0290 -0.0750
 5986SOL    HW128887   0.459   4.456   5.964 -0.9982  0.4140  1.7150
 5986SOL    HW228888   0.558   4.575   6.015  0.3970 -0.0405  0.1180
 5987SOL     OW28889   5.179   8.678   2.691  0.0164  0.1827  0.1141
 5987SOL    HW128890   5.264   8.694   2.640 -0.2457  2.3104  0.3364
 5987SOL    HW228891   5.199   8.680   2.789 -0.0439 -0.8285  0.1574
 5988SOL     OW28892   8.101   0.917   3.666 -0.9369 -0.4059 -0.1703
 5988SOL    HW128893   8.074   0.889   3.574 -0.7926  0.8910 -0.6126
 5988SOL    HW228894   8.046   0.867   3.733 -1.0302 -1.3654 -0.9567
 5989SOL     OW28895   7.418   2.386   1.728 -0.5676  0.4566  0.1463
 5989SOL    HW128896   7.508   2.342   1.727 -1.7281 -2.0103 -1.2382
 5989SOL    HW228897   7.366   2.352   1.806 -0.8332  0.7428  0.0951
 5990SOL     OW28898   3.587   2.822   1.774 -0.3429  0.1627  0.2064
 5990SOL    HW128899   3.612   2.776   1.859 -2.0924 -0.5858  0.3383
 5990SOL    HW228900   3.532   2.903   1.795  1.7084  1.6492 -0.0840
 5991SOL     OW28901   0.243   1.079   3.515 -0.1830  0.4684 -0.3598
 5991SOL    HW128902   0.234   1.114   3.608  1.2852  1.0802 -0.4301
 5991SOL    HW228903   0.319   1.014   3.511 -0.4612  0.1761 -1.0649
 5992SOL     OW28904   0.028   8.681   4.567 -0.3852 -0.0811  0.2835
 5992SOL    HW128905  -0.069   8.691   4.544  0.5918  0.8242 -3.7793
 5992SOL    HW228906   0.051   8.584   4.572 -1.3051 -0.2956  0.5440
 5993SOL     OW28907   0.058   4.661   6.110  0.0328  0.1077 -0.0108
 5993SOL    HW128908   0.018   4.594   6.173  1.2927 -0.7703 -0.1399
 5993SOL    HW228909   0.004   4.745   6.114 -1.1803 -0.6742  0.6380
 5994SOL     OW28910   2.933   7.799   0.663 -0.8263 -0.1510  0.1269
 5994SOL    HW128911   3.019   7.786   0.614  0.0574  0.9919  1.3371
 5994SOL    HW228912   2.891   7.885   0.633 -0.2756  0.5594  1.3698
 5995SOL     OW28913   1.570   3.669   5.388  0.3332 -0.0112  0.6110
 5995SOL    HW128914   1.570   3.596   5.320  0.7560  0.6224 -0.0818
 5995SOL    HW228915   1.482   3.716   5.387  0.3635  0.0429  0.4460
 5996SOL     OW28916   4.517   8.104   2.103 -1.0711 -0.0788 -0.1909
 5996SOL    HW128917   4.571   8.043   2.044  0.1389  1.2992 -0.5281
 5996SOL    HW228918   4.486   8.053   2.183 -1.3796 -1.5520 -1.2301
 5997SOL     OW28919   8.928   9.762   4.412 -0.3296 -0.0994  0.3071
 5997SOL    HW128920   8.966   9.746   4.503 -0.6509  1.7523  0.7867
 5997SOL    HW228921   8.829   9.763   4.417 -0.3334  1.1926  0.1654
 5998SOL     OW28922   2.548   2.983   1.634 -0.1451 -0.0340 -0.7904
 5998SOL    HW128923   2.625   3.045   1.621 -0.2699  0.1753 -0.5468
 5998SOL    HW228924   2.573   2.913   1.701 -0.3201  0.3037 -0.3683
 5999SOL     OW28925   0.962   1.849   1.109  0.3960 -0.4444 -0.4304
 5999SOL    HW128926   0.888   1.787   1.081 -1.8971  1.9702 -0.0008
 5999SOL    HW228927   0.923   1.939   1.129  3.5953  1.1143 -0.9085
 6000SOL     OW28928   1.275   2.649   4.923  0.2491 -0.1223 -0.8777
 6000SOL    HW128929   1.324   2.563   4.910  1.1374  0.2738 -0.1074
 6000SOL    HW228930   1.243   2.656   5.017  0.7739  0.7129 -0.7590
 6001SOL     OW28931   4.991   9.344   4.583  0.4712 -0.3455 -0.3710
 6001SOL    HW128932   4.945   9.382   4.503 -0.3615 -0.5516  0.0054
 6001SOL    HW228933   4.971   9.246   4.589 -0.0625 -0.1870  0.4903
 6002SOL     OW28934   2.310   9.391   2.382  0.3033  0.0331  0.0289
 6002SOL    HW128935   2.210   9.391   2.373  0.3110  3.1827 -0.7907
 6002SOL    HW228936   2.335   9.412   2.476  0.1980 -0.1101  0.0900
 6003SOL     OW28937   4.470   0.878   3.793 -0.0122  0.6477  0.2326
 6003SOL    HW128938   4.505   0.966   3.825 -0.9769  1.3389 -0.5701
 6003SOL    HW228939   4.507   0.859   3.702  0.3977  0.1099  0.5165
 6004SOL     OW28940   7.487   3.958   0.538  0.0807  0.0291  0.9711
 6004SOL    HW128941   7.472   3.956   0.439  0.6313 -1.3703  0.8963
 6004SOL    HW228942   7.481   3.865   0.574  1.1228  0.3745  2.0701
 6005SOL     OW28943   0.293   5.112   2.526  0.4326  0.1154  0.6639
 6005SOL    HW128944   0.384   5.138   2.559  2.3496 -2.7790 -2.1023
 6005SOL    HW228945   0.242   5.068   2.601  2.4344 -0.9925  1.3925
 6006SOL     OW28946   1.132   8.225   0.012 -0.5862 -0.4526 -0.3102
 6006SOL    HW128947   1.080   8.222   0.098 -0.8550 -0.5398 -0.4742
 6006SOL    HW228948   1.095   8.156  -0.051 -0.2611 -0.5248 -0.4200
 6007SOL     OW28949   8.152   9.745   3.693  0.3223 -0.0259 -0.2458
 6007SOL    HW128950   8.055   9.762   3.714  0.2877 -0.8358  0.2647
 6007SOL    HW228951   8.196   9.831   3.668 -0.6416  0.2838 -0.9336
 6008SOL     OW28952   2.739   3.200   1.686 -0.1492  0.2447  0.3723
 6008SOL    HW128953   2.822   3.176   1.735 -0.0921 -1.3256 -0.4488
 6008SOL    HW228954   2.659   3.182   1.743  0.0509  1.7490  1.1583
 6009SOL     OW28955   4.836   0.927   0.566  0.6358 -0.5853  0.2511
 6009SOL    HW128956   4.935   0.935   0.577  0.9807 -1.9724 -1.6559
 6009SOL    HW228957   4.809   0.831   0.572 -0.3677 -0.4008 -1.0736
 6010SOL     OW28958   8.535   7.893   2.350  0.1035  0.0044 -0.0172
 6010SOL    HW128959   8.596   7.914   2.274  1.0149  0.6028  0.8705
 6010SOL    HW228960   8.508   7.978   2.396 -1.9347 -0.1902 -0.7984
 6011SOL     OW28961   2.683   6.462   6.479  0.3563 -0.0371 -0.2188
 6011SOL    HW128962   2.659   6.367   6.500  1.1642 -0.4819 -1.2839
 6011SOL    HW228963   2.613   6.502   6.420 -0.2752  0.2265  0.6795
 6012SOL     OW28964   7.518   8.981   3.239  0.2278 -0.0293  0.6386
 6012SOL    HW128965   7.541   9.027   3.153  1.5628 -0.4417  0.7527
 6012SOL    HW228966   7.545   9.039   3.316  2.3592 -1.1609  0.7893
 6013SOL     OW28967   1.397   6.037   5.660 -0.3052 -0.1916 -0.1576
 6013SOL    HW128968   1.373   5.941   5.677  0.6922 -0.4628 -0.2248
 6013SOL    HW228969   1.482   6.041   5.607 -0.4431  0.7283 -0.3123
 6014SOL     OW28970   0.287   4.216   4.445 -0.0627  0.3338 -0.0183
 6014SOL    HW128971   0.252   4.123   4.459 -1.7010  0.4892 -2.6194
 6014SOL    HW228972   0.370   4.213   4.389  0.0525  0.4150  0.1477
 6015SOL     OW28973   7.101   7.168   4.676 -0.0867 -0.0359 -0.4003
 6015SOL    HW128974   7.169   7.097   4.692  0.1570  0.2128 -0.3332
 6015SOL    HW228975   7.127   7.222   4.596 -0.2619 -0.0101 -0.4397
 6016SOL     OW28976   4.752   8.547   3.024  0.0509  0.1334 -0.4572
 6016SOL    HW128977   4.793   8.617   2.965 -1.1172  0.8162 -0.4693
 6016SOL    HW228978   4.687   8.590   3.087  0.1889 -0.7886  0.3253
 6017SOL     OW28979   1.264   0.047   3.645  0.1663  0.3169 -0.3324
 6017SOL    HW128980   1.280   0.091   3.557  0.3058 -1.9452 -1.4758
 6017SOL    HW228981   1.167   0.023   3.653  0.3744 -0.5991 -0.4322
 6018SOL     OW28982   8.395   5.479   3.238  0.3236 -0.0300 -0.1955
 6018SOL    HW128983   8.416   5.386   3.209  0.5445  0.1974 -0.7696
 6018SOL    HW228984   8.346   5.477   3.325 -0.8085 -0.7288 -0.8517
 6019SOL     OW28985   0.910   8.328   3.191 -0.4506  0.1657 -0.1827
 6019SOL    HW128986   0.812   8.313   3.179 -0.3925  1.1670 -2.0109
 6019SOL    HW228987   0.924   8.389   3.269 -1.3854  1.2853 -0.8607
 6020SOL     OW28988   1.069   1.848   1.384  0.4224  0.0662  0.3788
 6020SOL    HW128989   1.007   1.855   1.462  0.1979 -1.8221  0.3991
 6020SOL    HW228990   1.017   1.831   1.301  0.8519 -0.7443  0.2688
 6021SOL     OW28991   4.768   3.435   1.668 -0.7292  0.8199 -0.4320
 6021SOL    HW128992   4.679   3.480   1.667 -0.6125  1.0699  0.1327
 6021SOL    HW228993   4.756   3.336   1.658 -0.9223  1.0500 -2.9311
 6022SOL     OW28994   4.553   2.000   1.982 -0.7643 -1.0846  0.1003
 6022SOL    HW128995   4.500   2.035   1.904  0.3443 -0.0989 -0.2239
 6022SOL    HW228996   4.498   1.932   2.031 -1.1186 -2.4731 -2.1361
 6023SOL     OW28997   3.103   3.134   1.416 -0.2272 -0.5294  0.2677
 6023SOL    HW128998   3.012   3.112   1.380 -0.0012 -0.3388 -0.4327
 6023SOL    HW228999   3.112   3.233   1.424  0.7395 -0.4038 -1.8892
 6024SOL     OW29000   9.385   4.119   1.266 -0.3174  0.0435 -0.2357
 6024SOL    HW129001   9.306   4.071   1.303  0.9804 -2.1602 -0.2611
 6024SOL    HW229002   9.389   4.105   1.167  1.4831 -1.9374  0.0997
 6025SOL     OW29003   7.359   1.465   1.323 -0.9605 -0.5997  0.2823
 6025SOL    HW129004   7.343   1.516   1.408 -2.2779 -2.0636  0.9413
 6025SOL    HW229005   7.457   1.461   1.305 -0.7683  1.0493  0.9040
 6026SOL     OW29006   8.073   0.582   1.754  0.3384  0.0576 -0.1621
 6026SOL    HW129007   7.986   0.625   1.779 -0.1507 -1.5964  1.0835
 6026SOL    HW229008   8.125   0.561   1.837  0.6678 -1.5004 -0.7474
 6027SOL     OW29009   0.155   1.339   1.451  0.1936 -0.1458  0.3232
 6027SOL    HW129010   0.072   1.311   1.402  0.2980 -1.3531  0.8263
 6027SOL    HW229011   0.135   1.349   1.548  0.8373 -1.3018  0.5836
 6028SOL     OW29012   2.491   3.939   4.229 -0.0136 -0.5839  0.7917
 6028SOL    HW129013   2.429   3.871   4.189  1.7092 -0.3367 -2.3678
 6028SOL    HW229014   2.469   4.029   4.193  0.3746 -0.0494  1.8712
 6029SOL     OW29015   3.413   6.326   3.776 -0.6624  0.1010 -0.5213
 6029SOL    HW129016   3.476   6.264   3.730  0.2143 -1.8753  3.1487
 6029SOL    HW229017   3.462   6.408   3.806 -0.6561  0.1687 -0.7113
 6030SOL     OW29018   5.332   5.999   2.180 -0.5609 -0.1677 -0.5686
 6030SOL    HW129019   5.284   6.077   2.219 -0.5705 -0.2442 -0.4286
 6030SOL    HW229020   5.315   5.918   2.236  1.2469  0.1995  0.5220
 6031SOL     OW29021   7.748   9.199   3.854  0.0130 -0.1819 -0.4921
 6031SOL    HW129022   7.691   9.149   3.918  1.5790 -0.2737  0.8594
 6031SOL    HW229023   7.713   9.293   3.844 -0.8443 -0.4846 -0.3280
 6032SOL     OW29024   9.544   2.924   1.644  0.0714 -0.0112 -0.8711
 6032SOL    HW129025   9.580   2.849   1.700  1.0403  0.1009 -1.3175
 6032SOL    HW229026   9.569   3.011   1.686 -3.4888  0.0818  1.1535
 6033SOL     OW29027   3.644   5.494   4.035 -0.5957  0.6492 -0.1805
 6033SOL    HW129028   3.556   5.445   4.035  0.2610 -0.9838 -1.7456
 6033SOL    HW229029   3.666   5.525   4.127 -1.8803 -0.6491  0.5762
 6034SOL     OW29030   1.523   8.445   4.836  0.0136 -0.6154 -0.5200
 6034SOL    HW129031   1.591   8.407   4.899  0.6949 -1.6837 -1.8781
 6034SOL    HW229032   1.544   8.541   4.819  1.4852 -1.0725 -1.3271
 6035SOL     OW29033   9.373   5.804   5.811  0.2744  0.1251  0.3007
 6035SOL    HW129034   9.379   5.732   5.742  0.7080 -1.2598  1.7635
 6035SOL    HW229035   9.389   5.893   5.768 -0.5007 -0.6212 -1.5593
 6036SOL     OW29036   8.565   8.806   1.539  0.5342 -0.0309 -0.4195
 6036SOL    HW129037   8.663   8.786   1.534  0.4430 -0.4899 -0.3670
 6036SOL    HW229038   8.541   8.873   1.468  0.4480 -1.7225 -2.0258
 6037SOL     OW29039   0.096   3.484   5.534 -0.0909 -0.1872  0.1679
 6037SOL    HW129040   0.100   3.455   5.630  0.0699 -1.1002 -0.1190
 6037SOL    HW229041   0.184   3.525   5.508  0.5987 -1.8909 -0.2172
 6038SOL     OW29042   1.017   0.080   4.298 -0.2773 -0.3686  0.6416
 6038SOL    HW129043   1.113   0.102   4.280 -0.1710 -1.5120 -0.1977
 6038SOL    HW229044   0.965   0.165   4.304  0.3451  0.1870 -1.4201
 6039SOL     OW29045   3.764   2.143   3.814  0.2753 -0.1480 -0.1247
 6039SOL    HW129046   3.794   2.165   3.722 -0.7720  1.9777  0.0180
 6039SOL    HW229047   3.813   2.200   3.880  0.6492 -1.2929  0.6155
 6040SOL     OW29048   4.000   3.209   3.333  0.1418 -0.0822 -0.1287
 6040SOL    HW129049   3.968   3.143   3.401 -1.0372 -0.6394 -1.2130
 6040SOL    HW229050   3.925   3.270   3.308  0.9349  0.9956  0.0580
 6041SOL     OW29051   1.241   0.153   2.316  0.0593  0.5602  0.5080
 6041SOL    HW129052   1.160   0.211   2.318 -0.6861 -0.3546 -1.5037
 6041SOL    HW229053   1.217   0.061   2.348  0.3080  0.3242  0.0326
 6042SOL     OW29054   0.548   8.327   3.930 -0.2691 -0.3779 -0.4166
 6042SOL    HW129055   0.563   8.239   3.885  1.1507 -0.9338  1.0701
 6042SOL    HW229056   0.503   8.390   3.867  2.0670 -0.9773 -2.8015
 6043SOL     OW29057   6.040   9.449   2.109 -0.0138  0.3780 -0.6101
 6043SOL    HW129058   5.984   9.373   2.141 -0.2693  1.5957  2.0019
 6043SOL    HW229059   6.133   9.439   2.142  0.3062  0.4547 -1.4801
 6044SOL     OW29060   1.105   7.284   3.683  0.6756  0.0664  0.0652
 6044SOL    HW129061   1.200   7.297   3.710  0.4939  1.2410  0.1475
 6044SOL    HW229062   1.048   7.357   3.722 -0.0117  0.2633 -1.2667
 6045SOL     OW29063   7.566   9.135   3.005 -0.3636 -0.0405 -0.0108
 6045SOL    HW129064   7.568   9.229   2.971  0.2777  0.6508  1.8552
 6045SOL    HW229065   7.552   9.072   2.929  2.3193  1.3523 -1.7562
 6046SOL     OW29066   2.261   7.858   5.694  0.6449  0.3341  0.0082
 6046SOL    HW129067   2.216   7.872   5.606  0.2500 -2.6334 -0.2973
 6046SOL    HW229068   2.200   7.890   5.767 -1.7414 -2.8723 -0.4520
 6047SOL     OW29069   9.342   0.575   1.022 -0.2281 -0.2147 -0.0846
 6047SOL    HW129070   9.319   0.662   1.064 -1.0495 -0.2759 -0.4151
 6047SOL    HW229071   9.310   0.573   0.928  1.3390 -0.2009 -0.6427
 6048SOL     OW29072   7.701   2.720   1.760 -0.3517 -0.4232 -0.5518
 6048SOL    HW129073   7.683   2.660   1.838  1.1744  0.2307  0.3226
 6048SOL    HW229074   7.615   2.740   1.713 -1.2817 -0.8563  0.9279
 6049SOL     OW29075   7.449   9.659   0.834 -0.0815 -0.5878  0.3888
 6049SOL    HW129076   7.413   9.573   0.869 -0.2782  0.1609  2.0765
 6049SOL    HW229077   7.421   9.734   0.894  1.7759  0.3868  0.0737
 6050SOL     OW29078   6.722   1.630   0.376 -0.1809  0.3063 -0.1443
 6050SOL    HW129079   6.789   1.667   0.311  0.7127 -1.3511 -0.2047
 6050SOL    HW229080   6.718   1.689   0.456  0.1647  1.3053 -0.8493
 6051SOL     OW29081   0.896   6.144   1.975  0.6616 -0.7755 -0.3880
 6051SOL    HW129082   0.842   6.149   2.059  1.6837  2.8170  0.1175
 6051SOL    HW229083   0.951   6.060   1.977 -1.5249 -2.2269  1.1340
 6052SOL     OW29084   5.146   8.635   3.732  0.1918 -0.7633 -0.1533
 6052SOL    HW129085   5.189   8.647   3.643  0.9575 -0.8679  0.2010
 6052SOL    HW229086   5.206   8.669   3.803 -1.1055  0.8186  0.2116
 6053SOL     OW29087   3.233   0.506   3.052 -0.0699  0.3201  0.1745
 6053SOL    HW129088   3.294   0.505   3.131 -0.5508  2.5988  0.6009
 6053SOL    HW229089   3.262   0.436   2.987  0.6113 -1.2712  2.1282
 6054SOL     OW29090   6.640   9.572   2.779  0.0399  0.3947  0.2886
 6054SOL    HW129091   6.560   9.626   2.803 -1.7279 -2.0787  0.1226
 6054SOL    HW229092   6.618   9.475   2.786  2.7513 -0.3357 -0.6855
 6055SOL     OW29093   9.297   5.062   2.197 -0.4735  0.5264 -0.1507
 6055SOL    HW129094   9.327   5.126   2.267 -1.6963 -2.6547  3.4162
 6055SOL    HW229095   9.214   5.096   2.154 -1.2641  1.2317  1.8927
 6056SOL     OW29096   0.004   7.498   1.847  0.5636  0.2180  0.2299
 6056SOL    HW129097   0.080   7.434   1.854  1.9635  1.5394 -2.2124
 6056SOL    HW229098   0.039   7.592   1.843 -1.2055  0.8857 -0.4019
 6057SOL     OW29099   0.778   7.203   5.009  0.5297  0.3415 -0.1027
 6057SOL    HW129100   0.715   7.131   4.980  1.2914  0.0779 -1.1494
 6057SOL    HW229101   0.817   7.181   5.098 -0.2690  0.1262  0.1887
 6058SOL     OW29102   9.986   5.555   5.644 -0.0632 -0.1020  0.2567
 6058SOL    HW129103   9.984   5.647   5.683  0.2824  0.1700 -0.3594
 6058SOL    HW229104  10.079   5.518   5.651  0.4286  0.6874 -2.0044
 6059SOL     OW29105   1.802   8.716   1.346  0.4456 -0.3054  0.2524
 6059SOL    HW129106   1.837   8.651   1.278  1.1128 -0.3733  0.6587
 6059SOL    HW229107   1.784   8.668   1.431 -0.9752 -0.3377 -0.0616
 6060SOL     OW29108   9.371   7.826   2.470 -0.0704  0.9346  0.4157
 6060SOL    HW129109   9.413   7.903   2.422  0.2162  0.7040  0.2915
 6060SOL    HW229110   9.428   7.745   2.458  0.2446  0.9773  1.5234
 6061SOL     OW29111   3.468   9.166   4.300  0.0134 -0.1409  0.2249
 6061SOL    HW129112   3.434   9.096   4.238 -0.4295 -0.1521  0.4798
 6061SOL    HW229113   3.511   9.239   4.247 -2.2005  0.8641 -0.2402
 6062SOL     OW29114   1.197   1.892   0.962 -0.0433  0.2262  0.2633
 6062SOL    HW129115   1.280   1.929   1.003  0.8765 -1.0215 -0.4426
 6062SOL    HW229116   1.133   1.864   1.033  0.7715 -0.2271  0.8126
 6063SOL     OW29117   0.445   3.330   4.295 -0.0962  0.4447 -0.1878
 6063SOL    HW129118   0.456   3.402   4.363 -1.5057 -0.6356  1.2312
 6063SOL    HW229119   0.361   3.345   4.243  0.8228  1.1015 -1.5065
 6064SOL     OW29120   8.335   6.364   1.869 -0.3138  0.4738 -0.8843
 6064SOL    HW129121   8.414   6.421   1.847  1.5253 -1.2592  0.9851
 6064SOL    HW229122   8.296   6.395   1.956 -0.0992 -0.2732 -0.5184
 6065SOL     OW29123   9.032   3.593   3.183  0.5221 -0.5820 -0.1337
 6065SOL    HW129124   8.945   3.574   3.227  0.2461 -0.9288 -0.8170
 6065SOL    HW229125   9.084   3.658   3.238 -0.7538  0.7061 -0.4219
 6066SOL     OW29126   9.434   1.280   3.803 -0.0467  0.4079  0.0915
 6066SOL    HW129127   9.396   1.227   3.727  0.6392 -0.7347  0.5344
 6066SOL    HW229128   9.360   1.316   3.859 -0.5916  2.0010 -1.6000
 6067SOL     OW29129   0.613   8.415   1.720  0.0009  0.6537 -0.0473
 6067SOL    HW129130   0.707   8.396   1.748 -0.3845 -0.5672  0.4729
 6067SOL    HW229131   0.555   8.424   1.801 -0.8692 -1.5285 -0.3907
 6068SOL     OW29132   0.276   2.621   2.677  0.4726  0.3012 -0.0769
 6068SOL    HW129133   0.239   2.705   2.636  1.3459  0.7650  0.0683
 6068SOL    HW229134   0.366   2.640   2.717  1.0982 -0.9195 -0.8606
 6069SOL     OW29135   6.577   0.884   2.821  0.5191 -0.0223 -0.1248
 6069SOL    HW129136   6.642   0.912   2.750  1.4938  0.2097  0.8441
 6069SOL    HW229137   6.559   0.961   2.882  0.4799 -0.5177  0.4923
 6070SOL     OW29138   0.023   7.803   3.068  0.1178  0.1258 -0.0913
 6070SOL    HW129139   0.049   7.788   2.972  0.4132 -1.0970  0.1757
 6070SOL    HW229140   0.100   7.779   3.127  0.3438  2.0033  0.4035
 6071SOL     OW29141   0.867   5.732   3.327  0.4750 -0.5430  0.7195
 6071SOL    HW129142   0.800   5.669   3.366  0.1782 -2.3296 -2.5232
 6071SOL    HW229143   0.825   5.785   3.254  1.9747  0.0662  0.2682
 6072SOL     OW29144   9.877   0.238   0.753  0.1926 -0.5165  0.0732
 6072SOL    HW129145   9.885   0.148   0.712  0.0073 -0.9295  0.9397
 6072SOL    HW229146   9.963   0.264   0.796  0.6829  0.3128 -1.3651
 6073SOL     OW29147   1.238   3.731   0.801  0.4088 -0.1520 -0.2158
 6073SOL    HW129148   1.167   3.672   0.839 -0.3573  1.4140  0.8371
 6073SOL    HW229149   1.226   3.824   0.835  0.6429  0.9787 -3.0811
 6074SOL     OW29150   9.068   1.915   1.559  0.2215 -0.3306  0.1540
 6074SOL    HW129151   9.162   1.934   1.591  0.0571  1.8067 -0.5194
 6074SOL    HW229152   9.009   1.902   1.638  0.7677  0.0474  0.6371
 6075SOL     OW29153   2.977   2.408   3.198  0.0462 -0.5240 -0.5474
 6075SOL    HW129154   3.064   2.454   3.180  0.1740 -0.2596  0.6918
 6075SOL    HW229155   2.909   2.474   3.228 -0.2718 -0.8929 -0.4429
 6076SOL     OW29156   1.402   6.868   1.074  0.1439  0.3745  1.1420
 6076SOL    HW129157   1.398   6.965   1.048  3.0507  0.0697 -0.7525
 6076SOL    HW229158   1.430   6.814   0.994 -3.0007 -2.2735  1.7308
 6077SOL     OW29159   3.802   3.020   2.460 -0.3115 -0.0503  0.7963
 6077SOL    HW129160   3.838   2.935   2.421  0.3865  1.5482 -2.2204
 6077SOL    HW229161   3.878   3.081   2.482 -0.9142  1.4305 -1.0581
 6078SOL     OW29162   0.775   3.592   0.288 -0.3404 -0.0579 -0.1940
 6078SOL    HW129163   0.851   3.640   0.244 -1.0328 -0.1473 -1.5314
 6078SOL    HW229164   0.810   3.513   0.338  0.4460 -0.1107 -0.8121
 6079SOL     OW29165   2.866   7.608   3.906  0.1687 -0.1243  0.0825
 6079SOL    HW129166   2.840   7.512   3.912 -1.5806  0.3777  0.8153
 6079SOL    HW229167   2.961   7.615   3.877  0.3666 -2.0773  0.2055
 6080SOL     OW29168   1.755   8.423   2.088 -0.0282  0.4375 -0.4587
 6080SOL    HW129169   1.707   8.339   2.112 -1.5081  1.3547 -0.1290
 6080SOL    HW229170   1.707   8.469   2.014  0.4149  1.3069 -0.2139
 6081SOL     OW29171   5.640   3.890   0.944  0.4682  0.1813 -0.2935
 6081SOL    HW129172   5.685   3.957   0.886 -3.1845  2.7297 -0.4024
 6081SOL    HW229173   5.634   3.925   1.037  0.3131 -0.8789  0.1061
 6082SOL     OW29174   0.681   3.540   1.038  0.8425 -0.1645  0.4549
 6082SOL    HW129175   0.660   3.511   0.944 -1.2655 -2.0379  1.4377
 6082SOL    HW229176   0.752   3.481   1.076 -0.7068 -1.6209  1.1493
 6083SOL     OW29177   6.214   0.617   5.858 -0.1454 -0.6874  0.1744
 6083SOL    HW129178   6.221   0.520   5.881 -0.6641 -0.8286 -0.2619
 6083SOL    HW229179   6.306   0.658   5.860 -0.0699 -0.8763  1.6611
 6084SOL     OW29180   1.029   8.025   2.004  0.8835  0.0167  0.6681
 6084SOL    HW129181   0.946   7.971   1.994  2.0541 -1.5009 -1.2390
 6084SOL    HW229182   1.051   8.036   2.101  0.7042 -3.0870  1.1059
 6085SOL     OW29183   7.640   9.173   2.335 -0.3910  0.2831 -0.1872
 6085SOL    HW129184   7.558   9.118   2.316  0.7383 -0.3114 -3.8468
 6085SOL    HW229185   7.720   9.114   2.335  0.2336  1.1078  1.7055
 6086SOL     OW29186   9.985   7.824   3.790  0.4245 -0.1916  0.1954
 6086SOL    HW129187  10.023   7.905   3.834 -0.7010  0.1079  0.6509
 6086SOL    HW229188   9.890   7.813   3.819  0.5748 -1.6777  0.1366
 6087SOL     OW29189   7.769   9.627   5.948  0.0790  0.5238  0.2806
 6087SOL    HW129190   7.775   9.694   5.874  0.7750  1.2612  0.9992
 6087SOL    HW229191   7.858   9.580   5.957 -0.4471 -0.6182 -0.3264
 6088SOL     OW29192   1.984   8.114   6.425  0.2114  0.0179 -0.0469
 6088SOL    HW129193   1.970   8.024   6.384 -0.9472  0.2699 -0.2308
 6088SOL    HW229194   2.076   8.147   6.405  0.4039 -0.8302 -0.5525
 6089SOL     OW29195   9.091   8.246   2.125  0.4781  0.2498  0.4208
 6089SOL    HW129196   9.142   8.331   2.108 -0.6251  1.0429  1.0233
 6089SOL    HW229197   9.027   8.231   2.050 -0.2378  0.6334  0.9548
 6090SOL     OW29198   9.747   5.851   5.439  0.5569 -0.3776 -0.2052
 6090SOL    HW129199   9.685   5.930   5.439 -0.8055 -1.3837 -2.6821
 6090SOL    HW229200   9.724   5.791   5.516 -1.7004 -0.8202 -1.1925
 6091SOL     OW29201   8.730   9.072   4.255  0.2031 -0.3155 -0.6932
 6091SOL    HW129202   8.653   9.081   4.191  1.1802  0.4249 -1.8035
 6091SOL    HW229203   8.749   8.976   4.271 -1.2393 -0.5013 -0.0563
 6092SOL     OW29204   4.761   1.324   3.109  0.3951 -0.0910  0.0005
 6092SOL    HW129205   4.682   1.323   3.169  1.3373 -1.1029  1.2514
 6092SOL    HW229206   4.733   1.347   3.016 -1.2580  0.1912  0.5663
 6093SOL     OW29207   2.247   7.476   6.616  0.4908  0.6126 -0.2352
 6093SOL    HW129208   2.323   7.436   6.667  0.7102 -1.6359 -2.1951
 6093SOL    HW229209   2.282   7.547   6.555  1.0622 -0.3835 -1.1004
 6094SOL     OW29210   1.960   4.916   3.475  0.0357  0.1635  0.1835
 6094SOL    HW129211   1.878   4.967   3.502  0.4602 -0.3128  2.5279
 6094SOL    HW229212   2.028   4.979   3.436 -1.6527  0.4551 -2.3897
 6095SOL     OW29213   1.406   7.049   0.142 -0.2733  0.5748 -0.3836
 6095SOL    HW129214   1.312   7.074   0.165  0.2126  1.5588  0.5394
 6095SOL    HW229215   1.468   7.088   0.209  0.9562  1.4379 -2.0148
 6096SOL     OW29216   6.871   8.897   1.803 -0.5667 -0.1649  0.2618
 6096SOL    HW129217   6.910   8.817   1.758 -1.8969 -0.3999 -0.4901
 6096SOL    HW229218   6.908   8.980   1.762 -3.2613 -0.3409 -2.6964
 6097SOL     OW29219   0.381   2.967   2.620 -0.1343 -0.1612 -0.1461
 6097SOL    HW129220   0.285   2.940   2.627 -0.5937  1.2532 -0.8625
 6097SOL    HW229221   0.434   2.918   2.689 -1.6087  0.1091  1.2257
 6098SOL     OW29222   9.609   7.311   2.379  0.2105 -0.3319  0.2226
 6098SOL    HW129223   9.636   7.215   2.385  0.5782 -0.1338  2.0968
 6098SOL    HW229224   9.514   7.317   2.349 -0.1303 -1.3251  1.0646
 6099SOL     OW29225   9.755   4.279   5.606  0.0718 -0.0692 -0.2275
 6099SOL    HW129226   9.825   4.229   5.556  0.2176 -0.5933  0.5027
 6099SOL    HW229227   9.765   4.377   5.587  0.2595 -0.2465 -1.0533
 6100SOL     OW29228   9.921   9.329   2.732  0.1021  0.4453 -0.3410
 6100SOL    HW129229   9.953   9.253   2.788  0.0531 -0.4110 -1.4486
 6100SOL    HW229230   9.861   9.294   2.659 -1.0491  1.6982 -0.0240
 6101SOL     OW29231   5.306   9.310   3.504  0.3046  0.2121 -0.3483
 6101SOL    HW129232   5.354   9.339   3.587 -2.6951  1.6243  0.9415
 6101SOL    HW229233   5.292   9.211   3.507  0.5960  0.1920  0.6065
 6102SOL     OW29234   2.590   4.438   1.311 -0.1772  0.8145  0.3188
 6102SOL    HW129235   2.589   4.480   1.220 -0.9470 -0.7992 -0.4289
 6102SOL    HW229236   2.668   4.376   1.319 -1.4503 -0.8692 -0.0962
 6103SOL     OW29237   7.907   9.456   1.803 -0.1853  0.2895  0.2967
 6103SOL    HW129238   7.926   9.514   1.882  3.9109  1.7088 -1.6262
 6103SOL    HW229239   7.895   9.512   1.721  0.4633 -1.3966 -0.9928
 6104SOL     OW29240   4.444   0.565   2.036 -1.3992 -0.4099  0.0455
 6104SOL    HW129241   4.538   0.588   2.013 -1.9921  0.0854 -1.9954
 6104SOL    HW229242   4.443   0.494   2.107  0.5268 -1.3252 -0.8092
 6105SOL     OW29243   8.652   6.694   4.291  0.0559  0.3672  0.2439
 6105SOL    HW129244   8.721   6.766   4.288  0.4861  0.0221  1.4966
 6105SOL    HW229245   8.670   6.629   4.217  0.3533  0.9275 -0.1804
 6106SOL     OW29246   9.331   6.744   3.799  0.4828  0.0060 -0.2480
 6106SOL    HW129247   9.387   6.814   3.756 -0.8259  0.3801 -1.3957
 6106SOL    HW229248   9.325   6.761   3.897  0.6057  1.2062 -0.4426
 6107SOL     OW29249   3.273   7.696   5.302 -0.2165 -0.0558  0.1197
 6107SOL    HW129250   3.318   7.657   5.222 -0.5991 -0.1925 -0.0258
 6107SOL    HW229251   3.271   7.627   5.375 -0.1120 -0.0197  0.1563
 6108SOL     OW29252   8.466   5.368   6.115  0.3768  0.3903  0.8289
 6108SOL    HW129253   8.472   5.445   6.178 -0.8772 -0.1981  1.6861
 6108SOL    HW229254   8.467   5.282   6.165 -0.9716 -0.0771  0.1021
 6109SOL     OW29255   5.322   7.164   2.737  0.7099 -0.5994  0.4650
 6109SOL    HW129256   5.395   7.155   2.805 -1.4069  0.9046  3.0053
 6109SOL    HW229257   5.267   7.081   2.736  1.6842 -1.2543 -0.5980
 6110SOL     OW29258   2.349   8.330   2.703 -0.1774  0.2975 -0.1847
 6110SOL    HW129259   2.267   8.300   2.655  0.8638 -0.7054 -1.3576
 6110SOL    HW229260   2.324   8.367   2.793 -1.7035 -2.1193  0.4214
 6111SOL     OW29261   1.775   9.107   3.000 -0.1138  0.4789 -0.3634
 6111SOL    HW129262   1.793   9.009   3.009 -0.9995  0.3473  0.0856
 6111SOL    HW229263   1.802   9.153   3.085 -1.7622  0.2894  0.2908
 6112SOL     OW29264   9.956   4.086   1.252 -0.4046 -0.2652 -0.7869
 6112SOL    HW129265  10.002   4.024   1.189  0.1278 -0.0388 -0.6309
 6112SOL    HW229266  10.025   4.143   1.298 -0.9544  1.0880 -1.6227
 6113SOL     OW29267   6.034   0.304   0.481  0.1564 -0.5595  0.1818
 6113SOL    HW129268   6.094   0.339   0.409 -0.8803  0.3041 -0.2835
 6113SOL    HW229269   6.089   0.269   0.557  1.2363  2.4584  0.8393
 6114SOL     OW29270   7.934   2.943   3.586  0.4639 -0.1356 -0.3922
 6114SOL    HW129271   7.865   2.998   3.538 -0.2229  0.9404  1.7866
 6114SOL    HW229272   7.899   2.850   3.598 -0.5321  0.3443  0.5082
 6115SOL     OW29273   6.841   0.693   4.556  0.5085  0.3810 -0.3134
 6115SOL    HW129274   6.815   0.629   4.484  0.9841 -0.4775  0.2673
 6115SOL    HW229275   6.935   0.722   4.543  1.5960 -2.0571  1.5657
 6116SOL     OW29276   3.178   8.358   4.961 -0.2768 -0.4422  0.1754
 6116SOL    HW129277   3.260   8.313   4.927 -0.9760 -1.9167  0.3935
 6116SOL    HW229278   3.133   8.407   4.886  1.2475  1.0946  0.2403
 6117SOL     OW29279   1.297   4.773   0.498  0.0486  0.2341 -0.2485
 6117SOL    HW129280   1.246   4.840   0.552  2.5258  1.7143  0.3317
 6117SOL    HW229281   1.262   4.773   0.404 -0.2007  2.1240 -0.1816
 6118SOL     OW29282   6.952   0.850   1.500 -0.3587  0.2694  0.1125
 6118SOL    HW129283   6.946   0.949   1.501 -1.5009  0.2291 -1.0057
 6118SOL    HW229284   6.944   0.817   1.406  1.4422 -0.8079  0.3234
 6119SOL     OW29285   0.840   3.451   6.341  0.4307  0.2386  0.4333
 6119SOL    HW129286   0.928   3.469   6.298 -0.6391  1.7247 -1.2233
 6119SOL    HW229287   0.833   3.355   6.367  2.5247  0.1228  0.5935
 6120SOL     OW29288   9.349   0.778   1.642  0.9698  0.4435 -0.3820
 6120SOL    HW129289   9.306   0.809   1.727  0.3095  0.2060 -0.6329
 6120SOL    HW229290   9.281   0.775   1.569  1.1036 -1.2973 -0.4428
 6121SOL     OW29291   1.597   4.818   3.996 -0.2225 -0.3800 -0.4184
 6121SOL    HW129292   1.690   4.796   3.965  0.5013 -1.0788  2.1824
 6121SOL    HW229293   1.540   4.840   3.916  1.7749 -1.4020 -2.1769
 6122SOL     OW29294   9.675   9.156   4.596  0.2862 -0.4337  0.1105
 6122SOL    HW129295   9.658   9.214   4.515  0.1721 -1.7830 -0.8472
 6122SOL    HW229296   9.631   9.198   4.676 -1.0847  0.0399 -0.8625
 6123SOL     OW29297   3.322   8.030   1.793 -0.1997 -0.0507 -0.8447
 6123SOL    HW129298   3.400   8.080   1.756 -0.3670  0.6193 -0.2918
 6123SOL    HW229299   3.321   8.038   1.893  0.0891 -1.6263 -0.6970
 6124SOL     OW29300   1.539   2.315   3.625  0.3011 -0.4115  0.6392
 6124SOL    HW129301   1.593   2.231   3.615  0.2213 -0.3452 -0.3604
 6124SOL    HW229302   1.445   2.292   3.651  0.6388 -0.5576  1.7621
 6125SOL     OW29303   1.350   7.732   1.833 -0.1049 -0.6050  0.4599
 6125SOL    HW129304   1.401   7.818   1.834  1.4323 -1.4335 -2.0127
 6125SOL    HW229305   1.331   7.704   1.927  0.0913  2.0036  1.3177
 6126SOL     OW29306   8.299   7.118   3.082  0.1407 -0.1001  0.1606
 6126SOL    HW129307   8.371   7.051   3.066 -0.8828 -0.6022 -2.5697
 6126SOL    HW229308   8.340   7.206   3.106  1.6065 -0.7482  0.0881
 6127SOL     OW29309   1.313   9.338   4.963  0.3500  0.0020 -0.3850
 6127SOL    HW129310   1.290   9.272   5.034  0.8125 -2.0613 -2.0919
 6127SOL    HW229311   1.238   9.403   4.951  1.0441  1.6067  3.2801
 6128SOL     OW29312   3.637   1.652   2.803 -0.7689 -0.7656  0.4524
 6128SOL    HW129313   3.595   1.672   2.891 -1.9378  2.9717 -0.8744
 6128SOL    HW229314   3.604   1.564   2.770 -1.6361 -1.4108  2.9161
 6129SOL     OW29315   4.405   7.877   4.000  0.1705  0.1903  0.0928
 6129SOL    HW129316   4.401   7.796   4.059 -0.8106  0.4919  0.4429
 6129SOL    HW229317   4.312   7.910   3.983  0.4528  0.1979 -1.4981
 6130SOL     OW29318   1.443   6.406   4.480  0.0884  0.0383 -0.0959
 6130SOL    HW129319   1.527   6.415   4.426  0.8918 -2.3236  0.7059
 6130SOL    HW229320   1.451   6.327   4.541 -2.4813  0.1662  0.4482
 6131SOL     OW29321   9.854   4.916   0.789 -0.5148  0.4655 -0.3289
 6131SOL    HW129322   9.948   4.908   0.755 -0.6652  2.1628 -1.2329
 6131SOL    HW229323   9.855   4.955   0.881 -0.1499 -3.3754  1.3986
 6132SOL     OW29324   5.240   0.545   4.193  0.1827  0.1679  0.0045
 6132SOL    HW129325   5.338   0.533   4.204  0.3762  1.4730 -0.1622
 6132SOL    HW229326   5.191   0.467   4.232  1.2930 -0.5935 -0.1286
 6133SOL     OW29327   7.669   7.756   2.684 -0.6386  0.1621  0.1721
 6133SOL    HW129328   7.714   7.792   2.603  0.4487 -1.2281  0.1260
 6133SOL    HW229329   7.737   7.707   2.740 -1.3129  1.3320  2.0412
 6134SOL     OW29330   9.684   8.498   2.793  0.0361  0.0928  0.1952
 6134SOL    HW129331   9.721   8.415   2.836  0.6667  0.2919  0.0515
 6134SOL    HW229332   9.588   8.508   2.817 -0.5642 -1.7264 -1.4037
 6135SOL     OW29333   1.029   5.758   5.790 -0.4141  0.2441 -0.1114
 6135SOL    HW129334   0.998   5.686   5.727  0.5884 -0.7638  0.5128
 6135SOL    HW229335   1.127   5.775   5.775 -0.4859  0.9745  0.2345
 6136SOL     OW29336   0.171   3.338   2.888  0.0526  0.0598  0.0163
 6136SOL    HW129337   0.187   3.239   2.881 -0.3837 -0.3889  3.9177
 6136SOL    HW229338   0.079   3.354   2.925 -0.5328  2.0024 -2.2011
 6137SOL     OW29339   7.813   0.883   2.734 -0.2468  0.2514  0.1351
 6137SOL    HW129340   7.779   0.804   2.683  0.1377 -2.2996  3.6243
 6137SOL    HW229341   7.737   0.928   2.780 -0.4930  2.1038 -2.0075
 6138SOL     OW29342   3.771   7.072   3.599 -0.1862  0.1213  0.0765
 6138SOL    HW129343   3.775   7.170   3.617  1.6118 -0.1934  1.6396
 6138SOL    HW229344   3.806   7.053   3.508  0.0400  0.8806 -0.0013
 6139SOL     OW29345   5.061   9.703   2.209 -0.3504  0.1199 -0.2181
 6139SOL    HW129346   5.052   9.760   2.290 -0.7132 -1.5260  0.9251
 6139SOL    HW229347   4.971   9.674   2.177 -0.1400 -0.3080 -0.4368
 6140SOL     OW29348   6.516   9.761   3.367  0.3780  0.3321  0.4389
 6140SOL    HW129349   6.490   9.714   3.452  0.7141  0.2287  0.4827
 6140SOL    HW229350   6.613   9.781   3.368  0.9876 -2.2823 -1.1899
 6141SOL     OW29351   2.225   6.791   2.515 -0.3765  0.1412  0.6222
 6141SOL    HW129352   2.275   6.748   2.441  3.4508  2.9552  1.3893
 6141SOL    HW229353   2.192   6.881   2.485 -0.4055  0.5110  1.7277
 6142SOL     OW29354   7.977   1.196   1.271 -0.0908 -0.0169 -0.1240
 6142SOL    HW129355   7.932   1.108   1.281 -2.2091  0.8466 -1.7014
 6142SOL    HW229356   7.980   1.242   1.360 -0.9693 -0.7457  0.2936
 6143SOL     OW29357   1.743   8.654   3.935  0.1729 -0.1977  0.1249
 6143SOL    HW129358   1.715   8.582   3.998 -2.2613 -0.3412 -1.0442
 6143SOL    HW229359   1.841   8.669   3.943 -0.1731  0.6070  4.7980
 6144SOL     OW29360   3.447   9.455   3.111  0.0173  0.2969  0.0969
 6144SOL    HW129361   3.497   9.380   3.067  0.1792  0.6427 -0.3032
 6144SOL    HW229362   3.439   9.436   3.209  1.1694  0.3808  0.2133
 6145SOL     OW29363   7.934   0.058   2.608 -0.7660 -0.2439  0.9034
 6145SOL    HW129364   7.976   0.034   2.695  0.2873  0.2545  0.5423
 6145SOL    HW229365   7.986   0.132   2.565 -2.7399  1.2572  1.0219
 6146SOL     OW29366   0.563   8.749   1.082  0.3060  0.1226  0.3483
 6146SOL    HW129367   0.602   8.765   1.173  0.7547  0.5976  0.0706
 6146SOL    HW229368   0.515   8.661   1.082 -1.3793  1.0255  1.6028
 6147SOL     OW29369   6.395   7.957   3.921  0.1657  0.9106 -0.4932
 6147SOL    HW129370   6.365   8.032   3.863  0.6201  0.0868 -1.8385
 6147SOL    HW229371   6.360   7.871   3.884 -0.0702  0.4276  0.8320
 6148SOL     OW29372   1.192   7.429   6.462  0.0487 -0.4148 -0.2787
 6148SOL    HW129373   1.281   7.394   6.491  0.9792  3.2119  1.6144
 6148SOL    HW229374   1.204   7.497   6.390 -1.4228 -1.4548 -1.5592
 6149SOL     OW29375   1.250   4.787   2.880  0.1351 -0.4666 -0.4122
 6149SOL    HW129376   1.212   4.708   2.927  0.9466  0.0922  1.2213
 6149SOL    HW229377   1.333   4.817   2.927 -0.1193  1.3147 -1.0468
 6150SOL     OW29378   8.592   1.705   4.074  0.5903 -0.1065  0.3355
 6150SOL    HW129379   8.601   1.733   4.170  1.4817  1.0119 -0.0606
 6150SOL    HW229380   8.633   1.615   4.061  0.0366 -0.4768  1.0963
 6151SOL     OW29381   3.600   8.296   1.170 -0.0794  0.2836 -0.4135
 6151SOL    HW129382   3.574   8.258   1.259  2.0870  3.0881  1.5046
 6151SOL    HW229383   3.699   8.283   1.156  0.0181  1.9341 -1.3569
 6152SOL     OW29384   7.135   1.440   4.353  0.5211  0.2397  0.1838
 6152SOL    HW129385   7.053   1.410   4.400  0.8331 -0.0083  0.5684
 6152SOL    HW229386   7.110   1.478   4.264  0.0442 -0.3794  0.0487
 6153SOL     OW29387   4.755   0.647   2.721  0.0977 -0.7625  0.0778
 6153SOL    HW129388   4.748   0.571   2.657  3.7471  0.3662 -1.7723
 6153SOL    HW229389   4.726   0.731   2.676 -1.1083 -0.5363  1.2145
 6154SOL     OW29390   0.869   5.343   3.017 -0.4917  0.8282 -0.5995
 6154SOL    HW129391   0.952   5.296   2.988 -1.7521 -1.4008 -0.6795
 6154SOL    HW229392   0.885   5.386   3.106  0.4516 -0.4498 -0.1287
 6155SOL     OW29393   8.534   1.928   5.150  0.5364  0.7446  0.2895
 6155SOL    HW129394   8.483   1.908   5.234 -0.2238  1.8217  0.1091
 6155SOL    HW229395   8.554   2.026   5.147  2.4868  0.3497  0.2632
 6156SOL     OW29396   1.281   5.437   6.056  0.3627  0.3905 -0.4696
 6156SOL    HW129397   1.366   5.385   6.051  0.5417  0.6372  0.0005
 6156SOL    HW229398   1.215   5.388   6.113  1.2663  1.6974  1.7410
 6157SOL     OW29399   8.111   0.107   5.026 -0.0789  0.0038 -0.0639
 6157SOL    HW129400   8.070   0.017   5.032  0.0168 -0.0198  0.2214
 6157SOL    HW229401   8.099   0.143   4.933 -1.7988  0.5105  0.3366
 6158SOL     OW29402   5.976   8.150   3.357  0.2835 -0.3517 -0.1596
 6158SOL    HW129403   5.977   8.108   3.448 -0.1930 -0.3661 -0.1561
 6158SOL    HW229404   5.881   8.167   3.330  0.3420 -1.6176 -1.2266
 6159SOL     OW29405   9.626   6.929   1.694  0.3405 -0.1145 -0.3399
 6159SOL    HW129406   9.604   6.869   1.771 -1.5098 -0.0009 -0.7753
 6159SOL    HW229407   9.678   6.877   1.626  0.3038 -0.7334  0.1008
 6160SOL     OW29408   3.452   7.740   3.654  0.4796 -0.6295  0.1144
 6160SOL    HW129409   3.426   7.761   3.748  2.8351  0.5916  0.5313
 6160SOL    HW229410   3.389   7.785   3.591 -1.8014 -2.3783  1.0716
 6161SOL     OW29411   9.930   1.194   1.798  0.0068 -0.1046 -0.5312
 6161SOL    HW129412   9.971   1.285   1.787 -2.9418  1.4499  0.5672
 6161SOL    HW229413   9.848   1.188   1.741  0.9415 -2.6447 -1.6887
 6162SOL     OW29414   1.787   2.945   4.006 -0.3906  0.2428 -0.4423
 6162SOL    HW129415   1.775   2.938   4.105 -1.9999  1.4670 -0.5306
 6162SOL    HW229416   1.885   2.945   3.984 -0.0280 -0.6866  1.0823
 6163SOL     OW29417   1.695   4.907   4.241 -0.5067  0.3582  0.2686
 6163SOL    HW129418   1.644   4.883   4.159 -2.3208  0.6827  1.2944
 6163SOL    HW229419   1.748   4.991   4.224 -0.1489 -0.0880 -0.8510
 6164SOL     OW29420   4.510   2.180   3.384  0.2658 -0.3161  0.0390
 6164SOL    HW129421   4.486   2.241   3.460 -1.1220 -0.4246 -0.2861
 6164SOL    HW229422   4.607   2.189   3.362  0.9802 -1.2528  2.6773
 6165SOL     OW29423   4.633   4.271   0.019 -0.2739 -0.0236 -0.1557
 6165SOL    HW129424   4.650   4.228  -0.069 -0.3132  2.6500 -1.5215
 6165SOL    HW229425   4.542   4.244   0.052 -0.3916 -0.7822 -1.0794
 6166SOL     OW29426   0.568   5.586   5.688 -0.2399  0.3379 -0.0732
 6166SOL    HW129427   0.519   5.637   5.758 -1.3637  1.2384 -1.4783
 6166SOL    HW229428   0.635   5.645   5.643  0.7215 -0.3260  0.4647
 6167SOL     OW29429   0.772   2.200   3.609 -0.0759  0.1264  0.0458
 6167SOL    HW129430   0.728   2.186   3.521  0.9253 -4.2141  0.0821
 6167SOL    HW229431   0.702   2.205   3.681 -0.7708 -0.2815 -0.5926
 6168SOL     OW29432   9.417   1.718   0.910 -0.0792  0.5384  0.5688
 6168SOL    HW129433   9.400   1.781   0.834 -0.2842  0.0933  0.2461
 6168SOL    HW229434   9.510   1.734   0.945 -0.0605  0.8925  0.3698
 6169SOL     OW29435   2.523   7.665   6.700  0.0669 -0.0189  0.0519
 6169SOL    HW129436   2.450   7.707   6.647  0.4198  0.8335  0.2439
 6169SOL    HW229437   2.588   7.621   6.638  0.5549  1.0968 -0.2249
 6170SOL     OW29438   4.053   8.143   4.990 -0.1061 -0.5733 -0.1131
 6170SOL    HW129439   3.990   8.074   4.956  0.9371 -1.3106 -0.5665
 6170SOL    HW229440   4.144   8.104   5.000  0.4115  0.6259  0.0051
 6171SOL     OW29441   9.534   5.075   4.720 -0.1935 -0.6324 -0.3256
 6171SOL    HW129442   9.505   5.133   4.796  0.1509 -1.0508  0.1251
 6171SOL    HW229443   9.507   4.981   4.738 -0.3699 -0.6852 -0.8620
 6172SOL     OW29444   8.918   0.331   2.963  0.3311  0.1499 -0.0336
 6172SOL    HW129445   8.966   0.272   2.899  0.3902 -0.4179  0.5249
 6172SOL    HW229446   8.827   0.353   2.927 -0.7712 -2.5527  1.0010
 6173SOL     OW29447   0.707   9.034   4.909  0.1514  0.9503 -0.0294
 6173SOL    HW129448   0.767   9.089   4.851 -0.0992  1.0179 -0.2255
 6173SOL    HW229449   0.742   9.033   5.002  0.8005  0.4875 -0.2716
 6174SOL     OW29450   2.652   0.892   3.968  0.3009  0.4067 -0.0896
 6174SOL    HW129451   2.692   0.960   4.029 -0.6671  0.5801  0.3649
 6174SOL    HW229452   2.658   0.801   4.009  1.0470  0.3042 -0.4260
 6175SOL     OW29453   4.043   0.979   3.649  0.1681  0.2276 -0.1197
 6175SOL    HW129454   4.084   1.070   3.658  0.8459  0.2398 -2.8705
 6175SOL    HW229455   4.110   0.909   3.674  0.8413  0.3802 -1.4415
 6176SOL     OW29456   1.754   6.220   2.885  0.1034 -0.2966  0.2780
 6176SOL    HW129457   1.830   6.214   2.821  1.4184  3.2869  1.3992
 6176SOL    HW229458   1.671   6.245   2.835  1.1178  2.4987 -0.0664
 6177SOL     OW29459   3.438   5.781   1.918  0.7443 -0.1674 -0.0155
 6177SOL    HW129460   3.343   5.750   1.922  0.4757  0.5087 -0.9355
 6177SOL    HW229461   3.498   5.701   1.910  0.2059 -0.5694 -0.1209
 6178SOL     OW29462   0.027   8.197   3.013  0.4431  0.0099 -0.3054
 6178SOL    HW129463  -0.034   8.118   3.011  0.1131  0.2558 -0.0342
 6178SOL    HW229464   0.034   8.236   2.922 -2.2713  1.8483  0.2096
 6179SOL     OW29465   2.516   7.060   5.671  0.4036 -0.2812 -0.1549
 6179SOL    HW129466   2.598   7.022   5.629  0.6411 -0.1521  0.1892
 6179SOL    HW229467   2.437   7.041   5.614  0.7953  0.3032 -0.8940
 6180SOL     OW29468   6.316   0.015   1.079 -0.3384 -0.7170 -0.7800
 6180SOL    HW129469   6.396  -0.023   1.032  0.9712  0.4831  0.4557
 6180SOL    HW229470   6.322  -0.004   1.177 -2.2312 -1.7520 -0.8382
 6181SOL     OW29471   4.351   1.827   2.801  0.4684 -0.0310 -0.1539
 6181SOL    HW129472   4.389   1.735   2.790  1.4493  0.3116  0.3605
 6181SOL    HW229473   4.323   1.863   2.712  0.9960 -0.4323 -0.4772
 6182SOL     OW29474   0.783   6.951   3.599  0.8495 -0.1682 -0.1787
 6182SOL    HW129475   0.805   6.908   3.686  1.0603  0.6976  0.1991
 6182SOL    HW229476   0.783   7.050   3.609 -1.1069 -0.0887 -0.6939
 6183SOL     OW29477   3.973   7.818   0.664  0.0147 -0.0742  0.1652
 6183SOL    HW129478   4.063   7.857   0.647 -0.3667  0.2694 -1.1708
 6183SOL    HW229479   3.978   7.753   0.739  1.5066 -0.5569 -0.3355
 6184SOL     OW29480   0.092   2.490   3.028  0.5163 -0.1101  0.0363
 6184SOL    HW129481   0.132   2.425   2.964  1.9754  0.9085 -0.1152
 6184SOL    HW229482   0.136   2.479   3.118 -0.7319 -0.7767  0.5669
 6185SOL     OW29483   2.091   6.610   2.093 -0.5414  0.2264 -0.2049
 6185SOL    HW129484   2.072   6.651   2.004  0.4915  3.8178  1.1218
 6185SOL    HW229485   2.063   6.674   2.166  0.3029 -1.8441  1.9978
 6186SOL     OW29486   0.930   6.664   4.913 -0.2192 -0.0000  0.0853
 6186SOL    HW129487   0.976   6.749   4.888  1.7661 -0.8132  0.8408
 6186SOL    HW229488   0.861   6.682   4.982  0.6004  0.9239  0.6645
 6187SOL     OW29489   8.245   0.435   0.709 -0.5962  0.0758 -0.3797
 6187SOL    HW129490   8.241   0.503   0.782  2.5772 -0.4355  0.3676
 6187SOL    HW229491   8.300   0.471   0.633 -1.5062 -0.4849 -1.3138
 6188SOL     OW29492   8.991   2.897   3.886  0.1425 -0.7063  0.0351
 6188SOL    HW129493   9.071   2.902   3.945 -0.3228 -0.7241  0.6657
 6188SOL    HW229494   9.008   2.830   3.813 -0.0841 -2.2422  1.3608
 6189SOL     OW29495   6.038   9.719   1.587 -0.2821 -0.1555  0.0183
 6189SOL    HW129496   5.974   9.699   1.662 -0.9865  0.3851 -0.4371
 6189SOL    HW229497   6.028   9.650   1.516 -1.4958  0.8274 -0.7754
 6190SOL     OW29498   1.753   4.322   3.014 -0.3831  0.2243 -0.0799
 6190SOL    HW129499   1.758   4.381   3.095 -2.0818  0.4150 -0.0934
 6190SOL    HW229500   1.805   4.239   3.031 -0.4164  0.4236  1.0853
 6191SOL     OW29501   7.732   7.658   5.159 -0.0907 -0.3481  0.3298
 6191SOL    HW129502   7.789   7.577   5.146 -1.7041 -1.1349 -2.0482
 6191SOL    HW229503   7.743   7.692   5.253  2.6998 -1.6699  0.5000
 6192SOL     OW29504   8.929   7.108   6.429  0.6908 -0.4404  0.0561
 6192SOL    HW129505   9.027   7.094   6.414  1.0351  1.5353  0.2600
 6192SOL    HW229506   8.879   7.088   6.344  1.4117 -0.2498 -0.4206
 6193SOL     OW29507   2.073   6.800   3.104  0.0196 -0.0260  0.6192
 6193SOL    HW129508   2.023   6.780   3.189 -0.1910 -0.6767  0.3414
 6193SOL    HW229509   2.077   6.718   3.048  2.4704 -0.3179  1.1770
 6194SOL     OW29510   8.726   7.482   0.922 -0.1303 -0.0420 -0.7701
 6194SOL    HW129511   8.798   7.549   0.904 -0.9342  0.8796 -0.5984
 6194SOL    HW229512   8.644   7.507   0.872  0.0054 -1.7244 -1.8634
 6195SOL     OW29513   2.411   5.586   0.690  0.6001  0.0782  0.8270
 6195SOL    HW129514   2.502   5.586   0.731  2.2869 -1.4116 -2.7004
 6195SOL    HW229515   2.360   5.505   0.721  2.0852 -1.3709 -0.3866
 6196SOL     OW29516   0.120   4.488   4.786  0.1315  0.0585 -0.7400
 6196SOL    HW129517   0.075   4.542   4.715  1.5648  0.6675 -1.1974
 6196SOL    HW229518   0.052   4.461   4.855 -1.0212  0.5339 -1.6682
 6197SOL     OW29519   1.684   8.715   1.829 -0.0248  0.2476 -0.5910
 6197SOL    HW129520   1.625   8.794   1.845 -0.2442  0.0029 -0.1798
 6197SOL    HW229521   1.630   8.631   1.839  0.8162 -0.0512  1.7346
 6198SOL     OW29522   0.019   5.092   1.187  0.2282 -0.8725 -0.0033
 6198SOL    HW129523  -0.029   5.167   1.233 -0.1176 -1.4856  0.6377
 6198SOL    HW229524   0.083   5.130   1.120  0.0740 -0.0017  0.3362
 6199SOL     OW29525   9.981   7.801   5.200  0.3985 -0.5120 -0.4677
 6199SOL    HW129526  10.045   7.741   5.152  1.8804 -1.2327  2.3343
 6199SOL    HW229527   9.951   7.873   5.138  1.0917 -2.2506 -2.9148
 6200SOL     OW29528   1.218   5.370   5.413 -0.7041  0.5239  0.5097
 6200SOL    HW129529   1.262   5.390   5.326 -0.2235 -0.1974  0.5757
 6200SOL    HW229530   1.124   5.403   5.412 -1.1300 -0.6848 -0.7786
 6201SOL     OW29531   8.624   2.399   3.894  0.4417 -0.2549 -0.4056
 6201SOL    HW129532   8.548   2.416   3.831  0.1549  0.4518  0.1199
 6201SOL    HW229533   8.684   2.479   3.896  0.9871 -0.6561 -0.5175
 6202SOL     OW29534   1.122   2.431   3.772 -0.1281 -0.4326  0.7431
 6202SOL    HW129535   1.167   2.377   3.843 -1.1834 -1.9779  0.2668
 6202SOL    HW229536   1.064   2.500   3.815  1.4326  0.5034  1.3573
 6203SOL     OW29537   8.753   8.875   2.593  0.7827  0.2634 -0.0358
 6203SOL    HW129538   8.654   8.886   2.588  0.7069  0.1886  1.2340
 6203SOL    HW229539   8.778   8.785   2.560  0.3148 -0.1581  0.7433
 6204SOL     OW29540   0.968   6.513   2.545 -0.3445  0.3100 -0.0616
 6204SOL    HW129541   0.884   6.460   2.537 -0.1447  0.1753 -1.3996
 6204SOL    HW229542   0.953   6.605   2.511  1.0058 -0.7923 -3.8637
 6205SOL     OW29543   2.722   7.735   3.342 -0.3128 -0.0650  0.4268
 6205SOL    HW129544   2.711   7.834   3.348 -2.7317 -0.3287  0.8222
 6205SOL    HW229545   2.636   7.693   3.312  0.9599 -1.9680 -0.6629
 6206SOL     OW29546   0.971   2.825   0.178 -0.5256  0.6020  0.0887
 6206SOL    HW129547   0.974   2.923   0.198 -1.1135  1.1721 -2.5118
 6206SOL    HW229548   1.063   2.793   0.155 -0.6152  0.9046 -0.6973
 6207SOL     OW29549   8.121   0.663   2.501 -0.1025 -0.6849 -0.0172
 6207SOL    HW129550   8.185   0.710   2.563  0.1561  0.1267 -0.8854
 6207SOL    HW229551   8.054   0.729   2.467 -0.4347 -1.1981 -0.3522
 6208SOL     OW29552   7.307   7.660   4.672 -0.6294  0.0519 -0.8697
 6208SOL    HW129553   7.225   7.606   4.691 -0.6767  0.0772 -1.0021
 6208SOL    HW229554   7.284   7.738   4.616 -0.2385 -0.8738 -2.3455
 6209SOL     OW29555   0.762   7.382   1.371 -0.1233 -0.0400  0.2058
 6209SOL    HW129556   0.675   7.346   1.338 -0.8123 -1.6784  3.5874
 6209SOL    HW229557   0.821   7.307   1.399  1.8886  1.1265 -0.7396
 6210SOL     OW29558   8.115   6.188   4.633  0.4258 -0.0811  0.4114
 6210SOL    HW129559   8.044   6.252   4.660 -1.0058 -1.4423 -0.0294
 6210SOL    HW229560   8.205   6.232   4.638 -0.6278  2.3074 -1.0709
 6211SOL     OW29561   2.153   4.265   1.539  0.3751  0.6412 -0.4784
 6211SOL    HW129562   2.121   4.359   1.553 -0.6819  0.5098 -1.9329
 6211SOL    HW229563   2.121   4.208   1.614  0.8213  1.3848  0.2908
 6212SOL     OW29564   0.560   3.997   5.688  0.3243 -0.0555  0.1058
 6212SOL    HW129565   0.646   4.012   5.638  0.3778 -0.7435 -0.0193
 6212SOL    HW229566   0.515   3.915   5.652 -0.6701  0.6340 -0.2141
 6213SOL     OW29567   5.294   8.388   2.769 -0.2102  0.3774  0.8817
 6213SOL    HW129568   5.379   8.429   2.737  0.2130  1.3695  3.1217
 6213SOL    HW229569   5.217   8.430   2.722  0.5287 -0.4904 -1.1241
 6214SOL     OW29570   2.729   3.616   2.790  0.0334  0.1117  0.5126
 6214SOL    HW129571   2.827   3.634   2.780 -0.0794  0.7577  0.5683
 6214SOL    HW229572   2.682   3.700   2.818 -0.4002 -0.4174  1.4097
 6215SOL     OW29573   9.593   2.023   0.826  0.2768  0.0909 -0.9377
 6215SOL    HW129574   9.502   2.001   0.792 -0.1294 -1.1781  0.8721
 6215SOL    HW229575   9.637   1.940   0.859  1.0922  1.0659  0.4981
 6216SOL     OW29576   2.571   4.664   2.238  0.0481  0.1175 -0.5539
 6216SOL    HW129577   2.651   4.609   2.216 -0.2627 -1.8420  2.8185
 6216SOL    HW229578   2.491   4.625   2.193  0.6237  0.8341 -2.2278
 6217SOL     OW29579   1.045   6.191   3.313  0.3199  0.4034  0.2509
 6217SOL    HW129580   1.119   6.165   3.375  0.4989  2.0609  0.7518
 6217SOL    HW229581   0.958   6.154   3.347  0.3561  1.6402  1.7249
 6218SOL     OW29582   4.276   2.731   2.016 -0.0785  0.4700 -0.3440
 6218SOL    HW129583   4.249   2.764   2.106 -1.6826 -0.9695 -0.2765
 6218SOL    HW229584   4.208   2.759   1.948 -0.2518 -0.7072 -0.6630
 6219SOL     OW29585   9.978   7.031   6.564  0.0527  0.0796 -0.9284
 6219SOL    HW129586  10.025   6.988   6.487 -0.1144 -0.6144 -0.6379
 6219SOL    HW229587  10.043   7.049   6.638  0.1244  0.3380 -1.0524
 6220SOL     OW29588   8.075   7.117   4.716  0.1306 -0.1067 -0.3521
 6220SOL    HW129589   8.126   7.086   4.797  1.2056 -0.3644 -1.1171
 6220SOL    HW229590   8.024   7.200   4.738  1.6844  0.7267  0.1409
 6221SOL     OW29591   9.467   7.792   0.663 -0.4928  0.2959  0.3072
 6221SOL    HW129592   9.437   7.730   0.735 -0.7060 -1.0523 -0.9359
 6221SOL    HW229593   9.411   7.875   0.665 -1.1521 -0.1664  1.0488
 6222SOL     OW29594   3.961   5.452   0.865 -0.2452  0.4609  0.3060
 6222SOL    HW129595   3.941   5.511   0.787  1.7640 -2.7447 -2.7493
 6222SOL    HW229596   4.058   5.457   0.887 -0.0896 -1.5219  0.1383
 6223SOL     OW29597   1.205   4.840   5.535 -0.4178  0.3122 -0.0007
 6223SOL    HW129598   1.262   4.921   5.526  0.0448  0.0957  0.9713
 6223SOL    HW229599   1.261   4.762   5.562 -0.8363 -0.3779 -1.0689
 6224SOL     OW29600   4.805   3.456   0.844 -0.0547 -0.3946  0.0586
 6224SOL    HW129601   4.800   3.398   0.762 -0.4759 -0.0016 -0.1979
 6224SOL    HW229602   4.798   3.398   0.925  0.8667 -0.8348 -0.1729
 6225SOL     OW29603   4.521   1.093   3.449  0.1731  0.3310  0.3826
 6225SOL    HW129604   4.489   1.147   3.527  0.6170  0.1638  0.6813
 6225SOL    HW229605   4.604   1.044   3.475  0.1453  0.0332 -0.1006
 6226SOL     OW29606   7.440   0.131   5.352 -0.4984  0.1750  0.1404
 6226SOL    HW129607   7.472   0.149   5.259 -0.0891  0.9186  0.4182
 6226SOL    HW229608   7.450   0.214   5.407 -2.7247  0.3710  0.2906
 6227SOL     OW29609   8.985   3.810   3.964 -0.4013  0.2015 -0.1121
 6227SOL    HW129610   8.887   3.830   3.967 -0.7009 -1.1184 -1.0190
 6227SOL    HW229611   9.002   3.727   3.911  1.1295 -0.1015  0.7881
 6228SOL     OW29612   1.074   8.814   2.504  0.2798  0.4033 -0.2267
 6228SOL    HW129613   1.077   8.728   2.453  1.0610  0.6681 -0.6404
 6228SOL    HW229614   0.980   8.849   2.505  0.2003  0.2317 -1.2196
 6229SOL     OW29615   0.281   2.751   5.561 -0.5807  0.6456 -0.0761
 6229SOL    HW129616   0.331   2.665   5.578 -1.1985  0.0374 -1.3036
 6229SOL    HW229617   0.214   2.764   5.634  0.4084  0.7612  0.8338
 6230SOL     OW29618   5.688   3.874   0.237  0.0888 -0.5630  0.0486
 6230SOL    HW129619   5.751   3.838   0.307 -0.0791  1.1037  1.0788
 6230SOL    HW229620   5.736   3.941   0.181 -0.6254  0.3526  0.5239
 6231SOL     OW29621   1.854   8.372   2.538 -0.3213  0.0705 -0.0004
 6231SOL    HW129622   1.911   8.434   2.590 -0.0354 -0.6464  0.5539
 6231SOL    HW229623   1.896   8.355   2.448 -0.7373  1.1842 -0.4046
 6232SOL     OW29624   4.736   5.016   2.373 -0.3429 -0.5747 -0.0353
 6232SOL    HW129625   4.733   5.061   2.284 -0.1525  0.7003  0.5825
 6232SOL    HW229626   4.778   4.926   2.365 -1.5940 -1.0496 -1.4727
 6233SOL     OW29627   4.442   9.633   4.365  0.0463  0.4729  0.2392
 6233SOL    HW129628   4.391   9.717   4.384  0.9431  0.7394  1.5125
 6233SOL    HW229629   4.540   9.649   4.380  0.1443 -1.0185  1.3651
 6234SOL     OW29630   6.524   8.940   5.376  0.2157  0.2513 -0.3812
 6234SOL    HW129631   6.425   8.944   5.384  0.3811  1.8610  1.2380
 6234SOL    HW229632   6.553   8.990   5.294 -0.2286  0.9151 -0.1363
 6235SOL     OW29633   9.377   2.337   0.516 -0.3598 -0.0462  0.0064
 6235SOL    HW129634   9.424   2.330   0.604 -1.0949  0.8069  0.4720
 6235SOL    HW229635   9.442   2.369   0.446  0.4386 -1.5443  0.0333
 6236SOL     OW29636   5.215   1.246   5.212  0.0690 -0.2110  0.3011
 6236SOL    HW129637   5.137   1.227   5.152 -1.2144  0.7942  1.6002
 6236SOL    HW229638   5.219   1.344   5.232  0.5080 -0.5091  1.7832
 6237SOL     OW29639   1.452   7.487   0.005 -0.1807 -0.5435 -0.0393
 6237SOL    HW129640   1.404   7.571  -0.020  1.0583  0.1725 -0.0133
 6237SOL    HW229641   1.429   7.415  -0.061 -1.0734 -0.1317 -0.1889
 6238SOL     OW29642   3.702   4.051   4.160  0.0432 -0.1658  0.3037
 6238SOL    HW129643   3.729   3.955   4.169 -0.8610 -0.3898  0.6431
 6238SOL    HW229644   3.779   4.103   4.122  0.4382 -1.0702 -0.1598
 6239SOL     OW29645   0.189   9.316   1.116  0.5424 -0.2608  0.3991
 6239SOL    HW129646   0.278   9.303   1.071  0.3101  0.6864 -0.3474
 6239SOL    HW229647   0.162   9.412   1.109 -0.0446 -0.3339  1.5652
 6240SOL     OW29648   1.384   5.048   0.372 -0.1950  0.4379  0.7454
 6240SOL    HW129649   1.473   5.052   0.418 -0.1567  3.3176  0.5197
 6240SOL    HW229650   1.394   4.999   0.285  1.0184  0.1347  1.0424
 6241SOL     OW29651   0.532   5.444   1.823 -0.1033 -0.5289 -0.1175
 6241SOL    HW129652   0.458   5.509   1.838  1.6838  1.7756 -1.0109
 6241SOL    HW229653   0.566   5.411   1.911  0.9656  2.1125  0.5099
 6242SOL     OW29654   4.053   7.709   0.365  0.7193 -0.2053  0.1666
 6242SOL    HW129655   4.137   7.754   0.335 -0.2577  3.6431  2.8858
 6242SOL    HW229656   4.069   7.667   0.454 -0.0311 -0.1279  0.3348
 6243SOL     OW29657   8.947   3.779   6.748 -0.5005 -0.0581 -0.1959
 6243SOL    HW129658   9.046   3.783   6.733 -0.5214 -1.4650 -0.8046
 6243SOL    HW229659   8.900   3.836   6.681 -0.3774 -3.3582 -3.1888
 6244SOL     OW29660   1.280   5.160   2.711 -0.2442 -0.5569 -0.1161
 6244SOL    HW129661   1.193   5.133   2.754  0.0445  0.3325  1.0610
 6244SOL    HW229662   1.349   5.090   2.732 -0.0971 -0.1158  0.9315
 6245SOL     OW29663   8.100   6.156   2.962  0.1413 -0.3838  0.1504
 6245SOL    HW129664   8.022   6.095   2.980  0.6720 -0.8061  1.0561
 6245SOL    HW229665   8.084   6.245   3.005 -0.3248 -0.1026 -0.5924
 6246SOL     OW29666   7.557   0.975   3.970  0.0978  0.0780 -0.1531
 6246SOL    HW129667   7.576   1.037   4.046 -0.3721  0.5556 -0.4246
 6246SOL    HW229668   7.496   1.019   3.905 -0.6075 -0.8287 -0.1250
 6247SOL     OW29669   0.719   7.615   3.831  0.5548  0.0603 -0.1838
 6247SOL    HW129670   0.739   7.642   3.925  0.9658  0.7400 -0.4592
 6247SOL    HW229671   0.697   7.697   3.778 -1.7604 -0.5264 -0.1825
 6248SOL     OW29672   1.002   3.010   5.729 -0.2219  0.1727  0.3619
 6248SOL    HW129673   0.923   3.056   5.770 -0.2831 -0.5620  1.0621
 6248SOL    HW229674   0.970   2.939   5.666 -0.1133 -0.9634  1.5891
 6249SOL     OW29675   2.282   8.573   2.397  0.1308  0.0067 -0.3328
 6249SOL    HW129676   2.346   8.640   2.357  0.5466 -1.2656 -1.8550
 6249SOL    HW229677   2.330   8.519   2.465 -0.1296  1.0561  0.6959
 6250SOL     OW29678   3.983   1.129   2.810  0.6180  1.1779  0.1731
 6250SOL    HW129679   3.982   1.086   2.900  1.3442  1.1595  0.1767
 6250SOL    HW229680   4.075   1.163   2.791  0.3901  1.4566 -0.4318
 6251SOL     OW29681   9.321   5.411   0.721 -0.3097  0.5319  0.1226
 6251SOL    HW129682   9.255   5.405   0.796 -1.0717  0.9203 -0.5069
 6251SOL    HW229683   9.290   5.355   0.644  1.1959 -1.0369  0.6152
 6252SOL     OW29684   1.650   6.683   3.678 -0.5666 -0.0690 -0.2998
 6252SOL    HW129685   1.676   6.752   3.610  1.6773 -1.2766 -0.7088
 6252SOL    HW229686   1.647   6.726   3.768  1.5754  0.4466 -0.4352
 6253SOL     OW29687   2.084   5.274   5.101 -0.2805  0.5582  0.2259
 6253SOL    HW129688   2.094   5.207   5.174 -0.7477  0.2172 -0.0230
 6253SOL    HW229689   2.101   5.231   5.013 -1.3042  0.5830  0.0044
 6254SOL     OW29690   2.441   0.356   4.643  0.4395 -0.0024 -0.2702
 6254SOL    HW129691   2.407   0.262   4.646 -1.6908  0.7515  0.1063
 6254SOL    HW229692   2.535   0.356   4.609  0.7711 -2.3379  0.5509
 6255SOL     OW29693   5.068   1.615   0.851  0.6429 -0.2355 -0.6678
 6255SOL    HW129694   5.112   1.704   0.848  0.3415 -0.0231  0.9255
 6255SOL    HW229695   4.977   1.621   0.809 -0.2902  0.7439  1.4649
 6256SOL     OW29696   0.056   3.677   2.487  0.1199 -0.3180  0.0351
 6256SOL    HW129697   0.156   3.665   2.492  0.4019  1.8470 -0.1521
 6256SOL    HW229698   0.013   3.622   2.559  1.5041 -0.5656  0.7069
 6257SOL     OW29699   2.811   9.881   3.038 -0.5311  0.4671  0.6295
 6257SOL    HW129700   2.872   9.828   3.096 -0.2061  1.8327  1.5490
 6257SOL    HW229701   2.816   9.978   3.063  1.2462  1.4186 -3.0675
 6258SOL     OW29702   0.812   7.343   6.152 -0.7536 -0.2370 -0.0442
 6258SOL    HW129703   0.903   7.309   6.176 -0.1585  0.9544 -0.5836
 6258SOL    HW229704   0.743   7.293   6.204  0.3273  0.2296  1.8804
 6259SOL     OW29705   3.479   6.505   4.707 -0.3021  0.7271 -0.2912
 6259SOL    HW129706   3.570   6.501   4.667  0.3775  1.4893  1.1523
 6259SOL    HW229707   3.461   6.421   4.758 -2.0188 -1.2173 -3.8976
 6260SOL     OW29708   8.144   1.987   4.014  0.4520  0.2326 -0.1546
 6260SOL    HW129709   8.121   2.048   4.090  3.8201  1.1762  0.2268
 6260SOL    HW229710   8.066   1.928   3.993 -1.2921  1.4543  2.5761
 6261SOL     OW29711   5.355   7.159   4.216  0.3411  0.5144  0.2762
 6261SOL    HW129712   5.338   7.164   4.314 -2.3307 -0.1779 -0.1137
 6261SOL    HW229713   5.268   7.150   4.167  1.8425 -3.2192 -1.9098
 6262SOL     OW29714   2.631   4.162   1.606  0.3624 -0.1185  0.2332
 6262SOL    HW129715   2.532   4.172   1.621  0.4765 -0.9356  1.5196
 6262SOL    HW229716   2.650   4.170   1.508 -1.2256 -2.0338 -0.2713
 6263SOL     OW29717   8.477   0.252   4.021 -0.6127  0.1619  0.3976
 6263SOL    HW129718   8.394   0.198   4.007  0.8152 -1.6618 -1.3344
 6263SOL    HW229719   8.508   0.243   4.115 -1.0709 -1.0674  0.4355
 6264SOL     OW29720   6.621   1.633   2.002 -0.3166  0.2807  0.0179
 6264SOL    HW129721   6.528   1.670   2.003  0.3479  1.9861  0.5795
 6264SOL    HW229722   6.635   1.576   2.083 -0.9601 -0.1806 -0.1966
 6265SOL     OW29723   4.639   9.741   3.594  0.2859 -0.4986  0.4477
 6265SOL    HW129724   4.575   9.818   3.587 -0.0516 -0.7265  0.9450
 6265SOL    HW229725   4.621   9.691   3.679 -0.2632 -1.7940 -0.3998
 6266SOL     OW29726   7.833   2.277   5.218  0.0516 -0.2426 -0.0491
 6266SOL    HW129727   7.748   2.275   5.166 -0.2061  0.3721  0.3420
 6266SOL    HW229728   7.855   2.371   5.243  0.4693 -0.4754  0.4746
 6267SOL     OW29729   4.657   6.883   4.447  0.0263 -0.1312  0.3307
 6267SOL    HW129730   4.708   6.800   4.425  0.2871 -0.3616  1.7498
 6267SOL    HW229731   4.574   6.887   4.391  1.2575 -0.0735 -1.5254
 6268SOL     OW29732   2.476   6.839   0.955  0.8423 -0.0511 -0.2834
 6268SOL    HW129733   2.394   6.848   1.013  1.3449 -1.6874  0.7330
 6268SOL    HW229734   2.456   6.778   0.879  0.6839  0.7415 -0.8788
 6269SOL     OW29735   3.839   9.349   0.692  0.1087 -0.3234  0.2283
 6269SOL    HW129736   3.908   9.419   0.672 -0.5137  0.1165 -0.4158
 6269SOL    HW229737   3.806   9.361   0.785  0.7182 -0.3707  0.4503
 6270SOL     OW29738   3.813   2.887   0.723  0.2066  0.1421  0.1657
 6270SOL    HW129739   3.718   2.870   0.751  0.2643 -1.2525 -0.4500
 6270SOL    HW229740   3.828   2.986   0.717 -1.4970  0.3729 -0.6910
 6271SOL     OW29741   0.452   4.251   5.651 -0.0098 -0.4854  0.3960
 6271SOL    HW129742   0.491   4.319   5.712  0.5945 -0.0798 -0.4369
 6271SOL    HW229743   0.507   4.167   5.655  0.3524 -0.2675 -0.0060
 6272SOL     OW29744   6.200   8.145   2.566 -0.6042  0.3176  0.0571
 6272SOL    HW129745   6.252   8.228   2.543 -2.7068  1.9135  0.8714
 6272SOL    HW229746   6.163   8.106   2.482 -3.0722  2.6215 -0.0111
 6273SOL     OW29747   0.914   6.137   6.255  0.3287 -0.2959 -0.3224
 6273SOL    HW129748   0.968   6.093   6.327  0.9206  0.7699 -0.0997
 6273SOL    HW229749   0.975   6.174   6.185 -0.0725  1.1694  0.0729
 6274SOL     OW29750   9.276   7.970   0.677 -0.7107 -0.0095 -0.3903
 6274SOL    HW129751   9.197   7.948   0.734 -0.7104  2.1668  0.5104
 6274SOL    HW229752   9.270   8.066   0.648  2.0835  0.4869  0.5131
 6275SOL     OW29753   7.862   4.953   1.753  0.4869  0.1935 -0.5471
 6275SOL    HW129754   7.799   4.945   1.830  1.4894 -0.3650  0.2328
 6275SOL    HW229755   7.940   5.011   1.779  1.3954 -0.9131 -0.7352
 6276SOL     OW29756   3.185   2.677   3.914 -0.4044  0.5136 -0.4576
 6276SOL    HW129757   3.198   2.654   3.818  0.0570 -0.4345 -0.1793
 6276SOL    HW229758   3.217   2.601   3.971 -1.8695  0.5331  0.4165
 6277SOL     OW29759   8.328   5.914   4.572  0.3679 -0.5410 -0.3199
 6277SOL    HW129760   8.366   5.989   4.627  2.4958 -0.0963 -2.3020
 6277SOL    HW229761   8.229   5.923   4.567  0.4305  1.0773  1.0303
 6278SOL     OW29762   7.048   1.150   4.342 -0.1286 -0.2338  0.5499
 6278SOL    HW129763   7.014   1.061   4.371  1.2944 -0.9108  0.1608
 6278SOL    HW229764   6.994   1.222   4.386 -1.9834 -1.2780  0.0355
 6279SOL     OW29765   1.419   3.746   1.885  0.3075 -0.8131  0.0857
 6279SOL    HW129766   1.469   3.730   1.801  2.1697  0.7649  0.8575
 6279SOL    HW229767   1.417   3.844   1.905  1.3589 -1.2727  2.7206
 6280SOL     OW29768   3.698   9.675   4.324 -0.1274 -0.2494 -0.1996
 6280SOL    HW129769   3.660   9.638   4.409 -0.9916 -0.4944 -0.6870
 6280SOL    HW229770   3.623   9.695   4.260  0.3159  2.3063  0.0217
 6281SOL     OW29771   9.068   6.518   1.689  0.3969 -0.4892  0.1747
 6281SOL    HW129772   8.999   6.447   1.698  0.9966 -0.9232  1.4971
 6281SOL    HW229773   9.078   6.543   1.593 -2.6180  0.6074  0.0972
 6282SOL     OW29774   8.633   5.765   6.546 -0.5043 -0.5372  0.4686
 6282SOL    HW129775   8.600   5.817   6.467 -1.0409 -1.1634  0.2829
 6282SOL    HW229776   8.649   5.829   6.622  1.2618  0.2396 -0.5331
 6283SOL     OW29777   8.820   2.396   3.206 -0.0436  0.4753  0.3982
 6283SOL    HW129778   8.737   2.357   3.168 -0.6016  0.9345  1.1338
 6283SOL    HW229779   8.878   2.431   3.132 -0.6527  0.4606 -0.0838
 6284SOL     OW29780   0.810   3.144   5.491  0.0870  0.0082 -0.4039
 6284SOL    HW129781   0.744   3.125   5.564  1.3565  1.5560  1.2049
 6284SOL    HW229782   0.762   3.176   5.409 -1.3223 -1.2505 -0.0696
 6285SOL     OW29783   2.862   8.177   3.532 -0.1610 -0.3004  0.6852
 6285SOL    HW129784   2.925   8.154   3.606 -1.2592 -0.0774  1.6920
 6285SOL    HW229785   2.773   8.205   3.570 -0.8606 -0.5697 -0.7173
 6286SOL     OW29786   9.778   8.242   0.249  0.3231 -0.3378 -0.0138
 6286SOL    HW129787   9.756   8.176   0.176  0.9999 -0.8627  0.2495
 6286SOL    HW229788   9.877   8.239   0.267  0.3181  0.5738  0.1764
 6287SOL     OW29789   5.984   9.001   4.698  0.4460  0.7501 -0.3451
 6287SOL    HW129790   6.026   8.912   4.715 -1.1137  0.5233  2.7299
 6287SOL    HW229791   5.925   8.996   4.617  1.9051 -0.4287 -1.3611
 6288SOL     OW29792   1.152   9.041   2.945  0.5552 -0.1520 -0.1719
 6288SOL    HW129793   1.241   9.016   2.983  0.4208  0.7760  0.7592
 6288SOL    HW229794   1.094   9.080   3.017 -0.7946 -1.2300 -0.6519
 6289SOL     OW29795   7.456   0.440   0.223  0.2157  0.2708 -0.1938
 6289SOL    HW129796   7.469   0.365   0.286 -0.5273  0.0403 -0.3030
 6289SOL    HW229797   7.469   0.527   0.270 -1.9159  0.1493  0.7004
 6290SOL     OW29798   1.309   5.832   1.026 -0.0052  0.2183 -0.0814
 6290SOL    HW129799   1.265   5.783   1.101 -1.1374  2.4473  0.7551
 6290SOL    HW229800   1.407   5.845   1.047  0.0656 -0.7227  0.1808
 6291SOL     OW29801   3.482   6.448   0.755  0.6940  0.5238  0.6161
 6291SOL    HW129802   3.422   6.527   0.771  0.2796  0.2876  0.2386
 6291SOL    HW229803   3.570   6.464   0.800  0.4402  0.9856  0.9570
 6292SOL     OW29804   4.873   6.162   2.397 -1.2519 -0.4128  0.1573
 6292SOL    HW129805   4.960   6.119   2.422  0.4710  2.2705 -1.0810
 6292SOL    HW229806   4.872   6.183   2.300 -4.0345 -1.9811 -0.2092
 6293SOL     OW29807   8.530   6.081   0.474 -0.2188  0.0151 -0.1639
 6293SOL    HW129808   8.553   6.027   0.555  0.4310 -0.8198 -0.8952
 6293SOL    HW229809   8.492   6.169   0.502  0.1189 -0.2192  1.0475
 6294SOL     OW29810   0.233   4.827   2.485 -0.0761 -0.1043 -0.4983
 6294SOL    HW129811   0.135   4.821   2.467 -0.5247 -1.2655  2.0628
 6294SOL    HW229812   0.259   4.923   2.495 -1.0551  0.1900 -0.7048
 6295SOL     OW29813   2.777   5.232   4.867  0.8225  0.5068  0.2403
 6295SOL    HW129814   2.818   5.141   4.877  0.4991  0.3328 -0.0004
 6295SOL    HW229815   2.739   5.261   4.955 -0.3633 -0.2202 -0.0112
 6296SOL     OW29816   2.038   8.920   2.267  0.0464  0.2847 -0.2311
 6296SOL    HW129817   2.031   8.848   2.337  1.6485  0.0533 -0.3003
 6296SOL    HW229818   1.993   9.003   2.300 -0.4317 -0.2517  0.4950
 6297SOL     OW29819   9.939   6.452   3.609 -0.3745  0.0313 -0.0358
 6297SOL    HW129820   9.999   6.377   3.638 -0.2344  0.2082  0.1363
 6297SOL    HW229821   9.986   6.508   3.540 -1.5394 -1.7010 -2.3171
 6298SOL     OW29822   7.875   1.121   0.950  0.0229  0.1261  0.0834
 6298SOL    HW129823   7.954   1.176   0.978 -1.2941  1.0615  2.1139
 6298SOL    HW229824   7.870   1.038   1.006 -0.7983  0.3931  0.4113
 6299SOL     OW29825   3.787   2.250   2.158  0.1440 -0.2028 -0.5838
 6299SOL    HW129826   3.847   2.326   2.180 -0.4859  0.5713 -1.4946
 6299SOL    HW229827   3.842   2.173   2.124  0.6744  0.2663 -0.7935
 6300SOL     OW29828   8.594   7.672   3.881 -0.1959 -0.1036 -0.1564
 6300SOL    HW129829   8.642   7.635   3.961 -1.3645  1.4460  1.2942
 6300SOL    HW229830   8.530   7.604   3.845  0.5390 -0.9029  0.0451
 6301SOL     OW29831   6.788   1.146   2.974 -0.7140  0.1987 -0.3176
 6301SOL    HW129832   6.880   1.113   2.952 -1.0769 -0.9623 -0.1295
 6301SOL    HW229833   6.757   1.210   2.904  0.8516  1.7953  0.4123
 6302SOL     OW29834   7.742   0.147   3.704  0.0426 -0.5075 -0.7511
 6302SOL    HW129835   7.829   0.109   3.737  0.2713 -0.1250 -0.9117
 6302SOL    HW229836   7.760   0.229   3.650 -0.4584 -0.1405 -0.3657
 6303SOL     OW29837   1.023   8.461   1.146  0.4483 -0.0502  0.4748
 6303SOL    HW129838   0.996   8.364   1.147 -1.2609  0.4043  0.7160
 6303SOL    HW229839   1.029   8.495   1.239 -1.5073  0.7281  0.3463
 6304SOL     OW29840   9.716   6.431   6.283 -0.3682  0.6657  0.0556
 6304SOL    HW129841   9.731   6.459   6.188 -1.5877  0.0735 -0.3176
 6304SOL    HW229842   9.730   6.510   6.343 -0.5289  1.2680 -0.6974
 6305SOL     OW29843   1.176   6.152   6.036  0.0809  0.1580 -0.3613
 6305SOL    HW129844   1.272   6.145   6.010  0.1639  0.2903 -0.0953
 6305SOL    HW229845   1.121   6.095   5.975  0.3361  0.0227 -0.4687
 6306SOL     OW29846   9.546   6.138   3.209 -0.3250  0.4996  0.0909
 6306SOL    HW129847   9.584   6.106   3.296  1.6035 -2.0516 -1.6269
 6306SOL    HW229848   9.449   6.161   3.222 -0.2911 -0.6551  2.7349
 6307SOL     OW29849   0.838   5.356   5.008  0.1041  0.2752 -0.3178
 6307SOL    HW129850   0.841   5.370   5.107 -0.7830  1.5463 -0.4594
 6307SOL    HW229851   0.930   5.341   4.973  0.1472 -3.5377  1.1403
 6308SOL     OW29852   4.420   8.183   5.039  0.0501  0.0837  0.8517
 6308SOL    HW129853   4.382   8.119   4.972  3.5233 -1.8704  0.6490
 6308SOL    HW229854   4.374   8.271   5.030 -2.7711 -1.4954 -0.9023
 6309SOL     OW29855   0.366   7.533   0.716 -0.1216 -0.8516  0.1364
 6309SOL    HW129856   0.352   7.583   0.630  0.3409 -0.1131  0.4785
 6309SOL    HW229857   0.439   7.577   0.768  1.8729 -3.2219 -0.5551
 6310SOL     OW29858   1.446   9.050   3.914 -0.2592  0.2796  0.2179
 6310SOL    HW129859   1.420   9.095   3.999 -0.4068  0.3502  0.1364
 6310SOL    HW229860   1.490   8.962   3.934 -0.1694  0.3589  0.3697
 6311SOL     OW29861   9.274   9.749   3.023  0.7340 -0.1709 -0.2327
 6311SOL    HW129862   9.278   9.722   3.119  2.0189 -0.0889 -0.2564
 6311SOL    HW229863   9.284   9.669   2.964  0.5181 -0.1510 -0.2970
 6312SOL     OW29864   0.216   3.431   4.447  0.2765  0.2252  0.3544
 6312SOL    HW129865   0.270   3.495   4.501  0.7545  0.3889 -0.3139
 6312SOL    HW229866   0.155   3.481   4.386  2.8353  0.1264 -2.4042
 6313SOL     OW29867   1.081   6.839   3.376 -0.2809  0.0762 -0.2325
 6313SOL    HW129868   1.121   6.910   3.319  1.2677 -0.9847 -0.4967
 6313SOL    HW229869   1.119   6.750   3.351 -2.6010 -0.9486 -0.2865
 6314SOL     OW29870   8.318   3.102   5.522  0.4893  0.2214 -0.6525
 6314SOL    HW129871   8.404   3.055   5.501  0.2897 -0.5097  0.1429
 6314SOL    HW229872   8.338   3.189   5.567  0.7679 -2.3684  4.5225
 6315SOL     OW29873   1.135   1.452   1.517  0.0149  0.2720  0.6023
 6315SOL    HW129874   1.183   1.531   1.479  0.4225  0.0556  0.6673
 6315SOL    HW229875   1.108   1.472   1.611  1.6661 -0.3151  1.2139
 6316SOL     OW29876   5.829   0.348   2.686  0.1750 -0.0089 -0.1585
 6316SOL    HW129877   5.893   0.354   2.763 -0.1315  0.3952  0.0627
 6316SOL    HW229878   5.747   0.402   2.706  0.3771  0.6336 -1.0368
 6317SOL     OW29879   6.619   9.126   3.050 -0.5623  0.1940  0.5366
 6317SOL    HW129880   6.629   9.211   2.998 -0.9095  0.2726  0.5943
 6317SOL    HW229881   6.695   9.065   3.031 -0.5417  0.3404  0.1583
 6318SOL     OW29882   9.317   1.188   3.582  0.8898 -0.5839 -0.1026
 6318SOL    HW129883   9.224   1.183   3.619  0.7165  0.2533 -0.4202
 6318SOL    HW229884   9.316   1.233   3.493  1.4948 -1.3405 -0.5045
 6319SOL     OW29885   3.251   3.025   4.224 -0.3616 -0.7121 -0.1175
 6319SOL    HW129886   3.306   2.971   4.288  0.0801 -2.5224 -1.9921
 6319SOL    HW229887   3.162   3.046   4.266  1.3295  1.4304  2.5619
 6320SOL     OW29888   6.291   7.141   3.679 -0.1300  0.0155  0.1487
 6320SOL    HW129889   6.330   7.122   3.769 -0.4147  0.5559  0.3892
 6320SOL    HW229890   6.344   7.212   3.634 -1.5809  1.6809  1.0080
 6321SOL     OW29891   8.393   8.567   1.862 -0.3428 -0.3910  0.5636
 6321SOL    HW129892   8.353   8.477   1.840 -1.4248 -0.2071  1.6895
 6321SOL    HW229893   8.379   8.586   1.960  1.9614 -0.0204  0.8440
 6322SOL     OW29894   2.431   7.184   2.326  0.6210 -0.3034  0.7947
 6322SOL    HW129895   2.369   7.263   2.320  1.1827  0.1287  0.5530
 6322SOL    HW229896   2.464   7.175   2.419  0.7712 -0.0788  0.7657
 6323SOL     OW29897   1.053   0.294   1.883 -1.0387  0.0676 -0.2489
 6323SOL    HW129898   1.123   0.270   1.950 -0.8932 -1.0482 -0.7837
 6323SOL    HW229899   0.970   0.243   1.901 -0.5709 -1.2476 -1.6875
 6324SOL     OW29900   0.897   2.204   1.491 -0.3161  0.0924 -0.0185
 6324SOL    HW129901   0.850   2.170   1.410 -1.4034  1.4374  0.0316
 6324SOL    HW229902   0.833   2.256   1.547  0.6492 -0.0720  1.2594
 6325SOL     OW29903   0.085   3.522   0.437  0.6760 -0.3516  0.3416
 6325SOL    HW129904   0.072   3.436   0.487 -0.5985 -0.1847  0.2985
 6325SOL    HW229905   0.179   3.525   0.401  0.5847 -1.9754 -0.1036
 6326SOL     OW29906   7.894   6.291   3.379 -0.2649 -0.2438 -0.7097
 6326SOL    HW129907   7.888   6.342   3.465 -0.8230 -2.0495  0.3540
 6326SOL    HW229908   7.853   6.345   3.305 -1.3319  0.6240  0.4967
 6327SOL     OW29909   5.321   8.738   4.956  0.1116  0.2379  0.4629
 6327SOL    HW129910   5.227   8.772   4.944  0.2168  0.3883  0.0566
 6327SOL    HW229911   5.348   8.749   5.052  0.7608  2.9453  0.0126
 6328SOL     OW29912   9.593   6.000   2.751  0.2047  0.3585  0.2777
 6328SOL    HW129913   9.682   5.969   2.721  0.2484  1.8616 -1.2039
 6328SOL    HW229914   9.523   5.934   2.724  0.6262  0.1712 -0.3572
 6329SOL     OW29915   0.443   9.630   0.639 -0.3133  0.3919 -0.1263
 6329SOL    HW129916   0.450   9.619   0.738 -0.9924  0.1045 -0.1067
 6329SOL    HW229917   0.479   9.548   0.594  0.3738  0.6919 -0.1315
 6330SOL     OW29918   3.074   5.119   3.508  0.8951 -0.4575 -0.0239
 6330SOL    HW129919   3.036   5.159   3.592 -0.5068  1.5646 -1.5652
 6330SOL    HW229920   3.121   5.190   3.456  1.5393 -1.6445 -1.0746
 6331SOL     OW29921   1.389   9.578   2.495 -0.4672  0.2430 -0.1461
 6331SOL    HW129922   1.451   9.592   2.572  1.1507 -0.4723 -1.2765
 6331SOL    HW229923   1.329   9.500   2.514 -1.6579  1.4806  1.3222
 6332SOL     OW29924   3.866   8.078   0.790  0.1556  0.1696  0.1879
 6332SOL    HW129925   3.855   8.177   0.804 -0.5314  0.2111 -0.6336
 6332SOL    HW229926   3.872   8.059   0.692 -0.4259 -0.6831  0.3182
 6333SOL     OW29927   4.723   3.151   0.918  0.4692 -0.5429 -0.5215
 6333SOL    HW129928   4.734   3.236   0.969 -0.1505 -0.4981 -0.4588
 6333SOL    HW229929   4.635   3.152   0.870  1.4065 -0.2150 -2.2880
 6334SOL     OW29930   1.749   8.632   5.344  0.0164 -0.3010 -0.6280
 6334SOL    HW129931   1.776   8.708   5.285 -0.1434  0.3732  0.1373
 6334SOL    HW229932   1.672   8.583   5.303 -0.3529  0.4064 -0.7927
 6335SOL     OW29933   9.013   3.933   3.443 -0.5532 -0.4418 -0.2125
 6335SOL    HW129934   9.034   4.012   3.386 -2.5391 -0.0028 -0.3734
 6335SOL    HW229935   8.991   3.965   3.536 -1.8169 -0.7324 -0.3966
 6336SOL     OW29936   3.036   9.982   2.733 -0.1809  0.0315  0.5144
 6336SOL    HW129937   2.951   9.933   2.715 -0.6405  0.8755  0.3753
 6336SOL    HW229938   3.035  10.020   2.826 -1.1243  2.3633 -0.4037
 6337SOL     OW29939   3.787   9.406   1.830  0.2916 -0.1285  0.1816
 6337SOL    HW129940   3.865   9.450   1.785  0.9678  0.0193  1.4642
 6337SOL    HW229941   3.711   9.471   1.837 -0.0820 -0.3744 -1.3721
 6338SOL     OW29942   9.628   1.487   1.961  0.4303  0.3917 -0.1253
 6338SOL    HW129943   9.612   1.580   1.996  0.1403  0.5196 -0.5859
 6338SOL    HW229944   9.604   1.484   1.864  0.8651 -0.0544 -0.2182
 6339SOL     OW29945   7.667   1.576   1.555  0.4625  0.2574 -0.2349
 6339SOL    HW129946   7.707   1.489   1.585  0.5895  0.1110 -0.8276
 6339SOL    HW229947   7.734   1.649   1.566  0.2873  0.3151  0.4548
 6340SOL     OW29948   7.006   9.458   1.487 -0.2149  0.7237 -0.0201
 6340SOL    HW129949   7.045   9.521   1.555  0.3537  0.5235 -0.1574
 6340SOL    HW229950   6.999   9.504   1.399 -2.8383  1.6388  0.6186
 6341SOL     OW29951   8.204   7.417   3.304  0.0619  0.2876 -0.1591
 6341SOL    HW129952   8.231   7.459   3.390 -1.7191  0.5189  0.3106
 6341SOL    HW229953   8.104   7.407   3.302  0.3831 -3.4630 -0.4509
 6342SOL     OW29954   1.856   7.304   2.822  0.0086 -0.8675  0.5057
 6342SOL    HW129955   1.776   7.287   2.764  0.4122 -0.2334 -0.2461
 6342SOL    HW229956   1.935   7.326   2.765  1.1050 -2.9388  1.1706
 6343SOL     OW29957   8.417   1.964   0.067 -0.5213  0.0360 -0.2734
 6343SOL    HW129958   8.353   1.905   0.018 -0.5957  1.8450 -2.4728
 6343SOL    HW229959   8.505   1.918   0.077 -0.2428 -0.0908 -2.9219
 6344SOL     OW29960   9.118   5.232   2.037  0.1540 -0.0386 -0.0321
 6344SOL    HW129961   9.066   5.265   2.115  0.6059  2.3537 -0.6967
 6344SOL    HW229962   9.144   5.310   1.979  1.1131 -1.6079 -1.7563
 6345SOL     OW29963   2.928   5.633   5.265  0.3556 -0.6071  0.2195
 6345SOL    HW129964   2.996   5.612   5.335 -0.5725 -0.9793  1.0190
 6345SOL    HW229965   2.963   5.705   5.205  0.6182  0.6647  1.8836
 6346SOL     OW29966   8.803   2.923   2.071  0.1119 -0.5225  0.0723
 6346SOL    HW129967   8.774   2.930   1.975 -1.0496  0.0148  0.4504
 6346SOL    HW229968   8.902   2.935   2.077  0.2311 -0.8535 -1.0927
 6347SOL     OW29969   4.858   9.978   2.767  0.0421  0.3949 -0.7253
 6347SOL    HW129970   4.773   9.946   2.724  0.0626 -0.2129 -0.3151
 6347SOL    HW229971   4.846   9.983   2.866  0.3436  0.7492 -0.7036
 6348SOL     OW29972   7.972   7.381   4.797 -0.1559 -0.4102  0.4804
 6348SOL    HW129973   7.905   7.422   4.735 -0.1903  1.1150  1.5307
 6348SOL    HW229974   7.970   7.428   4.885  1.7872 -0.8269  0.7604
 6349SOL     OW29975   0.728   7.516   3.313 -0.1902  0.5027  0.0336
 6349SOL    HW129976   0.777   7.573   3.379 -0.1971  1.6042 -0.9014
 6349SOL    HW229977   0.765   7.423   3.316 -1.5687 -0.0194  3.0536
 6350SOL     OW29978   8.649   1.704   3.175 -0.5599  0.3526  0.7855
 6350SOL    HW129979   8.603   1.625   3.134 -0.1912 -0.2772  1.5797
 6350SOL    HW229980   8.725   1.732   3.116 -0.2360 -0.3487  0.8577
 6351SOL     OW29981   4.894   1.458   3.311  0.1574  0.0157  0.0493
 6351SOL    HW129982   4.927   1.549   3.287 -1.2189  0.4067 -0.4252
 6351SOL    HW229983   4.846   1.418   3.232  0.1198 -0.8158  0.4886
 6352SOL     OW29984   9.179   6.096   0.430 -0.0686 -0.1074  0.6454
 6352SOL    HW129985   9.081   6.100   0.446 -0.1848  0.9284 -0.2825
 6352SOL    HW229986   9.208   6.000   0.425 -1.2724 -0.4236 -0.5284
 6353SOL     OW29987   2.957   6.876   1.726  0.0228  0.3036  0.2921
 6353SOL    HW129988   3.049   6.841   1.738 -0.1309  0.1707  1.1318
 6353SOL    HW229989   2.899   6.807   1.684  0.6717  0.9089 -1.6419
 6354SOL     OW29990   3.017   3.210   1.732 -0.2042  0.5177 -0.2918
 6354SOL    HW129991   3.056   3.167   1.651  0.5327  2.7819 -1.1605
 6354SOL    HW229992   3.073   3.187   1.812  0.9458  0.9305 -0.9663
 6355SOL     OW29993   7.050   1.726   1.010  0.1231 -0.6528 -0.1758
 6355SOL    HW129994   7.091   1.634   1.014  0.4831 -0.4356  1.3622
 6355SOL    HW229995   6.950   1.718   1.010  0.1394 -1.0759 -1.2916
 6356SOL     OW29996   8.481   6.505   1.104 -0.3552  0.0530  0.5667
 6356SOL    HW129997   8.411   6.572   1.083 -0.1592  0.2100  0.4146
 6356SOL    HW229998   8.536   6.537   1.182 -0.3351  0.0165  0.5675
 6357SOL     OW29999   8.267   1.041   4.007  0.1500  0.1159  0.0248
 6357SOL    HW130000   8.301   1.002   4.093  1.7264  0.7192 -0.3168
 6357SOL    HW230001   8.303   1.134   3.996 -0.6108  0.3048 -0.9567
 6358SOL     OW30002   0.405   9.318   2.102 -0.2808 -0.6273 -0.0690
 6358SOL    HW130003   0.476   9.335   2.033 -1.3690 -0.2831 -1.1264
 6358SOL    HW230004   0.446   9.319   2.193  0.9542  0.2538 -0.6175
 6359SOL     OW30005   5.555   3.770   6.261  0.3020  0.9687  0.3819
 6359SOL    HW130006   5.522   3.733   6.348  2.2248  0.0249  0.7394
 6359SOL    HW230007   5.626   3.710   6.225  0.2233  1.9024 -1.3570
 6360SOL     OW30008   0.319   3.277   3.538 -0.2669 -0.6307 -0.3718
 6360SOL    HW130009   0.336   3.250   3.443 -0.1931  0.2365 -0.6013
 6360SOL    HW230010   0.267   3.204   3.584  0.1257 -1.2698 -0.9323
 6361SOL     OW30011   9.752   8.934   3.486 -0.0118  0.0445 -0.2492
 6361SOL    HW130012   9.785   8.991   3.411 -0.2986  1.4407  0.6662
 6361SOL    HW230013   9.657   8.909   3.468 -0.0388  0.2651 -0.4284
 6362SOL     OW30014   8.445   7.090   3.962 -0.4996 -0.3839  0.2014
 6362SOL    HW130015   8.482   7.162   3.904 -1.0624 -0.4287 -0.2219
 6362SOL    HW230016   8.388   7.029   3.906  1.2863 -2.1149  0.2055
 6363SOL     OW30017   9.324   3.579   5.483  0.1863 -0.0418  0.4845
 6363SOL    HW130018   9.414   3.621   5.496 -0.0303  0.4618  0.3312
 6363SOL    HW230019   9.332   3.503   5.418  0.7742 -0.9103  1.5463
 6364SOL     OW30020   2.602   1.448   4.148 -0.4471 -0.0004 -0.1877
 6364SOL    HW130021   2.612   1.402   4.059 -0.9261 -0.0492 -0.2180
 6364SOL    HW230022   2.628   1.544   4.138 -0.4870 -0.0078 -0.3820
 6365SOL     OW30023   2.806   2.371   4.646  0.3045  0.2113 -0.2351
 6365SOL    HW130024   2.712   2.374   4.680  0.1676  0.0680 -0.5967
 6365SOL    HW230025   2.842   2.463   4.639  0.1058  0.2853 -0.3171
 6366SOL     OW30026   5.026   7.913   3.304 -0.0386  0.0316  0.2947
 6366SOL    HW130027   5.064   7.888   3.393  1.5855 -0.4192 -0.5085
 6366SOL    HW230028   5.079   7.989   3.266 -0.6433  0.1245 -0.3693
 6367SOL     OW30029   0.659   2.690   4.433 -0.5494 -0.3462  0.1416
 6367SOL    HW130030   0.568   2.653   4.451 -0.7295  0.4734  0.9447
 6367SOL    HW230031   0.722   2.663   4.505 -0.8096  1.3279  1.0169
 6368SOL     OW30032   1.817   5.590   2.307 -0.2635 -0.4077  0.3527
 6368SOL    HW130033   1.746   5.552   2.248 -0.3983  0.9492 -0.3783
 6368SOL    HW230034   1.877   5.650   2.254  0.0639  0.2449  1.4317
 6369SOL     OW30035   7.643   8.783   2.521  0.4765 -0.0468  0.4713
 6369SOL    HW130036   7.596   8.749   2.603 -1.4451 -0.9504 -0.9639
 6369SOL    HW230037   7.724   8.726   2.504  0.7081 -0.0564  1.5509
 6370SOL     OW30038   2.015   5.923   0.264  0.5569  0.0647  0.3222
 6370SOL    HW130039   2.079   5.959   0.331  0.3102  0.3729  0.3940
 6370SOL    HW230040   1.942   5.873   0.312  0.4429  0.1877  0.2775
 6371SOL     OW30041   0.520   4.290   1.403  0.0779  0.6082 -0.0465
 6371SOL    HW130042   0.615   4.257   1.400 -0.6183 -1.7619  2.2279
 6371SOL    HW230043   0.472   4.261   1.320  0.5973 -0.6161  0.0721
 6372SOL     OW30044   1.665   3.346   4.439  0.2093  0.6116 -0.1402
 6372SOL    HW130045   1.646   3.409   4.514 -0.1321  0.1765  0.1420
 6372SOL    HW230046   1.588   3.282   4.428  0.7525 -0.0528 -0.1182
 6373SOL     OW30047   0.153   8.426   3.748 -0.0884 -0.1679  0.0815
 6373SOL    HW130048   0.167   8.329   3.726  1.7516 -0.3496  1.8838
 6373SOL    HW230049   0.119   8.474   3.667  0.7246 -1.9685 -1.3586
 6374SOL     OW30050   9.996   8.555   3.252  0.5310  0.1298 -0.0443
 6374SOL    HW130051   9.940   8.496   3.194 -1.2523  0.0255  1.7218
 6374SOL    HW230052  10.008   8.643   3.208 -1.9622  0.5261  0.0077
 6375SOL     OW30053   9.044   0.056   4.666  0.1270  0.9429 -0.5667
 6375SOL    HW130054   8.945   0.067   4.661  0.0664 -0.2212 -2.3419
 6375SOL    HW230055   9.088   0.127   4.611  0.3473  2.2901  1.3130
 6376SOL     OW30056   3.265   5.046   5.765  0.2158  0.2836 -0.6627
 6376SOL    HW130057   3.167   5.031   5.778  0.1083  0.8214 -0.8315
 6376SOL    HW230058   3.317   4.986   5.826 -0.2108 -0.3407 -0.9130
 6377SOL     OW30059   0.934   1.938   1.622  0.0499 -0.5799 -0.2568
 6377SOL    HW130060   0.887   2.020   1.591 -1.2131 -0.6982  1.3305
 6377SOL    HW230061   0.946   1.940   1.721 -0.7908 -2.7053 -0.0797
 6378SOL     OW30062   7.549   8.871   5.470  0.2868  0.4746 -0.3038
 6378SOL    HW130063   7.554   8.903   5.376  0.1499 -0.2614 -0.5636
 6378SOL    HW230064   7.457   8.837   5.490  0.3917  0.3657  0.0034
 6379SOL     OW30065   1.527   5.952   2.076  0.1310  0.1099 -0.4432
 6379SOL    HW130066   1.578   6.039   2.075  0.8249 -0.2834  0.0144
 6379SOL    HW230067   1.512   5.922   1.982  3.1066 -1.1007 -0.5979
 6380SOL     OW30068   5.025   4.112   3.287  0.5430  0.3807  0.4737
 6380SOL    HW130069   5.075   4.027   3.305  0.6863  0.1156 -1.1122
 6380SOL    HW230070   5.088   4.181   3.250  0.4519  1.2396  1.8547
 6381SOL     OW30071   9.343   5.006   3.092  0.1647  0.2915  0.2293
 6381SOL    HW130072   9.418   4.951   3.129  0.2573  0.8434  0.8684
 6381SOL    HW230073   9.379   5.094   3.061 -0.3384  0.8521  1.2273
 6382SOL     OW30074   1.534   2.289   4.957 -0.2648  0.0505 -0.1922
 6382SOL    HW130075   1.469   2.261   5.029  0.6747 -0.9098  0.3045
 6382SOL    HW230076   1.583   2.208   4.924  2.0350  1.0131  0.7864
 6383SOL     OW30077   6.413   7.156   3.923  0.1483  0.7121 -0.3483
 6383SOL    HW130078   6.422   7.102   4.007  1.2980 -0.1690 -1.0220
 6383SOL    HW230079   6.421   7.253   3.945  0.6856  0.4745  0.5412
 6384SOL     OW30080   4.172   2.104   4.629 -0.0727 -0.1657  0.3723
 6384SOL    HW130081   4.242   2.054   4.680  0.2782 -0.3926 -0.3185
 6384SOL    HW230082   4.170   2.199   4.658 -0.6571 -0.5511  1.6087
 6385SOL     OW30083   2.209   7.277   5.330  0.2071 -0.4562 -0.0472
 6385SOL    HW130084   2.256   7.307   5.413  0.1080  1.1569 -0.5663
 6385SOL    HW230085   2.269   7.214   5.280  0.2912 -1.3941  1.1920
 6386SOL     OW30086   4.614   7.537   3.708 -0.2454 -0.8152 -0.1429
 6386SOL    HW130087   4.680   7.507   3.777 -0.9079 -3.1194 -0.4959
 6386SOL    HW230088   4.591   7.633   3.725  3.1185  0.0341  0.0181
 6387SOL     OW30089   2.424   7.121   5.185  0.5867  0.5279 -0.4837
 6387SOL    HW130090   2.482   7.043   5.161  1.6135  1.0465  0.2193
 6387SOL    HW230091   2.470   7.206   5.158 -1.5267  0.8360 -3.3144
 6388SOL     OW30092   2.912   3.532   0.249  0.2690  0.0655  0.0523
 6388SOL    HW130093   2.820   3.500   0.226  0.7011 -0.6388 -0.7629
 6388SOL    HW230094   2.974   3.453   0.252  0.9178  0.5810  0.1966
 6389SOL     OW30095   6.353   1.079   0.361  0.2308  0.2433  0.0234
 6389SOL    HW130096   6.341   1.115   0.454  0.1996  0.1733  0.0462
 6389SOL    HW230097   6.444   1.103   0.328  0.4266 -0.1599  0.2622
 6390SOL     OW30098   6.390   9.323   5.421  0.3598 -0.0573 -0.1644
 6390SOL    HW130099   6.297   9.328   5.459  1.1016  0.3611  1.6437
 6390SOL    HW230100   6.400   9.392   5.349 -0.8606 -0.4159 -0.7081
 6391SOL     OW30101   2.256   4.326   4.504 -0.3790  0.0845  0.0171
 6391SOL    HW130102   2.191   4.399   4.484 -0.3807  0.5656  1.7210
 6391SOL    HW230103   2.288   4.335   4.598  1.0673 -0.9958 -0.3528
 6392SOL     OW30104   8.307   6.740   2.036  0.3182  0.1240 -0.3805
 6392SOL    HW130105   8.327   6.782   1.948  0.2241  2.2174  0.5649
 6392SOL    HW230106   8.242   6.665   2.023  1.4108 -0.5210 -2.2566
 6393SOL     OW30107   9.994   7.447   0.015 -0.4080 -0.0279  0.4065
 6393SOL    HW130108   9.910   7.489  -0.018 -0.2098  1.6520  1.9240
 6393SOL    HW230109  10.067   7.463  -0.052 -0.3650  2.0082  0.8859
 6394SOL     OW30110   6.131   8.455   4.127  0.1251  0.3228  0.3020
 6394SOL    HW130111   6.105   8.358   4.126  0.2899  0.2761  0.5040
 6394SOL    HW230112   6.083   8.501   4.201 -0.0839  0.4327  0.0992
 6395SOL     OW30113   9.019   2.884   4.670  0.9230 -0.2715  0.3960
 6395SOL    HW130114   8.943   2.841   4.621  1.1979 -2.5967  1.9004
 6395SOL    HW230115   9.088   2.914   4.604 -0.8769  1.0943 -0.9221
 6396SOL     OW30116   2.560   1.538   2.842 -0.3027  1.2412  0.2100
 6396SOL    HW130117   2.634   1.592   2.883  0.5925  0.8692 -0.8941
 6396SOL    HW230118   2.520   1.478   2.911 -1.1519  3.1126  1.4140
 6397SOL     OW30119   6.388   9.643   2.353 -0.0113 -0.1665 -0.1063
 6397SOL    HW130120   6.411   9.574   2.423  1.1877 -1.1488 -1.4338
 6397SOL    HW230121   6.305   9.691   2.380 -0.4511 -1.6151  1.2366
 6398SOL     OW30122   1.707   4.335   4.753 -0.0536  0.0337  0.4277
 6398SOL    HW130123   1.732   4.429   4.774  0.5955 -0.3723  1.5054
 6398SOL    HW230124   1.665   4.331   4.662  1.1267  1.1627 -0.1799
 6399SOL     OW30125   2.179   7.071   2.474 -0.2592 -0.2292  0.4194
 6399SOL    HW130126   2.191   7.166   2.446  1.0698 -0.3071  0.7137
 6399SOL    HW230127   2.210   7.060   2.568  3.8379 -1.8992 -1.0378
 6400SOL     OW30128   2.461   7.348   6.737  0.2258  0.3539 -0.2678
 6400SOL    HW130129   2.542   7.343   6.678 -0.5758 -0.5339 -1.3133
 6400SOL    HW230130   2.484   7.309   6.826  0.5779 -1.1862 -1.0023
 6401SOL     OW30131   1.193   4.552   2.986  0.2521  0.5450  0.3689
 6401SOL    HW130132   1.270   4.488   2.988  0.7619  1.1565  0.8911
 6401SOL    HW230133   1.146   4.551   3.075 -1.8564 -1.6027 -0.7259
 6402SOL     OW30134   2.191   5.190   1.267  0.3722 -0.0627  0.4011
 6402SOL    HW130135   2.199   5.092   1.285  1.9860 -0.0313 -0.0571
 6402SOL    HW230136   2.163   5.204   1.172  1.7020 -0.0647 -0.0010
 6403SOL     OW30137   6.339   7.875   2.175  0.8545  0.5711 -0.2064
 6403SOL    HW130138   6.282   7.955   2.193  0.2112  0.3647 -1.2739
 6403SOL    HW230139   6.401   7.895   2.099 -0.8882 -0.6880 -2.0080
 6404SOL     OW30140   0.366   3.787   5.690 -0.4765  0.1676 -0.2503
 6404SOL    HW130141   0.310   3.869   5.705  1.1620  1.6130 -1.8589
 6404SOL    HW230142   0.336   3.741   5.606 -1.6656 -1.1602  0.8646
 6405SOL     OW30143   3.389   9.283   4.560 -0.4111  0.2441 -0.0639
 6405SOL    HW130144   3.315   9.239   4.611 -0.2742  1.0677  0.8719
 6405SOL    HW230145   3.423   9.221   4.490 -1.2309 -0.5638  0.2411
 6406SOL     OW30146   0.598   4.927   0.733  0.2798  0.5492 -0.0600
 6406SOL    HW130147   0.581   4.862   0.658  1.8116 -0.0749  0.1161
 6406SOL    HW230148   0.665   4.995   0.703 -0.1555  1.1402  0.2925
 6407SOL     OW30149   4.819   0.672   3.645  0.4955 -0.1704 -0.6587
 6407SOL    HW130150   4.863   0.719   3.721 -1.3472  1.6421 -0.6825
 6407SOL    HW230151   4.888   0.633   3.585  1.9853 -0.4055  1.1719
 6408SOL     OW30152   6.039   8.260   2.778 -0.4159  0.0776  0.2978
 6408SOL    HW130153   6.068   8.201   2.702  0.3272  0.4194  0.3115
 6408SOL    HW230154   6.064   8.354   2.757 -1.6080  0.3940  0.2743
 6409SOL     OW30155   1.880   6.669   5.777  0.3638  0.5760  0.0800
 6409SOL    HW130156   1.780   6.666   5.779  0.3681 -0.3502 -0.4435
 6409SOL    HW230157   1.915   6.662   5.870 -0.0635  0.9664  0.2726
 6410SOL     OW30158   1.613   9.791   4.241 -0.7448  0.3128  0.1054
 6410SOL    HW130159   1.646   9.798   4.147  1.3398  1.1787  0.8810
 6410SOL    HW230160   1.579   9.699   4.258 -0.7023  0.0187 -1.3367
 6411SOL     OW30161   9.536   6.887   3.699  0.5297  0.5427  0.0561
 6411SOL    HW130162   9.596   6.888   3.778  1.2199 -1.5213 -0.4204
 6411SOL    HW230163   9.588   6.861   3.618 -1.4756 -3.8275  0.0821
 6412SOL     OW30164   1.166   4.748   3.798 -0.3177 -0.5795  0.4551
 6412SOL    HW130165   1.093   4.802   3.840 -0.6582 -1.0884  0.5191
 6412SOL    HW230166   1.254   4.786   3.824 -0.5652  0.4353 -0.1421
 6413SOL     OW30167   6.547   9.858   4.614 -0.6112 -0.3046 -0.7652
 6413SOL    HW130168   6.535   9.782   4.550  0.7404 -0.2627 -1.0844
 6413SOL    HW230169   6.462   9.909   4.623 -0.9572 -0.6482 -2.1050
 6414SOL     OW30170   3.605   2.375   3.704  0.0855 -0.4311  0.4203
 6414SOL    HW130171   3.628   2.302   3.768 -0.4736 -0.9217  0.0661
 6414SOL    HW230172   3.625   2.344   3.611  0.2971  0.0449  0.3068
 6415SOL     OW30173   2.816   6.283   5.850 -0.0285  0.0746  0.4090
 6415SOL    HW130174   2.873   6.202   5.859 -0.6693 -0.4694 -0.2752
 6415SOL    HW230175   2.871   6.360   5.819  0.1389 -0.7329 -1.3682
 6416SOL     OW30176   2.494   3.680   0.098  0.0915  0.2885 -0.7928
 6416SOL    HW130177   2.506   3.582   0.109 -1.1575  0.1831 -0.3360
 6416SOL    HW230178   2.551   3.729   0.164 -0.9302 -0.1738  0.4512
 6417SOL     OW30179   0.252   7.288   0.752 -0.0307 -0.3446 -0.0954
 6417SOL    HW130180   0.276   7.385   0.745 -0.5933 -0.1373  0.6930
 6417SOL    HW230181   0.159   7.274   0.718 -1.0139 -0.1096  2.3659
 6418SOL     OW30182   7.454   4.347   0.977 -0.0722 -0.0127 -0.3505
 6418SOL    HW130183   7.524   4.282   0.948  0.7936 -0.5859  2.8029
 6418SOL    HW230184   7.370   4.298   1.001  0.4737 -0.0231  1.7110
 6419SOL     OW30185   4.941   3.297   1.839  0.4003  0.0677 -0.1623
 6419SOL    HW130186   5.034   3.325   1.817  0.7394  1.4575  2.8505
 6419SOL    HW230187   4.877   3.368   1.808  0.5104  0.0637 -0.4028
 6420SOL     OW30188   8.813   4.464   1.258 -0.3652 -0.4815  0.5537
 6420SOL    HW130189   8.835   4.515   1.341  0.7368 -1.2839  0.7672
 6420SOL    HW230190   8.719   4.484   1.230 -0.2514  0.9405  1.1494
 6421SOL     OW30191   0.639   7.759   6.704 -0.3711 -0.4495  0.4213
 6421SOL    HW130192   0.700   7.691   6.745  0.1437  0.3659  1.0002
 6421SOL    HW230193   0.681   7.849   6.708 -0.4340 -0.3130 -1.6549
 6422SOL     OW30194   5.138   0.310   3.663 -0.4941  0.1261  0.1509
 6422SOL    HW130195   5.114   0.232   3.606 -0.4719  0.5717 -0.4821
 6422SOL    HW230196   5.188   0.279   3.744 -1.4728 -0.6133  0.4690
 6423SOL     OW30197   2.296   5.712   2.364  0.4076  0.2613  0.2070
 6423SOL    HW130198   2.265   5.656   2.440  0.4143  0.4371  0.3399
 6423SOL    HW230199   2.225   5.716   2.294  0.8766 -0.9220 -0.3610
 6424SOL     OW30200   1.251   5.152   4.415  0.0955  0.4252  0.4610
 6424SOL    HW130201   1.338   5.113   4.444 -0.3340  0.8084  2.3312
 6424SOL    HW230202   1.263   5.248   4.392  0.6852 -0.1781 -1.9035
 6425SOL     OW30203   1.396   0.300   4.560 -0.1982  0.0661  0.1268
 6425SOL    HW130204   1.319   0.297   4.496  0.3825  1.2497 -0.6503
 6425SOL    HW230205   1.425   0.395   4.572  1.2713 -0.3949  0.2554
 6426SOL     OW30206   9.904   5.764   6.204 -0.3187 -0.0208  0.0190
 6426SOL    HW130207   9.880   5.712   6.123  1.6923 -1.3775  0.2622
 6426SOL    HW230208   9.938   5.854   6.177 -0.6165 -0.0907 -0.5877
 6427SOL     OW30209   5.972   1.287   4.530  0.3823 -0.6772 -0.0965
 6427SOL    HW130210   5.944   1.191   4.527 -2.3783  0.0857  0.2280
 6427SOL    HW230211   6.026   1.303   4.613 -0.3654 -1.6631  0.5958
 6428SOL     OW30212   1.567   9.855   1.807  0.5156  0.4764  0.1959
 6428SOL    HW130213   1.577   9.767   1.855 -0.8370 -0.6715 -1.5516
 6428SOL    HW230214   1.516   9.919   1.865  0.2224 -0.3815  0.8968
 6429SOL     OW30215   8.134   4.388   0.977 -0.1639  0.2364  0.1581
 6429SOL    HW130216   8.101   4.337   1.056 -0.4508  0.8304  0.4228
 6429SOL    HW230217   8.102   4.344   0.893  0.3830 -0.5585  0.3609
 6430SOL     OW30218   2.216   9.311   4.137  0.5201  0.1915 -0.0502
 6430SOL    HW130219   2.303   9.265   4.157  0.4709 -0.0614 -0.4220
 6430SOL    HW230220   2.216   9.401   4.181  0.3940 -0.3792  1.1360
 6431SOL     OW30221   8.791   7.837   3.775  0.2967  0.5771  0.0746
 6431SOL    HW130222   8.706   7.796   3.809  0.7323 -0.0998  0.3474
 6431SOL    HW230223   8.867   7.774   3.789  1.1034  1.7653  1.2019
 6432SOL     OW30224   5.500   0.471   4.169  0.2136  0.5666 -0.2345
 6432SOL    HW130225   5.571   0.461   4.239 -1.1242  1.3822  1.2578
 6432SOL    HW230226   5.503   0.392   4.107  2.1065  0.3680  0.0951
 6433SOL     OW30227   2.184   3.293   0.975  0.3847  0.3881 -0.0879
 6433SOL    HW130228   2.187   3.230   1.053 -0.9783  2.7444  1.9389
 6433SOL    HW230229   2.183   3.240   0.890 -0.6284 -2.3151  1.5238
 6434SOL     OW30230   5.351   7.514   4.661 -0.2484  0.5490  0.1675
 6434SOL    HW130231   5.346   7.605   4.620  1.0695  0.3583 -0.4616
 6434SOL    HW230232   5.442   7.475   4.645 -0.0886 -0.0128  2.2750
 6435SOL     OW30233   1.202   2.782   4.275 -0.1335 -0.2091  0.1659
 6435SOL    HW130234   1.232   2.868   4.233  2.9254 -1.8595 -1.2012
 6435SOL    HW230235   1.241   2.774   4.367  0.1494 -0.4083  0.0319
 6436SOL     OW30236   0.417   9.072   1.986 -0.4038 -0.3249  0.1721
 6436SOL    HW130237   0.336   9.015   2.001 -1.6294  1.0994 -0.7669
 6436SOL    HW230238   0.405   9.160   2.032  1.5074 -0.8435  1.6928
 6437SOL     OW30239   0.076   9.748   4.086  0.3035  0.1776  0.6182
 6437SOL    HW130240   0.033   9.778   4.001 -1.5545 -0.6105  1.2473
 6437SOL    HW230241   0.175   9.740   4.072  0.1459  1.0342 -1.1637
 6438SOL     OW30242   0.289   8.823   1.079 -0.5290  0.1841  0.3041
 6438SOL    HW130243   0.387   8.836   1.096 -0.6354  0.8260  0.4581
 6438SOL    HW230244   0.238   8.897   1.124 -0.9852  0.5808 -0.8646
 6439SOL     OW30245   7.414   6.318   4.369 -0.6076  0.0662  0.2283
 6439SOL    HW130246   7.480   6.392   4.382 -0.5810  0.2143 -0.7090
 6439SOL    HW230247   7.365   6.332   4.283 -1.3571 -0.4324  0.5627
 6440SOL     OW30248   2.319   3.370   2.432  0.1434  0.0894  0.0605
 6440SOL    HW130249   2.339   3.420   2.348 -2.4115  1.8251  0.4653
 6440SOL    HW230250   2.251   3.419   2.485  1.0999 -1.4255  2.7749
 6441SOL     OW30251   8.789   5.522   4.603 -0.5977  0.0164  0.7942
 6441SOL    HW130252   8.720   5.548   4.672 -0.9552 -0.3164  0.5672
 6441SOL    HW230253   8.755   5.546   4.512 -0.9090 -1.1824  0.5867
 6442SOL     OW30254   7.528   1.618   4.049  0.1127  0.5171 -0.7450
 6442SOL    HW130255   7.559   1.565   4.128  0.0099 -0.8087 -1.5736
 6442SOL    HW230256   7.486   1.703   4.080  0.5474  0.2479  0.6037
 6443SOL     OW30257   8.411   4.757   4.094 -0.3420 -0.5055  0.2991
 6443SOL    HW130258   8.444   4.666   4.116  0.0904 -0.8491 -1.6940
 6443SOL    HW230259   8.477   4.826   4.124  0.2815 -0.9690 -0.0053
 6444SOL     OW30260   2.651   5.392   1.398  0.1340  0.0838 -0.1582
 6444SOL    HW130261   2.693   5.319   1.451 -1.3107  1.5589  3.1230
 6444SOL    HW230262   2.723   5.444   1.351  1.5119 -0.6548  1.1037
 6445SOL     OW30263   8.605   9.886   4.114 -0.1897 -0.2201  0.1840
 6445SOL    HW130264   8.704   9.893   4.122 -0.0825  0.2821 -1.3288
 6445SOL    HW230265   8.561   9.959   4.165  0.0998 -1.9054  2.9513
 6446SOL     OW30266   4.511   4.092   3.105  0.0727 -0.3097  0.2450
 6446SOL    HW130267   4.551   4.004   3.129  2.3122  0.4179 -0.7466
 6446SOL    HW230268   4.446   4.119   3.176  0.9360 -1.7491  1.6107
 6447SOL     OW30269   5.989   8.055   4.818 -0.5139 -0.2719  1.0746
 6447SOL    HW130270   6.089   8.046   4.818 -0.5044 -0.4373  2.5717
 6447SOL    HW230271   5.949   7.970   4.851 -1.0818  0.2651  1.7904
 6448SOL     OW30272   7.853   7.096   5.045  0.3933 -0.3574  0.0537
 6448SOL    HW130273   7.890   7.003   5.054 -0.3794 -0.6450  0.3150
 6448SOL    HW230274   7.927   7.162   5.055  0.9282 -0.9427  0.0226
 6449SOL     OW30275   2.161   5.402   6.072 -0.0777  0.6247  0.1876
 6449SOL    HW130276   2.069   5.441   6.067 -0.1309  0.5567  0.6489
 6449SOL    HW230277   2.198   5.415   6.163 -0.5123 -1.3458  0.6703
 6450SOL     OW30278   0.695   2.893   3.560 -0.9593 -0.3920 -0.6410
 6450SOL    HW130279   0.644   2.832   3.500  0.0480 -1.1060 -0.7944
 6450SOL    HW230280   0.681   2.988   3.531  0.2842 -0.7744 -2.6619
 6451SOL     OW30281   9.419   4.175   3.507 -0.1367  0.6404 -0.1608
 6451SOL    HW130282   9.338   4.172   3.565  0.0129 -0.4913 -0.0094
 6451SOL    HW230283   9.405   4.243   3.434 -0.4745  1.7885  0.9477
 6452SOL     OW30284   8.748   5.494   5.544 -0.5171 -0.4204  0.4483
 6452SOL    HW130285   8.693   5.458   5.620 -0.5196  0.5549  0.9207
 6452SOL    HW230286   8.695   5.491   5.460 -1.7280  1.5966  1.1189
 6453SOL     OW30287   1.009   9.628   2.721 -0.1101 -0.4984 -0.9752
 6453SOL    HW130288   1.024   9.725   2.703  1.1119 -0.6396 -0.7703
 6453SOL    HW230289   1.096   9.579   2.712 -0.3961 -1.3137  0.5170
 6454SOL     OW30290   8.086   2.598   3.851  0.3094 -0.3445  0.7687
 6454SOL    HW130291   8.030   2.590   3.768  1.3213  0.8079 -0.0427
 6454SOL    HW230292   8.147   2.518   3.858  0.3848 -0.3301  0.2773
 6455SOL     OW30293   4.094   9.278   4.299 -0.1139  0.8981 -0.8802
 6455SOL    HW130294   4.168   9.213   4.316 -0.3026  0.7423 -0.6546
 6455SOL    HW230295   4.017   9.257   4.359 -0.6711  0.5265 -1.7200
 6456SOL     OW30296   4.602   7.716   2.267  0.2779  0.1734  0.1031
 6456SOL    HW130297   4.570   7.800   2.311  1.4363  1.0587 -0.6918
 6456SOL    HW230298   4.695   7.731   2.232  1.4490 -2.2417  2.1133
 6457SOL     OW30299   1.565   7.164   4.803  0.2835 -0.3406  0.1111
 6457SOL    HW130300   1.603   7.097   4.867  0.3358 -0.7943 -0.3930
 6457SOL    HW230301   1.630   7.180   4.729  0.6470  0.9257  0.6842
 6458SOL     OW30302   2.077   7.859   2.452  0.1097 -0.0169  0.0401
 6458SOL    HW130303   2.004   7.841   2.518 -1.3185  2.0333 -0.9139
 6458SOL    HW230304   2.090   7.958   2.443  2.6235 -0.3430 -0.2492
 6459SOL     OW30305   0.404   2.051   2.952 -0.1569  0.0227 -0.1144
 6459SOL    HW130306   0.430   1.960   2.985  1.0190 -0.0708 -1.2733
 6459SOL    HW230307   0.341   2.093   3.018 -1.8411 -2.1802 -0.2352
 6460SOL     OW30308   2.283   1.829   2.210  0.1144 -0.1084  0.8528
 6460SOL    HW130309   2.364   1.788   2.166  0.3790 -0.7678  1.9287
 6460SOL    HW230310   2.240   1.893   2.147  0.5641 -0.9419 -0.3173
 6461SOL     OW30311   8.631   5.895   1.810  0.0125  0.0854  0.2254
 6461SOL    HW130312   8.607   5.979   1.762  0.5822 -0.2026 -0.5603
 6461SOL    HW230313   8.659   5.917   1.904  0.6856  0.8168 -0.1535
 6462SOL     OW30314   9.140   0.027   0.856 -0.2607  0.2127 -0.0877
 6462SOL    HW130315   9.203   0.079   0.913  0.4007 -1.4372  0.7191
 6462SOL    HW230316   9.051   0.073   0.854  0.4118  1.5529  0.2962
 6463SOL     OW30317   0.018   2.642   4.881 -0.4930  0.4108  0.4895
 6463SOL    HW130318   0.088   2.679   4.820 -2.1255  1.3902 -0.8609
 6463SOL    HW230319  -0.054   2.598   4.826 -0.4323 -1.4793  1.8931
 6464SOL     OW30320   3.599   6.604   3.144 -0.0881  0.2819 -0.0294
 6464SOL    HW130321   3.640   6.669   3.208  0.7819  0.5133 -0.7962
 6464SOL    HW230322   3.631   6.512   3.165 -0.5281  0.2354  0.4353
 6465SOL     OW30323   1.193   0.620   4.474  0.2497 -0.1898  0.0760
 6465SOL    HW130324   1.192   0.559   4.394  2.0920 -0.2426  0.0804
 6465SOL    HW230325   1.285   0.626   4.510  0.5938  4.3180 -1.2106
 6466SOL     OW30326   7.711   8.092   3.095  0.2522 -0.5056 -0.3422
 6466SOL    HW130327   7.678   7.998   3.092  0.1530 -0.4663 -0.4904
 6466SOL    HW230328   7.810   8.094   3.080  0.3741 -0.6485  0.4283
 6467SOL     OW30329   0.477   2.934   5.376 -0.3040  0.0434 -0.1205
 6467SOL    HW130330   0.481   2.904   5.281  1.9837  1.9654 -0.6869
 6467SOL    HW230331   0.391   2.983   5.391 -1.1471 -1.1659 -0.9075
 6468SOL     OW30332   9.432   7.806   5.349 -0.5794  0.4042  0.3081
 6468SOL    HW130333   9.529   7.798   5.324  0.1257  5.1164  1.0909
 6468SOL    HW230334   9.417   7.761   5.437  1.0409  0.1569  0.4796
 6469SOL     OW30335   5.824   9.232   2.728  0.0352  0.3081 -0.0934
 6469SOL    HW130336   5.790   9.305   2.669 -2.2460  0.2840  1.1505
 6469SOL    HW230337   5.747   9.180   2.764  1.5329 -1.2682  0.8813
 6470SOL     OW30338   8.648   6.190   3.950 -0.5308 -0.0389  0.0624
 6470SOL    HW130339   8.568   6.250   3.940 -1.8169 -1.5484  1.0887
 6470SOL    HW230340   8.677   6.189   4.045  0.2867 -0.0334 -0.1871
 6471SOL     OW30341   8.673   7.704   3.502  0.1394  0.3171 -0.0987
 6471SOL    HW130342   8.754   7.647   3.491 -0.8850 -1.0068 -0.8847
 6471SOL    HW230343   8.695   7.781   3.563  0.8597 -2.2937  3.1125
 6472SOL     OW30344   1.883   3.950   1.381 -0.5726  0.2067  0.5862
 6472SOL    HW130345   1.796   3.989   1.410 -0.0314  3.6203 -2.0728
 6472SOL    HW230346   1.954   4.021   1.382  1.0933 -1.3354 -1.7248
 6473SOL     OW30347   8.483   0.835   1.048  0.2758  0.4733  0.3781
 6473SOL    HW130348   8.495   0.913   0.988  0.2616  0.4206  0.3067
 6473SOL    HW230349   8.508   0.860   1.141  0.3847  0.5287  0.3337
 6474SOL     OW30350   9.673   1.114   3.656  0.1866  0.0371  0.2498
 6474SOL    HW130351   9.615   1.181   3.609 -0.2324  0.9889  2.0689
 6474SOL    HW230352   9.740   1.162   3.712  0.3929 -1.0715  0.9687
 6475SOL     OW30353   5.521   1.395   1.939 -0.8062  0.6517  0.5396
 6475SOL    HW130354   5.532   1.296   1.948  0.0212  0.8294  1.6541
 6475SOL    HW230355   5.482   1.416   1.850  0.7742 -0.5635 -0.4788
 6476SOL     OW30356   8.318   2.319   5.253  0.6118 -0.2348 -0.6416
 6476SOL    HW130357   8.264   2.237   5.275 -0.6695  0.1631 -2.2518
 6476SOL    HW230358   8.396   2.324   5.315 -1.0690 -0.9453  1.6225
 6477SOL     OW30359   2.046   1.250   2.915  0.1162 -0.3370  0.3521
 6477SOL    HW130360   1.987   1.170   2.901 -0.4447 -0.0778  1.2042
 6477SOL    HW230361   2.099   1.267   2.832  0.4511 -1.7710  0.2609
 6478SOL     OW30362   2.213   3.278   3.298  0.5847 -0.3310 -0.2275
 6478SOL    HW130363   2.150   3.219   3.349  0.7482 -1.4357 -1.2809
 6478SOL    HW230364   2.307   3.259   3.327  0.6210 -0.4856 -0.4372
 6479SOL     OW30365   3.202   3.815   4.512  0.1924  0.0507 -0.4197
 6479SOL    HW130366   3.270   3.888   4.518  0.8883 -0.6062 -0.2988
 6479SOL    HW230367   3.215   3.763   4.428 -0.1133 -0.1256 -0.3619
 6480SOL     OW30368   4.998   9.401   3.638 -0.2530  0.7979  0.1747
 6480SOL    HW130369   4.959   9.492   3.646  0.9415  1.3149  0.2042
 6480SOL    HW230370   5.083   9.396   3.690 -1.6230 -1.1063  2.3197
 6481SOL     OW30371   1.994   6.488   0.499 -0.0386  0.3992 -0.0308
 6481SOL    HW130372   2.052   6.412   0.469 -1.3383 -1.4952  2.0975
 6481SOL    HW230373   1.989   6.488   0.599 -0.6334  2.8842 -0.0367
 6482SOL     OW30374   9.085   8.660   4.164  0.0067 -0.2858 -0.3945
 6482SOL    HW130375   8.990   8.634   4.146 -0.7286 -0.0198  2.7647
 6482SOL    HW230376   9.091   8.759   4.174  0.2424 -0.4348  1.1757
 6483SOL     OW30377   2.080   6.168   5.193  0.5976 -0.5368 -0.6480
 6483SOL    HW130378   2.087   6.073   5.163 -0.5819 -0.6356 -0.6309
 6483SOL    HW230379   2.167   6.215   5.176  1.6140 -1.9551  0.5488
 6484SOL     OW30380   2.797   4.801   2.443 -0.5093  0.1078  0.9274
 6484SOL    HW130381   2.849   4.886   2.434 -0.6240  0.1353  0.5506
 6484SOL    HW230382   2.737   4.789   2.364  1.1383 -1.4389 -0.1381
 6485SOL     OW30383   1.138   4.332   0.048 -0.2355  0.1645  0.2845
 6485SOL    HW130384   1.076   4.317  -0.029  1.2635 -0.0469 -0.9073
 6485SOL    HW230385   1.097   4.294   0.131 -2.0542  0.7438 -0.3070
 6486SOL     OW30386   9.686   4.322   0.912 -0.0250 -0.2377  0.3364
 6486SOL    HW130387   9.598   4.345   0.871 -0.1639 -0.9596  0.2147
 6486SOL    HW230388   9.673   4.254   0.984  0.3961 -0.1357  0.5110
 6487SOL     OW30389   8.123   0.949   2.096  0.6782 -0.2998  0.5935
 6487SOL    HW130390   8.090   0.905   2.179 -0.7117  0.0155  0.2160
 6487SOL    HW230391   8.051   0.948   2.027  1.2909  0.8329 -0.0703
 6488SOL     OW30392   8.357   0.320   3.076 -0.5658 -0.5582 -0.4693
 6488SOL    HW130393   8.411   0.248   3.118 -1.6187 -2.0932 -1.6922
 6488SOL    HW230394   8.333   0.388   3.145 -0.5284 -1.9678  0.9608
 6489SOL     OW30395   0.785   7.629   0.138 -0.0250 -0.1340  0.0251
 6489SOL    HW130396   0.758   7.704   0.199  0.7467 -1.9668  2.7209
 6489SOL    HW230397   0.733   7.547   0.161  1.0629 -1.1515 -1.0642
 6490SOL     OW30398   1.332   2.409   3.121 -0.8388 -0.8453  0.0783
 6490SOL    HW130399   1.415   2.394   3.176 -1.9709 -1.8707  1.5599
 6490SOL    HW230400   1.297   2.321   3.089 -0.5784 -0.2994 -1.7410
 6491SOL     OW30401   3.297   5.550   6.663  0.5736 -0.6378  0.0408
 6491SOL    HW130402   3.351   5.467   6.653 -1.3912 -2.0291  0.7612
 6491SOL    HW230403   3.215   5.531   6.718  0.1455  1.7913  0.3225
 6492SOL     OW30404   6.039   9.357   5.233  0.5486 -0.0565 -0.2976
 6492SOL    HW130405   6.014   9.379   5.138  1.8179 -0.2955 -0.7010
 6492SOL    HW230406   6.032   9.439   5.289 -0.8043 -0.0459 -0.4603
 6493SOL     OW30407   0.868   5.581   4.274  0.7290  0.6958 -0.3886
 6493SOL    HW130408   0.819   5.519   4.336 -0.2759  0.2370 -1.6315
 6493SOL    HW230409   0.957   5.542   4.251  0.7932  0.5112  0.1563
 6494SOL     OW30410   2.766   7.433   2.637 -0.3210 -0.0032 -0.0643
 6494SOL    HW130411   2.757   7.405   2.542  0.2837 -1.6008  0.3378
 6494SOL    HW230412   2.821   7.366   2.687  1.3960  2.0356  0.8571
 6495SOL     OW30413   7.712   7.770   4.593  0.0852  0.5006 -0.0892
 6495SOL    HW130414   7.688   7.676   4.617  1.0453  0.3357  0.2595
 6495SOL    HW230415   7.669   7.832   4.659  0.6813  0.2026  0.5969
 6496SOL     OW30416   2.967   7.696   5.532  0.0824  0.4929 -0.6380
 6496SOL    HW130417   2.879   7.718   5.491 -0.0047 -0.1691 -0.8181
 6496SOL    HW230418   3.031   7.772   5.519 -0.1767  0.5931 -1.3218
 6497SOL     OW30419   1.190   4.259   5.943  0.0487  0.3073  0.3651
 6497SOL    HW130420   1.194   4.172   5.991  2.0153 -0.1533 -0.5788
 6497SOL    HW230421   1.219   4.333   6.004  0.8590 -0.0399  0.4015
 6498SOL     OW30422   1.731   7.570   1.784  0.3470 -0.3278 -0.2589
 6498SOL    HW130423   1.643   7.600   1.747  0.2581  0.3265  0.4741
 6498SOL    HW230424   1.805   7.599   1.723  0.4896  3.5025  1.5276
 6499SOL     OW30425   9.734   6.913   2.552 -0.2966 -0.3684  0.4746
 6499SOL    HW130426   9.712   6.955   2.464  1.6559  3.4777  1.7474
 6499SOL    HW230427   9.666   6.842   2.572 -1.1776 -0.8529 -3.7559
 6500SOL     OW30428   1.274   7.628   4.646 -0.8323  0.4703 -0.4974
 6500SOL    HW130429   1.182   7.598   4.671  0.2677 -1.2538  1.6954
 6500SOL    HW230430   1.329   7.639   4.729  1.1528  0.7248 -1.8111
 6501SOL     OW30431   8.748   7.380   2.211 -0.1336  0.0037 -0.7449
 6501SOL    HW130432   8.671   7.422   2.259  0.8288 -0.0729  0.9347
 6501SOL    HW230433   8.782   7.443   2.141 -2.1955 -0.2862 -2.0590
 6502SOL     OW30434   2.763   4.813   1.170  0.7979 -0.3694  0.3770
 6502SOL    HW130435   2.723   4.722   1.165  1.2662 -0.5030 -1.5052
 6502SOL    HW230436   2.689   4.881   1.176  0.3873 -0.7842  0.0972
 6503SOL     OW30437   8.636   3.471   3.176  0.1853 -0.3625  0.0465
 6503SOL    HW130438   8.680   3.385   3.203  1.6213  0.5735  0.7343
 6503SOL    HW230439   8.564   3.452   3.109  0.6607 -2.0671  0.0014
 6504SOL     OW30440   9.022   7.199   0.516  0.1725  0.1281 -0.0788
 6504SOL    HW130441   8.935   7.179   0.472  0.8188 -0.4419 -1.1327
 6504SOL    HW230442   9.044   7.295   0.503 -0.3238  0.2861  0.2381
 6505SOL     OW30443   6.786   8.831   4.409 -0.4224 -0.7043  0.1428
 6505SOL    HW130444   6.844   8.911   4.424 -0.3896 -0.5401 -0.8086
 6505SOL    HW230445   6.799   8.765   4.483 -0.9177  0.4435  1.2654
 6506SOL     OW30446   2.840   8.125   1.773  0.0546  0.1057  0.2302
 6506SOL    HW130447   2.840   8.081   1.683 -1.4532 -0.1126  0.3172
 6506SOL    HW230448   2.920   8.184   1.782  1.6675 -1.9376 -0.2258
 6507SOL     OW30449   0.823   9.986   2.198  0.0269 -0.1663 -0.3182
 6507SOL    HW130450   0.876   9.922   2.142 -0.1997  0.5217 -1.3375
 6507SOL    HW230451   0.728   9.986   2.168  0.3901  2.0399 -1.6396
 6508SOL     OW30452   2.186   9.547   2.892 -0.2865  0.1282  0.3036
 6508SOL    HW130453   2.129   9.550   2.810 -0.0986  0.8975  0.1914
 6508SOL    HW230454   2.160   9.622   2.953  0.7520  0.6339  0.1429
 6509SOL     OW30455   5.664   0.608   5.215  0.6448  0.1024 -0.6636
 6509SOL    HW130456   5.621   0.547   5.148 -1.0678  0.4362  0.0950
 6509SOL    HW230457   5.676   0.559   5.301 -2.1024  1.2167  0.4093
 6510SOL     OW30458   0.425   4.742   3.211  0.8556 -0.6908  0.1624
 6510SOL    HW130459   0.487   4.819   3.223  1.2820 -0.9354 -0.4836
 6510SOL    HW230460   0.387   4.716   3.300  1.8462 -0.6892  0.5933
 6511SOL     OW30461   9.932   3.838   3.191 -0.3813  0.5609 -0.0004
 6511SOL    HW130462   9.954   3.852   3.095 -1.1914 -1.1477 -0.4520
 6511SOL    HW230463  10.011   3.799   3.238 -0.0473  1.2188 -0.0101
 6512SOL     OW30464   1.402   4.678   6.363 -0.1361 -0.7310 -0.2700
 6512SOL    HW130465   1.344   4.721   6.294  1.0956  0.5202 -0.5310
 6512SOL    HW230466   1.460   4.610   6.320  0.8865  0.3018 -0.5345
 6513SOL     OW30467   0.430   4.289   1.110 -0.5370 -0.1559 -0.1439
 6513SOL    HW130468   0.340   4.332   1.108 -0.6700 -0.4109  0.3170
 6513SOL    HW230469   0.499   4.356   1.081 -1.0640 -0.4702 -2.2237
 6514SOL     OW30470   8.377   8.392   2.572 -0.5515 -0.1750  0.6011
 6514SOL    HW130471   8.397   8.299   2.543 -0.7696 -0.2099  0.5613
 6514SOL    HW230472   8.410   8.406   2.666  1.8110  0.5128 -0.3155
 6515SOL     OW30473   9.921   4.119   2.634 -0.4560  0.2467 -0.2592
 6515SOL    HW130474   9.989   4.047   2.618 -1.0608 -0.6663  1.1707
 6515SOL    HW230475   9.969   4.206   2.651  0.2965  0.0496 -1.3402
 6516SOL     OW30476   0.643   4.440   5.725 -0.2815  0.3028 -0.3557
 6516SOL    HW130477   0.687   4.502   5.661  2.2390 -0.8400  0.2213
 6516SOL    HW230478   0.662   4.469   5.819 -0.6602 -0.2832 -0.0934
 6517SOL     OW30479   9.547   1.209   2.326 -0.0768  0.1177  0.0738
 6517SOL    HW130480   9.525   1.225   2.423  1.0121  0.8238  0.2084
 6517SOL    HW230481   9.595   1.122   2.317 -2.2911 -1.1204 -0.1414
 6518SOL     OW30482   8.227   5.735   3.247  0.0638  0.0164  0.3166
 6518SOL    HW130483   8.189   5.779   3.166 -0.1984 -0.3662  0.2287
 6518SOL    HW230484   8.268   5.647   3.221  0.8874  0.3664  0.4321
 6519SOL     OW30485   3.606   7.594   5.232  0.0999  0.0475 -0.3306
 6519SOL    HW130486   3.518   7.552   5.210 -0.6522  0.9398  0.9414
 6519SOL    HW230487   3.674   7.522   5.245 -0.0353 -0.6020 -2.8796
 6520SOL     OW30488   2.501   7.403   1.438  0.1524  0.2133 -0.2940
 6520SOL    HW130489   2.577   7.465   1.462 -0.0356 -0.2687  1.5700
 6520SOL    HW230490   2.530   7.309   1.451 -0.1877 -0.0403 -1.3397
 6521SOL     OW30491   9.549   0.574   2.753 -0.1676  0.5790 -0.1282
 6521SOL    HW130492   9.578   0.524   2.835 -0.3286  0.5324 -0.1004
 6521SOL    HW230493   9.499   0.513   2.692  0.2658  0.5225 -0.4302
 6522SOL     OW30494   4.617   3.461   1.299 -1.1656  0.5347  0.4209
 6522SOL    HW130495   4.628   3.364   1.321  0.7128  0.9839  1.5295
 6522SOL    HW230496   4.525   3.491   1.325 -1.8489 -0.9806 -0.1579
 6523SOL     OW30497   1.699   3.514   5.566  0.6164 -0.2008 -0.5920
 6523SOL    HW130498   1.656   3.489   5.652  1.6194  1.7252  0.5084
 6523SOL    HW230499   1.643   3.583   5.519 -0.7008 -2.3311 -2.2458
 6524SOL     OW30500   0.575   6.832   3.052 -0.0790  0.1317 -0.2457
 6524SOL    HW130501   0.668   6.797   3.037 -0.3217 -0.0070 -1.4577
 6524SOL    HW230502   0.537   6.791   3.135  0.7942 -0.0960  0.0516
 6525SOL     OW30503   4.751   1.453   2.829 -0.2767  0.8336 -0.0885
 6525SOL    HW130504   4.681   1.405   2.776  0.0715  0.7712 -0.4969
 6525SOL    HW230505   4.758   1.548   2.798 -0.8800  1.1247  0.6375
 6526SOL     OW30506   0.409   4.636   2.447  0.3799  0.3844  0.4717
 6526SOL    HW130507   0.372   4.543   2.449  2.3114 -0.4025  1.4356
 6526SOL    HW230508   0.335   4.702   2.456 -1.0814 -1.0452 -0.7222
 6527SOL     OW30509   3.850   1.503   3.475 -0.8474 -0.5729 -0.0103
 6527SOL    HW130510   3.753   1.490   3.496 -0.8903 -0.9757 -0.4454
 6527SOL    HW230511   3.873   1.453   3.391 -0.3199 -0.2767 -0.0464
 6528SOL     OW30512   8.296   5.041   0.295 -0.3690  0.1343 -0.2173
 6528SOL    HW130513   8.232   5.100   0.245  0.0912  0.7167 -0.1232
 6528SOL    HW230514   8.389   5.060   0.264 -0.1332  0.0978  0.4611
 6529SOL     OW30515   7.866   7.680   2.876  0.2386  0.1148 -0.5443
 6529SOL    HW130516   7.957   7.722   2.877 -0.5084  1.7856 -1.2980
 6529SOL    HW230517   7.823   7.693   2.966  0.2142  0.5109 -0.6119
 6530SOL     OW30518   1.139   9.603   4.336  0.6088  0.4193 -0.2394
 6530SOL    HW130519   1.197   9.565   4.408  0.6905  1.3060  0.1672
 6530SOL    HW230520   1.086   9.529   4.294 -0.5770  0.0931  1.7544
 6531SOL     OW30521   9.024   8.224   0.229 -0.5889  0.9694 -0.6565
 6531SOL    HW130522   9.108   8.276   0.246  0.1368 -0.1662 -0.7667
 6531SOL    HW230523   8.984   8.253   0.142  0.1154  0.9544 -0.9886
 6532SOL     OW30524   2.650   9.665   1.839 -0.1918  0.3816 -0.3824
 6532SOL    HW130525   2.579   9.678   1.908  1.3285  1.1070  1.0635
 6532SOL    HW230526   2.641   9.735   1.768 -2.7758 -1.3532 -1.8468
 6533SOL     OW30527   3.452   6.567   0.018  0.2480  0.3113  0.2381
 6533SOL    HW130528   3.444   6.470   0.041  1.9830 -0.4614 -2.2159
 6533SOL    HW230529   3.537   6.604   0.055  0.9126  0.1708 -1.1025
 6534SOL     OW30530   7.248   3.789   1.399  0.7262 -0.3604 -0.0268
 6534SOL    HW130531   7.177   3.792   1.328 -0.6581  1.2930  1.3718
 6534SOL    HW230532   7.254   3.696   1.436  0.5088 -0.9113 -1.3489
 6535SOL     OW30533   1.681   3.158   5.261  0.5122  0.1414 -0.0010
 6535SOL    HW130534   1.762   3.109   5.228 -0.1562 -0.0797 -1.3767
 6535SOL    HW230535   1.602   3.134   5.204 -0.6412 -0.0382  1.6281
 6536SOL     OW30536   9.782   2.644   5.225 -0.0444 -0.2312  0.0392
 6536SOL    HW130537   9.782   2.707   5.148 -0.5779 -0.2735  0.0003
 6536SOL    HW230538   9.847   2.570   5.208  0.7867  0.4511  0.2113
 6537SOL     OW30539   8.936   5.335   5.656  0.4671  0.1269  0.4479
 6537SOL    HW130540   8.861   5.342   5.591 -0.7154  0.7131  1.8338
 6537SOL    HW230541   8.902   5.353   5.749  2.2205 -0.0855  1.1659
 6538SOL     OW30542   2.989   5.887   0.733 -0.0362  0.0404  0.2135
 6538SOL    HW130543   3.076   5.918   0.692  0.2346  0.1334  0.8562
 6538SOL    HW230544   2.927   5.965   0.742 -0.8083 -0.3096 -1.7559
 6539SOL     OW30545   9.810   1.051   1.128 -0.6105  0.7564  0.0284
 6539SOL    HW130546   9.797   0.953   1.144 -0.5717  1.0027  1.5662
 6539SOL    HW230547   9.864   1.063   1.044 -1.2379 -0.5133 -0.5768
 6540SOL     OW30548   9.704   3.534   4.396  0.0976  0.1998  0.1563
 6540SOL    HW130549   9.606   3.516   4.395  0.3036 -1.1036  1.3908
 6540SOL    HW230550   9.748   3.477   4.466  1.9485 -0.2663 -1.3422
 6541SOL     OW30551   2.390   5.183   0.503 -0.2262 -0.1380 -0.1558
 6541SOL    HW130552   2.330   5.224   0.572  0.8824  1.9509 -0.3922
 6541SOL    HW230553   2.421   5.094   0.535 -2.4187 -0.6880  0.5285
 6542SOL     OW30554   0.998   4.372   6.525  0.4624  0.2747 -0.2093
 6542SOL    HW130555   0.926   4.369   6.457  1.0817 -1.4257 -0.8267
 6542SOL    HW230556   1.078   4.321   6.492  1.2821  0.6005  1.2005
 6543SOL     OW30557   1.690   9.073   1.840  0.0900  0.2744  0.3986
 6543SOL    HW130558   1.728   9.160   1.807 -1.5367 -0.1254 -2.7777
 6543SOL    HW230559   1.755   8.999   1.821  0.9280  0.5977  1.9368
 6544SOL     OW30560   1.483   7.575   3.070 -0.4476 -0.0554 -0.1944
 6544SOL    HW130561   1.457   7.541   3.161 -0.0825  0.4456  0.1029
 6544SOL    HW230562   1.461   7.507   3.001  0.7039 -1.0964  0.4437
 6545SOL     OW30563   8.729   5.379   1.664 -0.3414  0.9031  0.1065
 6545SOL    HW130564   8.729   5.466   1.714 -0.4140  0.6404  0.5702
 6545SOL    HW230565   8.651   5.377   1.602 -0.0396  1.3873 -0.3008
 6546SOL     OW30566   2.542   2.593   1.162 -0.1614  0.4696  0.7298
 6546SOL    HW130567   2.634   2.575   1.197 -0.9363 -1.7880  1.7282
 6546SOL    HW230568   2.546   2.664   1.092  2.3574  0.3045  0.6614
 6547SOL     OW30569   4.995   2.113   4.482  0.2925 -0.4139  0.1892
 6547SOL    HW130570   4.939   2.167   4.545  1.9026  1.1121  0.3550
 6547SOL    HW230571   4.937   2.071   4.413 -1.3168 -0.7404  1.6936
 6548SOL     OW30572   2.248   2.263   3.440  0.1754  0.3583  0.7013
 6548SOL    HW130573   2.157   2.224   3.455  0.9122 -1.5601  0.2867
 6548SOL    HW230574   2.309   2.238   3.515  0.7755  0.3481  0.2137
 6549SOL     OW30575   0.430   4.398   5.015  0.4676  0.0946 -0.0626
 6549SOL    HW130576   0.415   4.405   4.917 -1.7972  3.0341  0.4215
 6549SOL    HW230577   0.524   4.426   5.037  0.5697  0.7434 -1.2814
 6550SOL     OW30578   6.219   1.758   1.574  0.1843 -0.4621 -0.0056
 6550SOL    HW130579   6.242   1.783   1.480 -3.2423 -0.4774 -0.9097
 6550SOL    HW230580   6.246   1.664   1.591  2.4248  0.0840 -0.3727
 6551SOL     OW30581   0.512   7.444   1.693 -0.1760  0.4432 -0.2998
 6551SOL    HW130582   0.460   7.527   1.671  0.8179  0.9062 -0.9632
 6551SOL    HW230583   0.512   7.383   1.614 -0.2420  0.1694 -0.0871
 6552SOL     OW30584   4.091   4.753   0.059 -0.0297  0.1455  0.5000
 6552SOL    HW130585   4.135   4.672   0.098 -0.4321 -0.5845 -0.5627
 6552SOL    HW230586   4.115   4.761  -0.038  2.3067  2.8532  1.2050
 6553SOL     OW30587   5.919   1.640   1.727 -0.0824  0.0255  0.6412
 6553SOL    HW130588   5.917   1.737   1.749  1.3319 -0.1029  1.3927
 6553SOL    HW230589   5.959   1.589   1.804 -2.4259 -1.3518  1.0014
 6554SOL     OW30590   9.075   2.593   4.515  0.1297  0.4406  0.7308
 6554SOL    HW130591   8.984   2.617   4.549 -0.1610  0.0458  0.2548
 6554SOL    HW230592   9.145   2.622   4.580 -0.2955  1.4208  0.7493
 6555SOL     OW30593   2.074   8.126   2.337 -0.2839  0.0402 -0.1820
 6555SOL    HW130594   2.109   8.083   2.253 -2.3768 -1.3766 -0.3814
 6555SOL    HW230595   2.031   8.214   2.313 -0.2707 -0.0381 -0.5011
 6556SOL     OW30596   5.326   8.299   2.382  0.2036  0.7129 -0.0894
 6556SOL    HW130597   5.235   8.328   2.413  0.5457  1.8418 -0.1032
 6556SOL    HW230598   5.319   8.256   2.292 -0.4703 -0.3311  0.4509
 6557SOL     OW30599   2.218   9.500   4.340 -0.3101 -0.1287  1.1127
 6557SOL    HW130600   2.128   9.538   4.319 -0.0104 -0.3758 -0.6971
 6557SOL    HW230601   2.285   9.573   4.346 -0.4046 -0.0538  1.2868
 6558SOL     OW30602   7.250   0.454   3.838 -0.2686 -0.2669  0.3541
 6558SOL    HW130603   7.225   0.360   3.858  0.7838 -0.7480 -0.5310
 6558SOL    HW230604   7.342   0.473   3.875 -0.2887  0.2677  0.1370
 6559SOL     OW30605   9.313   8.033   5.169 -0.2531 -0.6840 -0.1579
 6559SOL    HW130606   9.244   7.970   5.132  0.3058 -1.5646  0.2796
 6559SOL    HW230607   9.360   7.989   5.245  1.3883 -0.4332 -1.0124
 6560SOL     OW30608   9.353   2.418   1.324 -0.0085  0.5427  0.2904
 6560SOL    HW130609   9.307   2.347   1.377 -0.5813  0.8939  0.2750
 6560SOL    HW230610   9.309   2.506   1.342  0.0880  0.7389 -0.4123
 6561SOL     OW30611   0.418   7.020   5.018 -0.2580  0.0076  0.4704
 6561SOL    HW130612   0.382   6.928   5.036  1.9967 -0.9039  0.5372
 6561SOL    HW230613   0.459   7.057   5.101 -2.5080  1.7347  0.8404
 6562SOL     OW30614   8.531   7.468   5.149 -0.3508  0.3165  0.9766
 6562SOL    HW130615   8.500   7.398   5.085 -2.8575  1.3440  1.0283
 6562SOL    HW230616   8.554   7.551   5.098  1.1221 -0.0057  1.0790
 6563SOL     OW30617   2.033   0.858   3.626  0.0221 -0.2799 -0.2025
 6563SOL    HW130618   2.021   0.957   3.633  0.0595 -0.3475  0.8343
 6563SOL    HW230619   2.060   0.835   3.532 -0.1515  0.6709 -0.4950
 6564SOL     OW30620   8.611   3.037   5.405 -0.0847  0.3570 -0.1382
 6564SOL    HW130621   8.643   3.130   5.386 -0.2895  0.0683 -2.0555
 6564SOL    HW230622   8.608   2.985   5.319 -0.8828 -1.1301  0.7708
 6565SOL     OW30623   1.899   6.863   1.120  0.0697  0.6935  0.0421
 6565SOL    HW130624   1.906   6.921   1.038 -1.4790  0.8335 -0.0212
 6565SOL    HW230625   1.964   6.788   1.114  0.6438  1.2522 -0.8673
 6566SOL     OW30626   0.280   8.536   4.876 -0.2897 -0.3205  0.6273
 6566SOL    HW130627   0.190   8.492   4.875 -0.0597 -0.7948 -0.8415
 6566SOL    HW230628   0.275   8.621   4.929 -1.9839  0.4460 -0.7002
 6567SOL     OW30629   4.520   6.068   2.530  0.1037  0.1056  0.1772
 6567SOL    HW130630   4.546   5.991   2.588 -0.4397 -0.3187 -0.1351
 6567SOL    HW230631   4.566   6.152   2.562  0.6302 -0.3280  0.5653
 6568SOL     OW30632   0.915   5.593   1.668 -0.2498  0.1992 -0.6640
 6568SOL    HW130633   0.847   5.651   1.713 -1.2734 -0.5945 -1.1600
 6568SOL    HW230634   0.921   5.619   1.572 -0.2577 -0.0993 -0.7448
 6569SOL     OW30635   1.269   8.504   4.781 -0.1643 -0.1914 -0.1698
 6569SOL    HW130636   1.366   8.488   4.797 -0.7502 -2.8954  0.9416
 6569SOL    HW230637   1.231   8.557   4.856  0.6078  1.7033 -1.0713
 6570SOL     OW30638   7.385   1.603   1.570  0.3314  0.1211  0.5096
 6570SOL    HW130639   7.480   1.591   1.598  0.2411  1.2541  1.3378
 6570SOL    HW230640   7.326   1.607   1.652 -0.2293  1.0600  0.0642
 6571SOL     OW30641   1.290   4.542   0.055 -0.2268 -0.3288  0.5708
 6571SOL    HW130642   1.249   4.451   0.050  0.2861 -0.4709 -2.0614
 6571SOL    HW230643   1.380   4.536   0.098  0.7707 -1.4859 -1.5675
 6572SOL     OW30644   5.814   1.124   1.330  0.0471 -0.6493 -0.2242
 6572SOL    HW130645   5.772   1.040   1.365  1.3919 -1.5369 -0.6885
 6572SOL    HW230646   5.745   1.196   1.322 -1.3195 -2.0043 -0.7377
 6573SOL     OW30647   3.734   7.085   2.940  0.4378 -0.0556  0.0137
 6573SOL    HW130648   3.796   7.016   2.903 -0.0067 -0.5007  0.0922
 6573SOL    HW230649   3.697   7.053   3.027  1.6491  1.0766  0.9741
 6574SOL     OW30650   3.187   9.916   4.489 -0.3012 -0.0487  0.1386
 6574SOL    HW130651   3.091   9.901   4.512  0.3424 -1.4898  1.9937
 6574SOL    HW230652   3.239   9.832   4.504  1.4606  1.0311  0.2557
 6575SOL     OW30653   4.753   4.672   1.380 -0.5095 -0.3459  0.4525
 6575SOL    HW130654   4.717   4.583   1.353 -0.1827  0.2510 -2.0614
 6575SOL    HW230655   4.691   4.744   1.349 -0.9095  0.3203  2.7015
 6576SOL     OW30656   5.176   1.788   2.234 -0.0440  0.0562 -0.1852
 6576SOL    HW130657   5.259   1.805   2.287 -0.8056  1.3984  0.5929
 6576SOL    HW230658   5.114   1.731   2.288 -0.5493  0.8836  0.1055
 6577SOL     OW30659   5.096   4.242   0.384  0.4613 -0.1643  0.1422
 6577SOL    HW130660   5.058   4.280   0.299  0.5313 -0.1499  0.1172
 6577SOL    HW230661   5.070   4.146   0.392 -0.1152  0.0186  0.4431
 6578SOL     OW30662   5.269   7.854   4.182 -0.1847 -0.2884 -0.1463
 6578SOL    HW130663   5.260   7.818   4.089  2.8968  1.6207 -1.2776
 6578SOL    HW230664   5.307   7.784   4.241 -1.1124 -1.1763 -0.6015
 6579SOL     OW30665   8.173   7.897   2.844  0.6430  0.4247 -0.0390
 6579SOL    HW130666   8.250   7.904   2.908  2.3539 -1.2387 -1.8632
 6579SOL    HW230667   8.162   7.802   2.815 -1.4417  0.8272 -0.6284
 6580SOL     OW30668   5.243   8.506   3.301 -0.2112  0.0547 -0.2306
 6580SOL    HW130669   5.157   8.457   3.286  0.2312 -1.1539  1.1414
 6580SOL    HW230670   5.305   8.489   3.225 -0.9955  0.5196 -0.9779
 6581SOL     OW30671   9.015   4.501   2.533  0.1084 -0.1378  0.3431
 6581SOL    HW130672   8.935   4.468   2.583 -0.9886  1.3973 -0.3411
 6581SOL    HW230673   8.991   4.514   2.437  1.1096  0.5597  0.1808
 6582SOL     OW30674   2.718   5.496   4.406 -0.1462  0.1613  0.2500
 6582SOL    HW130675   2.667   5.451   4.333  3.2433  0.1838 -2.2661
 6582SOL    HW230676   2.780   5.429   4.448 -0.8528  0.5751  1.9805
 6583SOL     OW30677   7.912   9.235   2.955 -0.1442  0.5684 -0.2579
 6583SOL    HW130678   7.899   9.209   3.051  0.0680 -1.3128 -0.7090
 6583SOL    HW230679   7.908   9.153   2.898 -0.6266  1.7172 -1.9019
 6584SOL     OW30680   7.626   7.169   3.061 -0.0091  0.0304  0.0293
 6584SOL    HW130681   7.572   7.089   3.084  1.5544 -0.9413  0.4099
 6584SOL    HW230682   7.594   7.208   2.975 -1.0015 -0.7942  0.0231
 6585SOL     OW30683   9.427   6.072   2.211 -0.5776 -0.5182  0.2504
 6585SOL    HW130684   9.432   6.161   2.256  0.2397  0.3933 -1.6162
 6585SOL    HW230685   9.332   6.053   2.185 -0.6890 -0.0004  0.2797
 6586SOL     OW30686   6.196   7.724   4.906 -0.0126 -0.3280  0.0310
 6586SOL    HW130687   6.178   7.633   4.943 -0.3530 -0.7024 -1.0416
 6586SOL    HW230688   6.276   7.721   4.847  0.5304  0.2661  0.7392
 6587SOL     OW30689   8.044   1.743   0.057  0.0205  0.4734  0.4360
 6587SOL    HW130690   8.008   1.804  -0.014  1.0759 -1.1533 -1.5671
 6587SOL    HW230691   7.979   1.738   0.133 -1.1108  2.3071 -0.3672
 6588SOL     OW30692   4.321   4.713   2.161  0.3861 -0.0920 -0.2384
 6588SOL    HW130693   4.318   4.640   2.230 -0.3531 -1.5456 -1.7808
 6588SOL    HW230694   4.412   4.754   2.160  0.4671 -0.1874  1.4606
 6589SOL     OW30695   4.208   0.798   3.759 -0.0162  0.5981 -0.0989
 6589SOL    HW130696   4.304   0.819   3.779  0.2745 -0.7142 -0.0851
 6589SOL    HW230697   4.152   0.816   3.840  0.4558 -0.1380  0.3987
 6590SOL     OW30698   1.606   5.169   1.398 -0.0120  0.4645  0.8023
 6590SOL    HW130699   1.667   5.248   1.387  1.1288 -0.4398  0.5504
 6590SOL    HW230700   1.531   5.194   1.459  0.9244  1.4211  1.5940
 6591SOL     OW30701   9.503   8.373   5.000  0.2022  0.4419  0.0151
 6591SOL    HW130702   9.419   8.358   4.948  0.2214  2.7135 -0.6931
 6591SOL    HW230703   9.488   8.348   5.096 -0.8148 -0.5876 -0.4052
 6592SOL     OW30704   8.671   1.629   0.219  0.4655  0.2786 -0.4565
 6592SOL    HW130705   8.747   1.644   0.282  1.6633 -0.3721 -1.7302
 6592SOL    HW230706   8.706   1.615   0.127 -1.1731 -0.5915 -0.9665
 6593SOL     OW30707   0.442   5.727   5.880  0.4806  0.3502 -0.2550
 6593SOL    HW130708   0.462   5.664   5.956 -2.4284 -0.2798  0.0444
 6593SOL    HW230709   0.457   5.821   5.911 -0.5909  0.0958  1.0952
 6594SOL     OW30710   4.273   7.121   2.255  0.5160 -0.6140 -0.9900
 6594SOL    HW130711   4.344   7.096   2.321  0.5479 -1.0933 -1.2064
 6594SOL    HW230712   4.187   7.079   2.281  0.2184  0.2676 -0.5194
 6595SOL     OW30713   8.837   9.893   1.504 -0.5485 -0.6940 -0.0500
 6595SOL    HW130714   8.775   9.955   1.456  0.3100  0.4391  0.2752
 6595SOL    HW230715   8.930   9.905   1.469 -0.3004 -1.4569  0.3485
 6596SOL     OW30716   6.688   7.272   5.485  0.5964  0.1033 -0.2613
 6596SOL    HW130717   6.786   7.266   5.501  0.7783 -1.1599 -1.7404
 6596SOL    HW230718   6.658   7.366   5.500  1.7591  0.2175  1.5602
 6597SOL     OW30719   4.178   0.943   1.900 -0.4851  0.6046 -0.4016
 6597SOL    HW130720   4.246   0.870   1.892  2.4453  3.4960 -2.9097
 6597SOL    HW230721   4.087   0.906   1.880  0.6472 -2.7583  0.3907
 6598SOL     OW30722   2.054   8.416   3.798 -0.2884  0.0365  0.5995
 6598SOL    HW130723   1.993   8.366   3.737 -0.9811 -1.5841  2.5689
 6598SOL    HW230724   2.149   8.387   3.781 -0.2518  1.1076 -1.0952
 6599SOL     OW30725   2.330   4.812   1.069  0.0200 -0.0093  0.8788
 6599SOL    HW130726   2.249   4.842   1.017  0.7237  0.8423  0.2491
 6599SOL    HW230727   2.333   4.712   1.071  0.6394 -0.0828 -1.8195
 6600SOL     OW30728   1.656   3.061   0.732  0.1284  0.4779 -0.0681
 6600SOL    HW130729   1.693   3.063   0.825 -0.3085  0.9436  0.0998
 6600SOL    HW230730   1.586   2.990   0.726 -0.6533  1.2009  0.2806
 6601SOL     OW30731   7.500   2.365   2.132 -0.2358 -0.1494  0.6578
 6601SOL    HW130732   7.438   2.363   2.211 -0.2959 -0.4120  0.6059
 6601SOL    HW230733   7.469   2.298   2.065 -0.3628  0.2954  0.2738
 6602SOL     OW30734   7.701   9.907   2.922 -0.1411 -0.0528  0.5372
 6602SOL    HW130735   7.751   9.986   2.957 -0.5424  0.1846  0.5761
 6602SOL    HW230736   7.605   9.931   2.908  0.1712  0.0902 -1.5256
 6603SOL     OW30737   0.157   2.276   2.876 -0.3301 -0.2853  0.2314
 6603SOL    HW130738   0.076   2.234   2.836 -0.5550 -1.3140  1.7339
 6603SOL    HW230739   0.226   2.290   2.805 -1.2996 -0.6757 -0.7919
 6604SOL     OW30740   0.942   9.804   2.018 -0.3979  0.1175  0.1261
 6604SOL    HW130741   1.035   9.836   2.003  0.9580 -3.1849  0.9773
 6604SOL    HW230742   0.904   9.770   1.932  0.0415 -0.6187  0.2182
 6605SOL     OW30743   5.165   0.631   3.723  0.3825 -0.2935 -0.4693
 6605SOL    HW130744   5.082   0.668   3.766  0.8856  0.6845 -0.3120
 6605SOL    HW230745   5.173   0.534   3.744  0.7500  0.2126  1.8839
 6606SOL     OW30746   0.706   1.965   4.767 -0.1413  0.3153 -0.0543
 6606SOL    HW130747   0.784   1.911   4.799 -1.0736 -1.6883 -1.0742
 6606SOL    HW230748   0.739   2.051   4.727  1.3939  0.3701  1.2815
 6607SOL     OW30749   8.992   8.624   5.008  0.1441  0.2080  0.0704
 6607SOL    HW130750   8.906   8.667   5.035  1.1305  0.4312  3.0398
 6607SOL    HW230751   8.986   8.525   5.024  0.2119  0.1329 -0.3619
 6608SOL     OW30752   9.239   6.496   3.513  0.1224  0.1819  0.6756
 6608SOL    HW130753   9.218   6.411   3.464  2.7472  0.9650 -1.9366
 6608SOL    HW230754   9.177   6.568   3.483 -1.2685 -0.4630  1.9474
 6609SOL     OW30755   8.704   5.239   4.794 -0.0416  0.4061  0.1525
 6609SOL    HW130756   8.611   5.260   4.766  1.0856  0.8829 -3.5118
 6609SOL    HW230757   8.760   5.322   4.790  1.4521 -0.6328 -1.8023
 6610SOL     OW30758   8.756   5.254   1.324  0.7848  0.3043  0.1312
 6610SOL    HW130759   8.718   5.171   1.285  0.5196  0.3058  0.3790
 6610SOL    HW230760   8.846   5.271   1.286  0.8567 -0.1187  0.1097
 6611SOL     OW30761   8.037   3.709   1.352 -0.5890  0.5562 -0.1368
 6611SOL    HW130762   8.112   3.700   1.417 -0.4916 -0.5665 -0.4001
 6611SOL    HW230763   8.064   3.670   1.264 -2.4538 -2.5314  0.5680
 6612SOL     OW30764   4.425   0.865   1.177 -0.1159 -0.3220 -0.6015
 6612SOL    HW130765   4.367   0.911   1.110 -0.4843  0.7889  0.4588
 6612SOL    HW230766   4.489   0.931   1.217 -0.6943 -0.6956  0.9835
 6613SOL     OW30767   5.623   1.166   4.810  0.1434  0.4203  0.0372
 6613SOL    HW130768   5.556   1.161   4.885  0.7985 -0.8716  0.5509
 6613SOL    HW230769   5.696   1.230   4.836  0.7432 -0.5655  0.8237
 6614SOL     OW30770   2.755   6.250   1.617  0.3555  0.1019 -0.0905
 6614SOL    HW130771   2.732   6.297   1.702 -0.3079  0.8935 -0.6936
 6614SOL    HW230772   2.687   6.272   1.547  1.1109 -0.2249 -0.9474
 6615SOL     OW30773   1.336   6.590   4.631  0.0504  0.1474  0.6070
 6615SOL    HW130774   1.276   6.637   4.567  1.4967  1.1574 -0.0249
 6615SOL    HW230775   1.364   6.502   4.593  0.3659  0.4477  0.1401
 6616SOL     OW30776   9.386   3.140   4.426  0.4342 -0.1061 -0.6459
 6616SOL    HW130777   9.401   3.077   4.501  1.4795  1.3915  0.4255
 6616SOL    HW230778   9.461   3.205   4.421 -0.3770  0.7532 -2.0338
 6617SOL     OW30779   9.496   4.571   2.622 -0.1882 -0.1843  0.2012
 6617SOL    HW130780   9.423   4.535   2.564 -0.3715  1.5987 -0.7122
 6617SOL    HW230781   9.475   4.665   2.649  1.8323  0.4302 -0.2336
 6618SOL     OW30782   8.381   5.059   3.966  0.0032  0.1678 -0.1997
 6618SOL    HW130783   8.361   4.965   3.993 -0.2481  0.0355 -0.8440
 6618SOL    HW230784   8.419   5.108   4.044 -0.7588 -0.1989  0.4100
 6619SOL     OW30785   8.291   2.715   0.629 -0.1668  0.5170 -0.3150
 6619SOL    HW130786   8.196   2.705   0.658 -0.0306 -0.2030 -0.0927
 6619SOL    HW230787   8.312   2.643   0.563  0.1013  0.9396 -0.6916
 6620SOL     OW30788   1.603   2.366   1.343  0.0737 -0.0478 -0.1289
 6620SOL    HW130789   1.698   2.387   1.321  0.1942 -1.0783 -0.6584
 6620SOL    HW230790   1.583   2.393   1.437  0.3342  1.9376 -0.6396
 6621SOL     OW30791   2.185   7.119   1.446 -0.4334  0.2571  0.5713
 6621SOL    HW130792   2.152   7.196   1.501 -0.9115  0.4719 -0.0214
 6621SOL    HW230793   2.122   7.102   1.370 -0.0873 -0.4254  0.4333
 6622SOL     OW30794   8.709   4.976   2.989  0.1915  0.1693 -0.1147
 6622SOL    HW130795   8.614   4.968   3.019  0.2826  0.7416  0.3232
 6622SOL    HW230796   8.758   4.892   3.011 -0.7849 -1.0411 -2.4090
 6623SOL     OW30797   0.187   3.258   0.054  1.1590 -0.3109  0.1069
 6623SOL    HW130798   0.221   3.337   0.106 -1.0244 -0.4701  1.8355
 6623SOL    HW230799   0.138   3.291  -0.027 -2.7383  0.3373  2.6127
 6624SOL     OW30800   9.420   9.930   2.697  0.1284 -0.0403  0.4745
 6624SOL    HW130801   9.412   9.945   2.796 -1.0610 -0.5100  0.4597
 6624SOL    HW230802   9.489   9.991   2.660  0.8057 -0.0698  1.6528
 6625SOL     OW30803   2.011   5.961   4.922  0.3208 -0.1701 -0.4494
 6625SOL    HW130804   2.080   6.031   4.901  1.6369 -1.5944 -1.0012
 6625SOL    HW230805   2.032   5.920   5.011  0.5415 -1.0132 -0.8822
 6626SOL     OW30806   9.617   5.263   4.938  0.2767  0.2332 -0.1203
 6626SOL    HW130807   9.570   5.234   5.022  0.6568 -0.3001 -0.0871
 6626SOL    HW230808   9.714   5.239   4.944  0.0523 -1.0653 -1.2784
 6627SOL     OW30809   0.908   8.952   1.440 -0.2303  0.4705  0.1589
 6627SOL    HW130810   0.926   8.861   1.402  0.3112 -0.4628  2.5391
 6627SOL    HW230811   0.991   9.008   1.434 -0.5815  0.8484 -1.3649
 6628SOL     OW30812   5.196   4.885   6.451 -0.1406  0.5150 -0.4732
 6628SOL    HW130813   5.212   4.790   6.478 -0.4871  0.9645  1.4122
 6628SOL    HW230814   5.279   4.923   6.410  0.2044 -0.3907 -0.6148
 6629SOL     OW30815   9.416   3.335   0.941 -0.2559 -0.7538  0.5881
 6629SOL    HW130816   9.434   3.269   1.014  2.2356  1.1890  1.7939
 6629SOL    HW230817   9.478   3.318   0.864  0.9557  0.6634  1.2372
 6630SOL     OW30818   2.813   9.747   1.296 -0.3121 -0.1987 -0.4926
 6630SOL    HW130819   2.740   9.707   1.240 -0.7524  1.4849 -1.1781
 6630SOL    HW230820   2.807   9.712   1.389 -0.3706 -2.0607 -1.1728
 6631SOL     OW30821   5.484   2.140   3.662  0.1064  0.6091  0.1060
 6631SOL    HW130822   5.469   2.102   3.754 -3.4509  0.6691 -0.4088
 6631SOL    HW230823   5.496   2.065   3.597  0.8765  0.5490  0.3035
 6632SOL     OW30824   2.566   8.397   4.363 -0.3272 -0.4962 -0.1928
 6632SOL    HW130825   2.617   8.429   4.283 -0.5815  3.1274  1.0061
 6632SOL    HW230826   2.625   8.400   4.443 -1.4403  0.3766  0.5961
 6633SOL     OW30827   3.184   8.615   2.652 -0.3863  0.2591  0.5143
 6633SOL    HW130828   3.108   8.606   2.587 -0.2739  1.1962  0.2430
 6633SOL    HW230829   3.157   8.676   2.726  0.1451  0.7096  0.3407
 6634SOL     OW30830   1.122   0.873   4.258 -0.0149  0.4711  0.0437
 6634SOL    HW130831   1.060   0.931   4.311 -1.9305 -2.4463  1.1642
 6634SOL    HW230832   1.209   0.865   4.306  0.5158  2.8953 -0.4553
 6635SOL     OW30833   3.755   4.575   1.091  0.3769 -0.1632  0.2560
 6635SOL    HW130834   3.776   4.639   1.165 -1.5055 -0.2411  0.8870
 6635SOL    HW230835   3.755   4.481   1.126 -2.4492 -0.0597  0.6542
 6636SOL     OW30836   4.472   3.988   2.544 -0.2587 -0.1984  0.5079
 6636SOL    HW130837   4.461   3.964   2.640  0.0047  0.6687  0.7613
 6636SOL    HW230838   4.519   4.076   2.537 -2.7600  1.1281 -0.3516
 6637SOL     OW30839   1.732   4.045   6.345  0.3248 -0.0906  0.1345
 6637SOL    HW130840   1.739   4.064   6.443 -2.3249 -1.1586  0.5833
 6637SOL    HW230841   1.759   3.950   6.327 -1.5063 -0.6480  0.2164
 6638SOL     OW30842   6.346   1.539   4.016  0.4470 -0.3885 -0.3137
 6638SOL    HW130843   6.252   1.539   3.983  0.2100 -0.6320  0.3392
 6638SOL    HW230844   6.358   1.613   4.082  0.5554 -0.7160  0.0377
 6639SOL     OW30845   1.488   5.682   0.405 -0.4632  0.2720 -0.2312
 6639SOL    HW130846   1.491   5.601   0.346 -1.1977 -0.3138  0.5319
 6639SOL    HW230847   1.537   5.757   0.361 -1.6380  0.0657 -1.9506
 6640SOL     OW30848   2.993   9.559   4.544  0.5153  0.0727  0.3508
 6640SOL    HW130849   3.059   9.628   4.574  0.8409 -0.2113  0.2868
 6640SOL    HW230850   3.041   9.478   4.510  0.1599  0.5708 -1.3847
 6641SOL     OW30851   4.851   5.367   1.625  0.0218 -0.1358 -0.8412
 6641SOL    HW130852   4.940   5.329   1.600 -0.5612 -1.6396 -0.6623
 6641SOL    HW230853   4.828   5.340   1.718 -0.5702  0.3654 -0.8374
 6642SOL     OW30854   2.280   3.882   6.572 -0.0543  0.2892 -0.2339
 6642SOL    HW130855   2.183   3.868   6.591  0.1342 -0.2864  0.3083
 6642SOL    HW230856   2.293   3.972   6.529 -0.7729  0.5337  0.0592
 6643SOL     OW30857   1.601   6.074   1.168  0.2138  1.1222  0.1666
 6643SOL    HW130858   1.535   6.079   1.244  0.7219 -0.8963  0.7586
 6643SOL    HW230859   1.604   5.981   1.133  3.1469  1.0567  0.5063
 6644SOL     OW30860   9.844   7.810   1.571 -0.5160 -0.0689 -0.1173
 6644SOL    HW130861   9.810   7.837   1.481  1.1716  0.6760 -0.5622
 6644SOL    HW230862   9.840   7.710   1.580 -0.3030 -0.1762 -1.1913
 6645SOL     OW30863   6.181   0.500   2.377  0.3678  0.1568  0.0380
 6645SOL    HW130864   6.145   0.568   2.440  1.0081  1.0757 -0.5791
 6645SOL    HW230865   6.119   0.421   2.373 -1.5601  1.6917 -0.9963
 6646SOL     OW30866   3.717   7.912   2.478 -0.3512  0.0713  0.3381
 6646SOL    HW130867   3.712   7.840   2.408 -1.7082 -0.7155  1.2206
 6646SOL    HW230868   3.761   7.876   2.560  1.0365  0.9297 -0.0215
 6647SOL     OW30869   3.251   9.019   0.942  0.7221 -0.3474  0.6208
 6647SOL    HW130870   3.345   9.005   0.974  1.9574  0.9571 -2.2476
 6647SOL    HW230871   3.212   8.932   0.914  0.9583 -0.9382  2.0964
 6648SOL     OW30872   3.770   3.231   2.863  0.2192  0.7264 -0.4344
 6648SOL    HW130873   3.758   3.295   2.787 -0.3650  1.8620  0.5973
 6648SOL    HW230874   3.825   3.275   2.935 -0.3414  0.1413  0.3625
 6649SOL     OW30875   1.909   7.291   0.087  0.2066 -0.3739 -0.1160
 6649SOL    HW130876   1.988   7.342   0.122  0.5989 -1.0482  0.0004
 6649SOL    HW230877   1.825   7.337   0.113  0.5600  0.2329 -0.0469
 6650SOL     OW30878   3.721   2.892   1.105  0.4764 -0.7786 -0.2861
 6650SOL    HW130879   3.801   2.856   1.152  0.9995 -1.8288 -1.9401
 6650SOL    HW230880   3.689   2.826   1.037 -3.2502 -1.4145  1.9395
 6651SOL     OW30881   0.323   3.570   2.605 -0.3521 -0.0361  0.2422
 6651SOL    HW130882   0.306   3.472   2.613 -2.0888  0.3370  1.4704
 6651SOL    HW230883   0.402   3.586   2.546 -0.0341 -2.1681  0.0679
 6652SOL     OW30884   2.674   4.720   5.330  0.4187 -0.0915  0.1630
 6652SOL    HW130885   2.722   4.772   5.401  0.4806 -2.6332  2.0242
 6652SOL    HW230886   2.736   4.653   5.290 -0.2431 -0.1256 -0.8408
 6653SOL     OW30887   8.474   4.547   3.246 -0.2206 -0.0081 -0.6954
 6653SOL    HW130888   8.498   4.532   3.150 -0.2725 -1.9804 -0.4341
 6653SOL    HW230889   8.382   4.513   3.263 -0.4896  1.0004 -0.1001
 6654SOL     OW30890   7.158   3.766   0.633 -0.0928  0.1208 -0.7313
 6654SOL    HW130891   7.154   3.854   0.585  2.1530  1.0030  0.6113
 6654SOL    HW230892   7.253   3.733   0.633 -0.3016 -0.5376  1.8699
 6655SOL     OW30893   8.888   4.440   4.103  0.1618  0.1827 -0.2345
 6655SOL    HW130894   8.841   4.520   4.139 -1.7106 -1.6049  1.4424
 6655SOL    HW230895   8.956   4.408   4.169  0.1817 -0.2011 -0.4323
 6656SOL     OW30896   7.714   0.809   0.160  0.2482 -0.1152 -0.0206
 6656SOL    HW130897   7.712   0.877   0.234 -1.4296 -0.7264  0.5345
 6656SOL    HW230898   7.754   0.724   0.194  1.2684  0.2247 -0.3755
 6657SOL     OW30899   9.565   9.130   2.996  0.6053 -0.3266 -0.2665
 6657SOL    HW130900   9.499   9.134   3.071  1.0490 -0.3293  0.1235
 6657SOL    HW230901   9.545   9.203   2.930  1.4482  0.9690  0.8819
 6658SOL     OW30902   7.896   1.120   0.481  0.6671 -0.1267  0.2067
 6658SOL    HW130903   7.919   1.036   0.431  3.5431  1.0513 -0.5847
 6658SOL    HW230904   7.971   1.143   0.543  0.6736  2.7036 -0.7820
 6659SOL     OW30905   9.128   3.049   4.087  0.1396  0.3730  0.0245
 6659SOL    HW130906   9.097   3.090   4.002 -3.0620 -0.2411  0.8373
 6659SOL    HW230907   9.082   3.093   4.164 -0.8841 -2.4695  1.1018
 6660SOL     OW30908   2.260   6.040   4.634 -0.0046 -0.1349 -0.0230
 6660SOL    HW130909   2.184   5.977   4.636 -1.0044  1.0898  1.6592
 6660SOL    HW230910   2.250   6.102   4.556 -0.2439 -0.5361 -0.3128
 6661SOL     OW30911   5.867   1.065   4.365  0.0936  0.4612 -0.4148
 6661SOL    HW130912   5.901   1.156   4.342 -0.7625  1.1010  0.8068
 6661SOL    HW230913   5.771   1.058   4.339 -0.4876  0.7082  1.6167
 6662SOL     OW30914   8.943   5.684   0.321 -0.0763  0.3026  0.1552
 6662SOL    HW130915   8.862   5.691   0.263  0.9042  1.8059 -1.0478
 6662SOL    HW230916   8.956   5.588   0.347 -2.1510  0.0132  0.2704
 6663SOL     OW30917   2.892   4.636   6.513 -0.8353 -0.2246  0.4153
 6663SOL    HW130918   2.889   4.595   6.604  1.0190  1.4894  1.2910
 6663SOL    HW230919   2.950   4.581   6.454  1.0703  0.6740  1.3887
 6664SOL     OW30920   0.547   8.544   5.335  0.0991  0.0492 -0.1166
 6664SOL    HW130921   0.576   8.577   5.246 -0.0505  0.1337 -0.1342
 6664SOL    HW230922   0.453   8.576   5.353 -0.2484 -0.8128 -0.3723
 6665SOL     OW30923   1.770   4.492   1.080 -0.3140 -0.2396  0.5412
 6665SOL    HW130924   1.702   4.557   1.114  0.2762  0.3397  0.6247
 6665SOL    HW230925   1.776   4.414   1.143 -2.4757 -1.3781 -0.6105
 6666SOL     OW30926   3.093   4.358   3.496  0.0086  0.2850  0.1458
 6666SOL    HW130927   3.092   4.454   3.468  0.1485  0.3622  0.4014
 6666SOL    HW230928   3.173   4.341   3.554 -0.0957  0.0516  0.2222
 6667SOL     OW30929   1.378   9.899   3.342 -0.0567 -0.0204 -0.0156
 6667SOL    HW130930   1.314   9.857   3.407  0.4317  0.3183  0.6957
 6667SOL    HW230931   1.384   9.997   3.360  2.0905 -0.3359  1.1680
 6668SOL     OW30932   7.181   1.927   0.863 -0.4092  0.5868 -0.4987
 6668SOL    HW130933   7.140   1.859   0.925  1.5971 -0.8180 -0.6481
 6668SOL    HW230934   7.223   2.000   0.917  1.0302 -0.4551 -0.1536
 6669SOL     OW30935   1.543   1.875   3.836  0.5985 -0.4033 -0.2966
 6669SOL    HW130936   1.639   1.903   3.841  0.4351  0.1958 -0.4277
 6669SOL    HW230937   1.534   1.779   3.862  0.9509  0.0963  1.7506
 6670SOL     OW30938   7.460   9.182   5.385 -0.1739 -0.2750 -0.5176
 6670SOL    HW130939   7.495   9.170   5.478  0.9002  1.6632 -0.6363
 6670SOL    HW230940   7.491   9.106   5.328 -1.2244 -1.7181  0.8041
 6671SOL     OW30941   9.625   9.926   3.744 -0.0530 -0.3639  0.4876
 6671SOL    HW130942   9.527   9.909   3.743 -0.3467  1.2604 -1.9266
 6671SOL    HW230943   9.674   9.840   3.758 -1.7831 -1.3187  0.7564
 6672SOL     OW30944   7.348   6.625   3.523  0.3457  0.7159 -0.3970
 6672SOL    HW130945   7.273   6.689   3.540 -1.7979 -2.1243  1.1760
 6672SOL    HW230946   7.394   6.603   3.609 -1.4279 -2.7559 -0.2498
 6673SOL     OW30947   9.443   9.068   4.440 -0.1763  0.3493  0.0625
 6673SOL    HW130948   9.382   8.995   4.410 -0.3592  0.7394 -0.5025
 6673SOL    HW230949   9.472   9.050   4.535  1.1867 -1.4052 -0.6492
 6674SOL     OW30950   1.382   4.119   2.655 -0.0786 -0.2487 -0.0379
 6674SOL    HW130951   1.453   4.147   2.719 -1.0247  1.2504  0.3621
 6674SOL    HW230952   1.332   4.041   2.693  1.1001 -1.0864 -0.1640
 6675SOL     OW30953   7.512   1.859   1.561 -0.3228  0.0324 -0.1280
 6675SOL    HW130954   7.508   1.911   1.476 -1.3677 -1.4391 -0.9806
 6675SOL    HW230955   7.469   1.770   1.549 -0.9342 -0.0107  2.0779
 6676SOL     OW30956   5.476   9.890   2.479  0.5609  0.3008  0.2289
 6676SOL    HW130957   5.490   9.900   2.381  1.0839 -1.3723  0.1217
 6676SOL    HW230958   5.528   9.961   2.527 -0.6868  1.9137 -0.7337
 6677SOL     OW30959   1.467   8.363   1.278  0.0762 -0.2770 -0.2690
 6677SOL    HW130960   1.390   8.305   1.305  0.1224 -0.5376 -0.6862
 6677SOL    HW230961   1.436   8.428   1.208 -0.1981  0.8099  0.8476
 6678SOL     OW30962   8.556   2.944   2.151  0.1459 -0.4112 -0.4337
 6678SOL    HW130963   8.651   2.929   2.126  0.1210 -0.2157 -0.6428
 6678SOL    HW230964   8.538   3.043   2.158  0.6987 -0.4601  2.3725
 6679SOL     OW30965   4.480   5.201   2.517 -1.2588  0.0966  0.0949
 6679SOL    HW130966   4.419   5.174   2.442 -1.9437  0.3604  0.5555
 6679SOL    HW230967   4.541   5.274   2.484 -0.8528 -0.5061 -0.5089
 6680SOL     OW30968   5.009   3.458   0.080  0.2102  0.5032 -0.0502
 6680SOL    HW130969   4.967   3.549   0.084 -0.7200  0.0121  3.2918
 6680SOL    HW230970   4.942   3.392   0.044  0.8072  1.0581 -2.2458
 6681SOL     OW30971   0.809   5.297   1.118 -0.1234 -0.9569  0.4996
 6681SOL    HW130972   0.719   5.314   1.158 -0.3837 -0.7562 -0.1516
 6681SOL    HW230973   0.798   5.244   1.034  0.4243 -1.5105  0.7744
 6682SOL     OW30974   8.706   6.664   2.779  0.6523  0.0286 -0.4469
 6682SOL    HW130975   8.739   6.617   2.861  0.0642  1.3197  0.5468
 6682SOL    HW230976   8.642   6.737   2.806  1.0192  0.9414 -2.0020
 6683SOL     OW30977   1.331   5.641   6.246  0.2511  0.1719 -0.3099
 6683SOL    HW130978   1.286   5.600   6.325 -0.9557  1.9695 -0.0320
 6683SOL    HW230979   1.315   5.584   6.166 -1.1310 -0.1003  0.1325
 6684SOL     OW30980   6.131   0.152   0.935  0.3072  0.0320  0.3277
 6684SOL    HW130981   6.195   0.086   0.975  2.2843  1.5002 -0.3383
 6684SOL    HW230982   6.145   0.242   0.977 -1.3309  0.3809  0.1607
 6685SOL     OW30983   2.325   4.359   4.766 -0.1162  0.0187  0.0818
 6685SOL    HW130984   2.281   4.430   4.820 -0.2644 -0.0213  0.0131
 6685SOL    HW230985   2.405   4.324   4.816 -0.1462  0.1099  0.1931
 6686SOL     OW30986   1.051   9.955   1.507  0.4992  0.3352 -0.0288
 6686SOL    HW130987   1.082   9.982   1.598 -0.9720  1.6438  0.1023
 6686SOL    HW230988   1.094  10.013   1.438  1.0401 -0.1666 -0.1186
 6687SOL     OW30989   2.659   1.964   2.464 -0.8120  0.1529  1.0542
 6687SOL    HW130990   2.652   1.886   2.402  0.3902  1.2398 -0.4987
 6687SOL    HW230991   2.643   1.934   2.558 -0.7124 -1.8839  0.4401
 6688SOL     OW30992   8.980   4.028   1.072  0.2667  0.1199 -0.0604
 6688SOL    HW130993   8.973   4.126   1.053  1.7798  0.2066 -0.1964
 6688SOL    HW230994   9.023   4.014   1.161 -0.6697 -0.4119  0.3162
 6689SOL     OW30995   2.145   7.267   3.000 -0.1228 -0.2154 -0.6510
 6689SOL    HW130996   2.107   7.193   3.055 -1.3519  0.7910 -0.1077
 6689SOL    HW230997   2.082   7.289   2.925  0.0168  0.5765 -0.5400
 6690SOL     OW30998   1.109   6.075   6.433 -0.0278 -0.3217  0.4938
 6690SOL    HW130999   1.167   6.140   6.385 -0.4046 -0.5004 -0.2040
 6690SOL    HW231000   1.165   5.998   6.464  0.1370 -0.4273 -0.0533
 6691SOL     OW31001   2.539   1.207   3.294  0.0297 -0.4845 -0.3149
 6691SOL    HW131002   2.613   1.184   3.357 -0.1549 -0.8607 -0.2320
 6691SOL    HW231003   2.454   1.164   3.326 -0.1623 -0.2999 -0.5715
 6692SOL     OW31004   1.344   9.897   2.668  0.0560 -0.0390  0.1991
 6692SOL    HW131005   1.403   9.967   2.628 -0.6109  0.4570  0.0762
 6692SOL    HW231006   1.336   9.913   2.766  1.3015 -0.9706  0.4645
 6693SOL     OW31007   9.546   0.581   1.302  0.1939  0.5194  0.5546
 6693SOL    HW131008   9.597   0.614   1.223 -0.7116  1.5714  0.4047
 6693SOL    HW231009   9.485   0.506   1.273 -0.3954  1.1375  0.1749
 6694SOL     OW31010   1.465   7.394   1.159 -0.3707 -0.2635 -0.3959
 6694SOL    HW131011   1.563   7.382   1.180 -0.7641  2.0026  3.1899
 6694SOL    HW231012   1.413   7.320   1.201 -0.4476  0.2115  0.3665
 6695SOL     OW31013   4.258   6.708   1.620  0.0939  0.5342 -0.4774
 6695SOL    HW131014   4.224   6.765   1.546  0.6156 -1.2342 -2.1201
 6695SOL    HW231015   4.325   6.643   1.584  0.4092 -0.3086  1.5556
 6696SOL     OW31016   5.693   8.853   4.732  0.6727  0.5635  0.1488
 6696SOL    HW131017   5.738   8.885   4.649  1.1468 -1.7625 -0.5300
 6696SOL    HW231018   5.624   8.919   4.760  2.3746  2.6937 -0.5470
 6697SOL     OW31019   4.024   1.965   1.285  0.4350  0.1642  0.5944
 6697SOL    HW131020   4.008   1.873   1.321 -1.8766 -0.0584 -0.8997
 6697SOL    HW231021   4.021   1.963   1.185  1.4142  1.6809  0.5193
 6698SOL     OW31022   9.685   7.290   2.079  0.6288 -0.2471 -0.2091
 6698SOL    HW131023   9.686   7.276   2.178  0.1998 -3.6100 -0.6045
 6698SOL    HW231024   9.590   7.288   2.046  0.6589  2.2895 -0.5515
 6699SOL     OW31025   5.986   8.742   2.142  0.1722  0.4059  0.1056
 6699SOL    HW131026   5.929   8.672   2.098  0.3338  0.7489 -0.6654
 6699SOL    HW231027   5.998   8.819   2.079 -0.7397  1.5232  1.2695
 6700SOL     OW31028   1.617   6.087   5.511  0.2957 -0.2651  0.2738
 6700SOL    HW131029   1.662   6.007   5.470  0.0987  0.0020 -0.4654
 6700SOL    HW231030   1.681   6.164   5.512 -0.1891  0.1635 -0.9342
 6701SOL     OW31031   6.140   0.945   5.497  0.0874  0.2340 -0.5030
 6701SOL    HW131032   6.228   0.931   5.542  0.2642  0.8091 -0.6669
 6701SOL    HW231033   6.116   1.042   5.500 -0.7096  0.0344 -0.1513
 6702SOL     OW31034   0.388   6.807   1.547 -0.3343 -0.2879 -0.0147
 6702SOL    HW131035   0.341   6.718   1.552  0.4181 -0.6957 -0.0362
 6702SOL    HW231036   0.356   6.865   1.622 -0.9683 -0.5114 -0.1054
 6703SOL     OW31037   8.199   5.228   0.120  0.8202  0.0386  0.7296
 6703SOL    HW131038   8.255   5.192   0.045  0.3989 -1.6509  1.2094
 6703SOL    HW231039   8.162   5.317   0.093  0.9017 -0.4155 -0.9741
 6704SOL     OW31040   1.437   6.447   3.433  0.1271  0.6522 -0.1060
 6704SOL    HW131041   1.382   6.530   3.427 -0.9965 -0.0284  0.6457
 6704SOL    HW231042   1.487   6.434   3.347  1.9038  3.1768  0.4871
 6705SOL     OW31043   4.878   5.135   1.927 -0.3263  0.0343 -0.1959
 6705SOL    HW131044   4.954   5.170   1.982 -1.1563  1.3360  0.1463
 6705SOL    HW231045   4.838   5.210   1.874 -2.2822 -0.3339  0.7235
 6706SOL     OW31046   6.242   0.391   3.173 -0.2112  0.4483  0.1087
 6706SOL    HW131047   6.316   0.398   3.239 -0.2696 -0.2442  0.2503
 6706SOL    HW231048   6.269   0.437   3.088  0.8869 -0.9091 -0.2913
 6707SOL     OW31049   6.663   8.782   2.104 -0.1135  0.1785  0.0430
 6707SOL    HW131050   6.666   8.836   2.020 -0.9739 -0.1603 -0.2104
 6707SOL    HW231051   6.691   8.688   2.084  0.2085  0.2305  0.2434
 6708SOL     OW31052   5.525   4.539   0.154  0.1012 -0.5841  0.3588
 6708SOL    HW131053   5.468   4.544   0.235  0.5397  0.7762  0.5925
 6708SOL    HW231054   5.618   4.512   0.179  0.5388  0.9826  0.4722
 6709SOL     OW31055   1.211   3.540   3.653 -0.4081 -0.2191 -0.0099
 6709SOL    HW131056   1.160   3.616   3.613  1.1318  1.0546  0.4010
 6709SOL    HW231057   1.216   3.551   3.752 -0.7741 -1.2476  0.1343
 6710SOL     OW31058   4.848   3.416   4.311  0.2848  0.0295  0.8408
 6710SOL    HW131059   4.904   3.496   4.288  0.4715  0.6751  3.3955
 6710SOL    HW231060   4.908   3.341   4.337  0.0957 -0.8382 -1.1874
 6711SOL     OW31061   2.079   3.536   3.446  0.4129 -0.0528 -0.0355
 6711SOL    HW131062   2.053   3.631   3.466  0.4338  0.0840 -0.6558
 6711SOL    HW231063   2.006   3.492   3.393  1.2780  0.2325 -1.5029
 6712SOL     OW31064   1.859   5.559   1.119 -0.2735  0.7805  0.3341
 6712SOL    HW131065   1.826   5.613   1.042  0.9234 -0.0227 -0.7777
 6712SOL    HW231066   1.935   5.608   1.163  0.8904 -0.0135 -0.7478
 6713SOL     OW31067   2.692   0.970   1.235  0.4271  0.4609  0.0430
 6713SOL    HW131068   2.652   1.056   1.203  1.3757  0.8343 -0.1647
 6713SOL    HW231069   2.790   0.983   1.253  0.7276 -0.7252 -0.6262
 6714SOL     OW31070   4.599   8.649   3.855  0.3855 -0.3751 -0.2432
 6714SOL    HW131071   4.679   8.666   3.797  0.5684 -0.7560 -0.1039
 6714SOL    HW231072   4.602   8.555   3.888 -0.6952 -0.7349 -1.1268
 6715SOL     OW31073   4.722   2.336   1.302  0.0497 -0.2658  0.0272
 6715SOL    HW131074   4.741   2.275   1.225  1.7670  0.5774 -0.2523
 6715SOL    HW231075   4.714   2.282   1.386  1.0517 -0.9309 -0.2964
 6716SOL     OW31076   0.218   2.449   4.597  0.4702 -1.2929 -0.2384
 6716SOL    HW131077   0.155   2.442   4.674  2.8839 -2.5293  1.7048
 6716SOL    HW231078   0.197   2.378   4.530  0.1631 -2.0943  0.6971
 6717SOL     OW31079   9.693   9.090   0.987 -0.3447 -0.0556  0.4098
 6717SOL    HW131080   9.766   9.075   0.920 -0.5248  1.5843 -0.1937
 6717SOL    HW231081   9.685   9.010   1.046  0.7686 -0.9654 -0.6273
 6718SOL     OW31082   1.926   2.647   2.135 -0.0621  0.7512  0.0507
 6718SOL    HW131083   1.894   2.725   2.189 -0.7307  0.4536  0.0878
 6718SOL    HW231084   2.008   2.609   2.178 -1.9767 -1.0159  2.2715
 6719SOL     OW31085   3.902   3.928   1.744  0.1702  0.1170 -0.0926
 6719SOL    HW131086   3.834   3.888   1.682  0.3314 -0.6029  0.1926
 6719SOL    HW231087   3.917   4.024   1.719  1.7129 -0.6792 -2.4677
 6720SOL     OW31088   7.113   9.469   2.611  0.0675 -0.0094 -0.4313
 6720SOL    HW131089   7.165   9.391   2.645 -1.4251 -0.6962  0.3122
 6720SOL    HW231090   7.023   9.439   2.580  0.4304  1.0167 -2.6066
 6721SOL     OW31091   5.607   1.553   0.716  0.9442 -0.2127 -0.3538
 6721SOL    HW131092   5.516   1.566   0.677  0.4611  1.7117  1.3127
 6721SOL    HW231093   5.600   1.503   0.802  1.2034  1.5940  0.7624
 6722SOL     OW31094   8.174   6.553   4.576 -0.3611 -0.2472  0.2679
 6722SOL    HW131095   8.132   6.567   4.486  0.4319 -0.7886 -0.1912
 6722SOL    HW231096   8.103   6.558   4.647 -0.7829  1.6036 -0.2585
 6723SOL     OW31097   1.361   6.729   3.494 -0.0232 -0.3034  0.8600
 6723SOL    HW131098   1.334   6.695   3.404 -0.6730  0.3512  0.8115
 6723SOL    HW231099   1.406   6.818   3.484 -0.4671 -0.0398  1.2254
 6724SOL     OW31100   4.286   7.646   4.754 -0.7344 -0.1969  0.7063
 6724SOL    HW131101   4.326   7.568   4.802  0.4836 -0.9347 -1.4715
 6724SOL    HW231102   4.193   7.625   4.726 -0.4801 -0.7892  0.3091
 6725SOL     OW31103   5.771   1.510   1.231  0.0860  0.2703 -0.4798
 6725SOL    HW131104   5.838   1.498   1.158  0.3256 -0.3020 -0.1680
 6725SOL    HW231105   5.810   1.567   1.303  1.0351 -1.8519  0.7144
 6726SOL     OW31106   6.755   9.888   4.280 -0.3489  0.7980 -0.4268
 6726SOL    HW131107   6.678   9.841   4.323 -0.2905  1.0167 -0.0783
 6726SOL    HW231108   6.838   9.872   4.333 -0.2878  1.1174 -0.4228
 6727SOL     OW31109   5.521   0.589   1.474  0.5530 -0.2974 -0.2012
 6727SOL    HW131110   5.542   0.535   1.393 -0.2023 -0.7308 -0.1144
 6727SOL    HW231111   5.487   0.679   1.447 -0.7510 -0.8335 -0.3930
 6728SOL     OW31112   3.147   2.361   1.689  0.2882 -0.5023 -0.2090
 6728SOL    HW131113   3.185   2.305   1.615  0.3411 -0.2773 -0.3551
 6728SOL    HW231114   3.180   2.455   1.678 -0.1789 -0.3441 -0.2370
 6729SOL     OW31115   5.888   1.520   0.939  0.0605 -0.2469 -0.1649
 6729SOL    HW131116   5.962   1.563   0.990 -0.5024  0.2777  0.2286
 6729SOL    HW231117   5.920   1.494   0.848  0.3371  1.3197 -0.5376
 6730SOL     OW31118   3.340   2.336   3.512 -0.8087 -0.0706 -0.0927
 6730SOL    HW131119   3.286   2.288   3.443 -1.2980 -0.6279  0.6706
 6730SOL    HW231120   3.355   2.276   3.591 -0.8120  0.7850  0.5688
 6731SOL     OW31121   3.445   1.223   2.360 -0.5112  0.0359 -0.1700
 6731SOL    HW131122   3.395   1.143   2.327 -1.2623 -0.3034  1.7244
 6731SOL    HW231123   3.544   1.207   2.349 -0.6960 -0.6362 -0.9145
 6732SOL     OW31124   8.279   9.311   3.851 -0.3846  0.1843  0.4097
 6732SOL    HW131125   8.206   9.337   3.914 -1.2830 -2.1775  0.3852
 6732SOL    HW231126   8.243   9.249   3.782  1.1394  0.8514 -1.0123
 6733SOL     OW31127   1.108   0.556   1.462 -0.2927  0.0626  0.2129
 6733SOL    HW131128   1.016   0.536   1.495 -0.2388 -0.4022  0.0948
 6733SOL    HW231129   1.130   0.652   1.478 -0.6317  0.0677  0.6487
 6734SOL     OW31130   8.674   2.828   2.573 -0.5159 -0.3974  0.1712
 6734SOL    HW131131   8.715   2.913   2.605  0.0863 -0.1223 -1.2755
 6734SOL    HW231132   8.695   2.754   2.637  0.0571  0.2813  0.7680
 6735SOL     OW31133   4.020   0.157   3.185 -0.4274 -0.5156 -0.1492
 6735SOL    HW131134   3.970   0.218   3.124 -0.9924 -2.0905 -1.3154
 6735SOL    HW231135   4.100   0.204   3.222 -0.3228  0.6176 -1.7640
 6736SOL     OW31136   0.600   4.766   3.825 -0.1381  0.2693  0.5094
 6736SOL    HW131137   0.655   4.704   3.769 -0.1004 -0.9578  1.8748
 6736SOL    HW231138   0.653   4.795   3.904 -0.7639  0.6597  0.7880
 6737SOL     OW31139   0.780   5.149   3.352 -0.1257  0.3482 -0.0008
 6737SOL    HW131140   0.827   5.123   3.436 -0.6492 -0.8142 -0.0565
 6737SOL    HW231141   0.840   5.132   3.274 -0.1635  0.0648  0.0304
 6738SOL     OW31142   6.057   0.388   1.646 -0.4817 -0.1709  0.3885
 6738SOL    HW131143   6.131   0.345   1.594 -0.7291 -2.2270  1.6770
 6738SOL    HW231144   6.095   0.437   1.724 -0.4447 -1.0541  0.9323
 6739SOL     OW31145   1.012   7.041   4.327 -0.2989  0.3317  0.1259
 6739SOL    HW131146   0.948   7.118   4.326  0.9733  1.4165  0.3770
 6739SOL    HW231147   1.106   7.076   4.322  0.3490 -1.1503  1.5455
 6740SOL     OW31148   3.595   1.741   1.312 -1.1313  0.0855  0.2380
 6740SOL    HW131149   3.592   1.828   1.263  1.1827 -0.4357 -0.9299
 6740SOL    HW231150   3.671   1.741   1.377 -1.4366 -0.8624  0.6072
 6741SOL     OW31151   8.574   0.952   4.973 -0.8117 -0.0212  0.0572
 6741SOL    HW131152   8.660   0.901   4.984 -0.2012  0.7959 -0.8306
 6741SOL    HW231153   8.503   0.909   5.029  0.5067  0.1080  1.8875
 6742SOL     OW31154   6.769   9.339   5.062 -0.0863  0.2257  0.2835
 6742SOL    HW131155   6.731   9.432   5.058  1.1868  0.8324  1.5840
 6742SOL    HW231156   6.837   9.328   4.989 -0.5908  0.1532 -0.1743
 6743SOL     OW31157   9.553   4.178   5.189 -0.2555 -0.3130 -0.2193
 6743SOL    HW131158   9.466   4.143   5.153  0.6233 -2.4012 -0.3742
 6743SOL    HW231159   9.538   4.215   5.281 -1.7562  1.5466 -1.1576
 6744SOL     OW31160   1.732   5.642   4.061 -0.2514 -0.1614  0.0679
 6744SOL    HW131161   1.753   5.739   4.044  1.7511 -0.9118 -2.1547
 6744SOL    HW231162   1.639   5.622   4.030 -0.4780  0.9330  0.0206
 6745SOL     OW31163   1.750   0.707   3.304 -0.4326  0.5515  0.1816
 6745SOL    HW131164   1.679   0.692   3.372 -1.4673 -1.3804 -1.2659
 6745SOL    HW231165   1.767   0.622   3.254  3.3299  0.7915  0.8712
 6746SOL     OW31166   3.025   2.366   1.049  0.6915 -0.4873 -0.2158
 6746SOL    HW131167   3.018   2.462   1.020  1.7607  0.1915  1.6761
 6746SOL    HW231168   2.940   2.338   1.094  0.5905 -0.2555 -0.2617
 6747SOL     OW31169   0.297   0.520   2.246  0.0743 -0.2050  0.0528
 6747SOL    HW131170   0.311   0.588   2.175  1.0801 -1.3119 -0.8378
 6747SOL    HW231171   0.368   0.529   2.316 -0.2052  0.0975  0.3031
 6748SOL     OW31172   1.061   4.193   0.259  0.5688 -0.4007  0.0845
 6748SOL    HW131173   0.990   4.127   0.235 -0.1375  0.4988 -0.3308
 6748SOL    HW231174   1.033   4.244   0.340  0.0230  1.0246 -0.9820
 6749SOL     OW31175   8.078   5.448   0.442  0.1770 -0.3228  0.2406
 6749SOL    HW131176   8.162   5.501   0.431  0.4974 -0.7897  0.4683
 6749SOL    HW231177   8.100   5.354   0.466 -0.4384 -0.2276  1.2031
 6750SOL     OW31178   1.405   7.674   6.375  0.2291 -0.0152 -0.0785
 6750SOL    HW131179   1.318   7.696   6.331  0.9545  0.8983 -1.0741
 6750SOL    HW231180   1.398   7.690   6.473 -0.2235  1.7026 -0.3783
 6751SOL     OW31181   8.425   8.188   1.876 -0.5876  0.2038 -0.1205
 6751SOL    HW131182   8.384   8.215   1.789 -0.4721  1.7541  0.2901
 6751SOL    HW231183   8.392   8.097   1.902  0.7301 -1.0222 -2.6352
 6752SOL     OW31184   8.154   9.859   5.754  0.1340 -0.3735  0.5397
 6752SOL    HW131185   8.221   9.827   5.821 -1.0364 -0.9938  1.4327
 6752SOL    HW231186   8.090   9.785   5.732 -0.0639  0.1059 -0.5649
 6753SOL     OW31187   8.730   9.863   4.843 -0.1324 -0.8796 -0.3612
 6753SOL    HW131188   8.685   9.798   4.781  1.0473 -0.3350 -1.8140
 6753SOL    HW231189   8.823   9.831   4.863 -0.8137 -1.5453  1.9283
 6754SOL     OW31190   1.620   7.753   5.266 -0.4514  0.2010 -0.3142
 6754SOL    HW131191   1.718   7.765   5.283 -0.3070 -1.4467  0.1663
 6754SOL    HW231192   1.569   7.769   5.350 -0.4287 -0.6402 -0.1368
 6755SOL     OW31193   7.712   2.462   1.064 -0.2527  0.0591 -0.3313
 6755SOL    HW131194   7.761   2.442   1.149 -0.9823  0.8864  0.2952
 6755SOL    HW231195   7.640   2.529   1.082 -0.1675  0.5320 -1.6850
 6756SOL     OW31196   6.024   1.537   4.997  0.2974 -0.2684  0.0648
 6756SOL    HW131197   5.976   1.557   4.911  0.2753  0.7619  0.3017
 6756SOL    HW231198   5.963   1.559   5.074  0.2958 -1.2426  0.3402
 6757SOL     OW31199   8.686   1.204   1.863  0.3150 -0.5115 -0.0284
 6757SOL    HW131200   8.711   1.108   1.859  0.3688 -0.4617 -0.9404
 6757SOL    HW231201   8.593   1.216   1.827 -0.7016 -0.5685  2.4729
 6758SOL     OW31202   1.988   7.058   3.110  0.7300 -0.6710 -0.2718
 6758SOL    HW131203   1.930   7.041   3.031  2.6896 -0.7259 -1.7209
 6758SOL    HW231204   2.043   6.977   3.130  0.7942 -0.4021  0.7108
 6759SOL     OW31205   1.523   4.193   5.420  0.1680  0.2700  0.3738
 6759SOL    HW131206   1.604   4.143   5.388  0.1778 -0.2140  1.1423
 6759SOL    HW231207   1.529   4.206   5.519 -1.0828 -0.4672  0.5467
 6760SOL     OW31208   7.948   3.058   4.031  0.1976  0.6970 -0.5877
 6760SOL    HW131209   8.003   3.088   4.109  0.0965  0.8487 -0.5734
 6760SOL    HW231210   7.980   2.968   4.000 -0.9867 -0.2558  0.8509
 6761SOL     OW31211   9.903   4.518   6.710  0.3119  0.4289 -0.4286
 6761SOL    HW131212   9.953   4.585   6.765  0.0118 -0.6524  1.1932
 6761SOL    HW231213   9.966   4.446   6.681  0.0806  0.0109  0.0995
 6762SOL     OW31214   2.425   1.866   4.843 -0.2169  0.1748  0.3219
 6762SOL    HW131215   2.479   1.810   4.906  1.7089  1.6752  0.0483
 6762SOL    HW231216   2.328   1.846   4.855  0.3541 -2.3059  1.0974
 6763SOL     OW31217   1.393   1.124   3.707  0.1433 -0.1930 -0.2765
 6763SOL    HW131218   1.355   1.216   3.708 -2.0260 -1.0268  3.2432
 6763SOL    HW231219   1.334   1.064   3.653  0.8434  0.1587 -1.4590
 6764SOL     OW31220   9.944   2.857   2.216 -0.1880  0.7204 -0.2283
 6764SOL    HW131221   9.980   2.783   2.273  0.2898 -0.5449 -2.1311
 6764SOL    HW231222  10.004   2.870   2.137 -1.9480  1.0292 -1.5340
 6765SOL     OW31223   8.117   1.947   1.216  0.2118 -0.5054  0.3601
 6765SOL    HW131224   8.129   2.046   1.219  0.3557 -0.5534  1.5660
 6765SOL    HW231225   8.207   1.903   1.208  0.0928 -0.5166 -0.9534
 6766SOL     OW31226   0.163   4.719   6.741 -0.2402 -0.5179 -0.0195
 6766SOL    HW131227   0.164   4.688   6.646 -0.4878 -2.1522  0.4921
 6766SOL    HW231228   0.131   4.814   6.745 -1.7886 -0.9624 -1.4194
 6767SOL     OW31229   1.770   6.387   2.598  0.2146  0.5875 -0.5207
 6767SOL    HW131230   1.847   6.395   2.661 -0.5770 -0.7737  0.6318
 6767SOL    HW231231   1.788   6.443   2.517  1.2191  2.3811  0.9039
 6768SOL     OW31232   5.765   0.154   3.446 -0.0502 -0.0706 -0.2404
 6768SOL    HW131233   5.807   0.162   3.356 -0.8642  0.5513 -0.5702
 6768SOL    HW231234   5.715   0.068   3.452  1.2019 -0.7915  0.1358
 6769SOL     OW31235   3.645   5.554   2.917 -0.6483 -0.0490 -0.6026
 6769SOL    HW131236   3.583   5.591   2.848 -1.8857 -1.0158 -0.0285
 6769SOL    HW231237   3.701   5.628   2.954 -3.2936  1.3835  0.7522
 6770SOL     OW31238   3.682   0.902   4.630  0.3463 -0.0427  0.0996
 6770SOL    HW131239   3.676   1.001   4.631 -1.1470 -0.0910 -1.7744
 6770SOL    HW231240   3.603   0.864   4.582  1.8333 -2.0469 -0.8543
 6771SOL     OW31241   1.184   7.656   3.996 -0.2316 -0.5395  0.1485
 6771SOL    HW131242   1.247   7.733   3.998 -0.5256 -0.2976 -0.0172
 6771SOL    HW231243   1.121   7.662   4.074 -1.1967  0.1690 -0.6876
 6772SOL     OW31244   7.841   9.801   4.821 -0.1151 -0.1066 -0.2163
 6772SOL    HW131245   7.745   9.829   4.811 -0.7606 -1.2850  2.2817
 6772SOL    HW231246   7.888   9.813   4.734 -2.1507  1.9152 -1.0984
 6773SOL     OW31247   3.081   6.457   2.550 -0.2804 -0.0783 -0.2201
 6773SOL    HW131248   3.056   6.527   2.483 -0.1015  0.7117  0.5304
 6773SOL    HW231249   3.173   6.424   2.531  0.0176  0.6094  0.0291
 6774SOL     OW31250   9.951   5.812   5.861 -0.2237 -0.0359 -0.4105
 6774SOL    HW131251  10.022   5.788   5.927 -0.1013 -0.2393 -0.6153
 6774SOL    HW231252   9.985   5.884   5.800 -0.0282 -0.4526 -0.7985
 6775SOL     OW31253   2.695   2.102   1.762  0.6199 -0.2518 -0.0852
 6775SOL    HW131254   2.718   2.034   1.833 -0.9791 -0.7910 -0.0778
 6775SOL    HW231255   2.763   2.175   1.764  0.6904 -0.3300  1.9222
 6776SOL     OW31256   9.875   4.931   5.268  0.3009 -0.0391 -0.3579
 6776SOL    HW131257   9.924   4.850   5.237  0.8607 -0.0571  0.5540
 6776SOL    HW231258   9.892   4.945   5.366  0.2870  1.2304 -0.5248
 6777SOL     OW31259   0.143   4.638   5.381 -0.6322 -0.3457 -0.3555
 6777SOL    HW131260   0.230   4.627   5.430  0.0022 -3.0855 -1.9742
 6777SOL    HW231261   0.151   4.710   5.313 -0.2684  0.7500  0.8279
 6778SOL     OW31262   2.071   3.757   1.483  0.0579  0.2471 -0.6971
 6778SOL    HW131263   2.000   3.819   1.449 -1.3932 -1.1637 -0.3152
 6778SOL    HW231264   2.067   3.753   1.583 -0.3320 -0.9864 -0.7510
 6779SOL     OW31265   7.574   9.827   4.761  0.6508 -0.3922  0.3502
 6779SOL    HW131266   7.567   9.829   4.861 -0.1106  0.9408  0.2775
 6779SOL    HW231267   7.532   9.909   4.723 -0.7565 -1.7658 -1.1634
 6780SOL     OW31268   8.888   4.434   3.833  0.3459  0.0103  0.5562
 6780SOL    HW131269   8.914   4.462   3.925 -0.3570 -0.3764  0.8771
 6780SOL    HW231270   8.791   4.453   3.819  0.2342 -0.8181  0.2248
 6781SOL     OW31271   9.852   8.908   1.520  0.2220 -0.2060 -0.3354
 6781SOL    HW131272   9.922   8.946   1.581 -0.1347  1.7461 -1.1136
 6781SOL    HW231273   9.897   8.862   1.443  0.6581 -1.3157  0.5716
 6782SOL     OW31274   7.473   7.930   3.843 -0.0677  0.1389  0.2384
 6782SOL    HW131275   7.472   7.955   3.940  0.1839  2.5665 -0.3627
 6782SOL    HW231276   7.555   7.877   3.823 -0.4680 -0.9750  1.4880
 6783SOL     OW31277   1.762   1.684   3.818 -0.1862 -0.2196  0.1700
 6783SOL    HW131278   1.704   1.615   3.776  0.0320  0.9343 -2.1432
 6783SOL    HW231279   1.841   1.702   3.759  0.5451  0.9164  1.4510
 6784SOL     OW31280   2.442   5.790   5.853  1.2899  0.2031 -0.0982
 6784SOL    HW131281   2.424   5.803   5.951 -1.5814 -0.9347 -0.4185
 6784SOL    HW231282   2.492   5.704   5.839 -0.6175 -0.9933  0.2109
 6785SOL     OW31283   9.575   7.366   4.159 -0.1130 -0.2345 -0.3320
 6785SOL    HW131284   9.493   7.411   4.194  0.1109  0.4020 -0.6346
 6785SOL    HW231285   9.623   7.322   4.235 -0.1203  0.3568  0.0157
 6786SOL     OW31286   4.449   1.246   3.666  0.3923 -0.3393 -0.0158
 6786SOL    HW131287   4.445   1.225   3.763 -1.0717  3.2869  0.7871
 6786SOL    HW231288   4.481   1.340   3.653 -0.9681 -0.2059 -2.9217
 6787SOL     OW31289   9.091   9.432   4.127 -0.5888 -0.1554  0.1532
 6787SOL    HW131290   9.144   9.476   4.055  0.4488 -0.8482  0.4895
 6787SOL    HW231291   9.113   9.334   4.130 -1.9285 -0.4571  0.2557
 6788SOL     OW31292   3.998   6.109   0.383  0.2425  0.1530  0.0318
 6788SOL    HW131293   4.060   6.031   0.367 -1.1976 -0.8463 -0.7928
 6788SOL    HW231294   3.906   6.085   0.353 -0.8557  1.1389  2.4738
 6789SOL     OW31295   8.926   1.904   1.782 -0.3330 -0.6745  0.3987
 6789SOL    HW131296   8.994   1.835   1.803 -1.0843 -0.9894  1.8985
 6789SOL    HW231297   8.842   1.885   1.833 -1.1082  0.4126 -0.4365
 6790SOL     OW31298   8.585   8.745   0.794  0.4819 -0.4218  0.2035
 6790SOL    HW131299   8.666   8.712   0.746 -0.3718 -2.3152  0.0268
 6790SOL    HW231300   8.587   8.713   0.888  0.8068  1.0383  0.7173
 6791SOL     OW31301   9.587   8.775   0.900 -0.0803  0.4215  0.5429
 6791SOL    HW131302   9.521   8.748   0.829 -0.2598 -0.4869  1.0505
 6791SOL    HW231303   9.538   8.818   0.976 -0.1305 -0.4864  1.0349
 6792SOL     OW31304   2.146   7.152   2.000  0.3759 -0.2582 -0.1155
 6792SOL    HW131305   2.136   7.111   1.909 -1.5666 -0.4558  0.1657
 6792SOL    HW231306   2.180   7.082   2.063 -0.6203 -0.8210 -0.1736
 6793SOL     OW31307   9.527   9.823   4.336 -0.0656  0.2291 -0.4222
 6793SOL    HW131308   9.613   9.825   4.284  1.7381  1.4345  2.5185
 6793SOL    HW231309   9.467   9.895   4.302  0.7847  0.5180 -1.3418
 6794SOL     OW31310   5.078   8.353   4.006 -0.2965  0.1843 -0.2836
 6794SOL    HW131311   5.086   8.357   3.907  0.2268 -1.5741 -0.3297
 6794SOL    HW231312   5.004   8.414   4.037 -0.9411  0.1759 -1.7961
 6795SOL     OW31313   2.912   6.189   0.403  0.1338  0.6028  0.5521
 6795SOL    HW131314   2.886   6.275   0.358 -0.5364 -0.1326 -0.4836
 6795SOL    HW231315   2.872   6.187   0.494 -2.1920  0.1839 -0.4418
 6796SOL     OW31316   0.983   0.458   3.976 -0.1852 -0.2478 -0.0342
 6796SOL    HW131317   0.996   0.522   4.052 -1.2623 -1.1565  0.9232
 6796SOL    HW231318   0.898   0.481   3.928  0.5116  0.3461 -1.0015
 6797SOL     OW31319   8.980   4.643   4.850  0.1145  0.0129 -0.2724
 6797SOL    HW131320   8.940   4.638   4.942  1.5235  0.2770  0.3856
 6797SOL    HW231321   9.017   4.553   4.826 -0.9105 -0.2421 -0.8916
 6798SOL     OW31322   1.349   8.080   5.347  0.3133  0.0146 -0.3027
 6798SOL    HW131323   1.335   8.140   5.426  0.6728  1.3148 -1.2191
 6798SOL    HW231324   1.391   8.131   5.273 -3.4110 -0.2650 -2.6801
 6799SOL     OW31325   6.588   3.786   0.416  0.2159 -0.6102  0.1053
 6799SOL    HW131326   6.564   3.703   0.365 -1.2548 -0.9041  1.2286
 6799SOL    HW231327   6.516   3.855   0.402  0.9499  0.1257 -0.0551
 6800SOL     OW31328   0.624   5.409   4.837 -0.9286  0.2395  0.4143
 6800SOL    HW131329   0.580   5.488   4.880 -0.6789  0.3728  0.4273
 6800SOL    HW231330   0.697   5.375   4.897 -3.4543 -2.3229  2.1674
 6801SOL     OW31331   0.208   4.419   6.437  0.4574  0.1487  0.9142
 6801SOL    HW131332   0.174   4.367   6.516 -2.4852  1.2081  0.3894
 6801SOL    HW231333   0.137   4.424   6.367  1.8355  2.1542 -0.3758
 6802SOL     OW31334   0.076   6.280   0.793  0.5913 -0.1799 -0.5722
 6802SOL    HW131335   0.095   6.303   0.698  0.0485 -0.1460 -0.6747
 6802SOL    HW231336  -0.005   6.221   0.798  0.0683  0.5749 -0.0617
 6803SOL     OW31337   9.647   8.651   0.468  0.1434  0.3681  0.0657
 6803SOL    HW131338   9.596   8.721   0.518  0.3010 -0.1713  0.9861
 6803SOL    HW231339   9.741   8.683   0.452  0.4620  0.0143  1.2311
 6804SOL     OW31340   0.039   5.524   6.236  0.1178  0.5436  0.0675
 6804SOL    HW131341   0.001   5.616   6.228  1.3687  1.0315 -0.4514
 6804SOL    HW231342  -0.018   5.459   6.186 -0.8620  1.0069  0.5774
 6805SOL     OW31343   2.391   7.676   0.410  0.0954  0.3820  0.8915
 6805SOL    HW131344   2.489   7.697   0.402 -0.1140  1.0870  0.0875
 6805SOL    HW231345   2.377   7.578   0.398  0.4663  0.5881 -1.5064
 6806SOL     OW31346   4.667   2.313   4.353  0.1952  0.2378  0.0700
 6806SOL    HW131347   4.713   2.399   4.332 -0.0825  0.1007 -1.1600
 6806SOL    HW231348   4.617   2.322   4.439 -0.6074  1.6136 -0.5225
 6807SOL     OW31349   3.522   3.297   0.918 -0.3350  0.8803  0.4207
 6807SOL    HW131350   3.545   3.352   0.999  1.0104  1.2057 -0.1686
 6807SOL    HW231351   3.574   3.331   0.840 -1.4505  0.4096 -0.5322
 6808SOL     OW31352   4.611   5.736   0.305  0.4825 -0.3940 -0.6525
 6808SOL    HW131353   4.514   5.762   0.304  0.6731  0.6399  1.9484
 6808SOL    HW231354   4.622   5.651   0.357  0.7617 -1.6040 -2.6540
 6809SOL     OW31355   3.148   8.309   3.751 -0.5332 -0.2120 -1.2884
 6809SOL    HW131356   3.197   8.334   3.667 -0.9754  0.1001 -1.4551
 6809SOL    HW231357   3.213   8.301   3.826 -0.1892 -0.0523 -1.5686
 6810SOL     OW31358   9.052   6.859   5.336 -0.0863 -0.0666  0.3805
 6810SOL    HW131359   9.049   6.929   5.408  2.6001 -0.1510  0.6039
 6810SOL    HW231360   9.033   6.902   5.247 -2.1487  0.2558  0.9477
 6811SOL     OW31361   3.339   5.137   3.198  0.4749  0.1663  0.7042
 6811SOL    HW131362   3.352   5.046   3.237 -3.7041 -0.8459 -0.0491
 6811SOL    HW231363   3.276   5.190   3.255  0.9753  1.7184 -0.1486
 6812SOL     OW31364   1.160   7.011   5.076  0.2884  0.1908 -0.5943
 6812SOL    HW131365   1.139   7.106   5.050 -0.8923  0.1540  0.1550
 6812SOL    HW231366   1.121   6.949   5.008 -2.0940  0.1250  0.7740
 6813SOL     OW31367   4.328   9.464   3.496  0.0450  0.0363 -0.7376
 6813SOL    HW131368   4.252   9.495   3.554 -0.1550  0.3289 -1.1501
 6813SOL    HW231369   4.359   9.540   3.438  0.5354 -0.1310 -0.6983
 6814SOL     OW31370   6.073   1.678   1.047 -0.2045  0.4288 -0.3903
 6814SOL    HW131371   6.171   1.673   1.066 -0.2009  1.0054 -0.2658
 6814SOL    HW231372   6.025   1.712   1.128 -0.4716  0.4406 -0.5546
 6815SOL     OW31373   3.630   8.911   1.387 -0.2373  0.3875  0.3069
 6815SOL    HW131374   3.689   8.959   1.321 -0.2447  1.0197  0.7567
 6815SOL    HW231375   3.572   8.977   1.433 -0.0135 -0.0165  1.1683
 6816SOL     OW31376   8.224   3.272   1.447 -0.3341  0.8555 -0.0732
 6816SOL    HW131377   8.144   3.296   1.391 -0.4088  1.6762  0.3710
 6816SOL    HW231378   8.195   3.259   1.542 -0.2967 -1.0890 -0.3116
 6817SOL     OW31379   8.774   1.338   3.340 -0.1608  0.5601  0.4361
 6817SOL    HW131380   8.801   1.290   3.257  1.2714  0.3412  1.0080
 6817SOL    HW231381   8.798   1.435   3.333  0.0065  0.5322  0.6119
 6818SOL     OW31382   9.991   9.831   2.544  0.1901  0.0146  0.2271
 6818SOL    HW131383   9.919   9.860   2.480 -0.4673  0.4160  1.1257
 6818SOL    HW231384  10.013   9.735   2.528 -0.2829 -0.0092 -0.3080
 6819SOL     OW31385   8.046   1.706   4.982  0.2001 -0.4999  0.5524
 6819SOL    HW131386   8.051   1.684   4.885  0.0669  1.6094  0.0419
 6819SOL    HW231387   8.096   1.638   5.035  2.8756 -0.0112 -1.2567
 6820SOL     OW31388   9.593   2.842   3.535  0.1432  0.2818  0.8247
 6820SOL    HW131389   9.673   2.863   3.480 -0.5095  1.5248  0.3319
 6820SOL    HW231390   9.584   2.743   3.545  0.0841  0.0268 -1.5753
 6821SOL     OW31391   6.396   0.635   3.914  0.1891  0.3268  0.0098
 6821SOL    HW131392   6.323   0.584   3.870 -0.5591  0.5024  1.0346
 6821SOL    HW231393   6.362   0.677   3.998  1.0256  1.7957 -0.3641
 6822SOL     OW31394   3.202   4.810   3.168  0.4943 -0.0650  0.3112
 6822SOL    HW131395   3.191   4.741   3.239 -1.0981 -0.0806  0.0591
 6822SOL    HW231396   3.156   4.894   3.196  1.6444  0.6216  0.2119
 6823SOL     OW31397   3.780   1.718   3.159  0.5977  0.2632 -0.3598
 6823SOL    HW131398   3.751   1.623   3.145  0.2508  0.1508  1.0334
 6823SOL    HW231399   3.717   1.762   3.224  1.6555  0.9935  0.1750
 6824SOL     OW31400   3.517   1.494   1.956 -0.0051 -0.3738 -0.0188
 6824SOL    HW131401   3.433   1.466   2.002  0.8415 -0.2785  1.6388
 6824SOL    HW231402   3.556   1.415   1.908 -0.3306 -0.7535  0.3393
 6825SOL     OW31403   0.701   7.503   4.955 -0.0692  0.1444 -0.2114
 6825SOL    HW131404   0.725   7.407   4.975  1.3880  0.1078 -1.9720
 6825SOL    HW231405   0.758   7.563   5.011 -0.2835 -0.0027  0.1682
 6826SOL     OW31406   6.792   8.139   3.711  0.2787 -0.0446  0.2606
 6826SOL    HW131407   6.875   8.151   3.765  0.0021 -1.2578  0.9682
 6826SOL    HW231408   6.756   8.047   3.725 -0.5605  0.0887 -0.9271
 6827SOL     OW31409   9.918   2.513   1.358 -0.3081 -0.5750  0.2341
 6827SOL    HW131410   9.861   2.440   1.319 -1.6575  0.1204  0.8934
 6827SOL    HW231411   9.977   2.551   1.286 -0.6258 -1.3400 -0.4413
 6828SOL     OW31412   9.097   4.878   4.203 -0.1087  0.4559 -0.0515
 6828SOL    HW131413   9.192   4.902   4.226 -0.2133  1.2876 -0.4671
 6828SOL    HW231414   9.052   4.957   4.163 -0.2914 -0.6307 -2.0369
 6829SOL     OW31415   1.919   6.081   0.074  0.3851 -0.4612  0.1287
 6829SOL    HW131416   1.916   6.016   0.150  2.0615 -0.4623  0.2043
 6829SOL    HW231417   1.908   6.174   0.109 -2.2760 -0.6747 -0.0053
 6830SOL     OW31418   4.219   3.919   2.836  0.1172 -0.7070  0.2975
 6830SOL    HW131419   4.213   3.846   2.905  0.9271  0.0230  1.1556
 6830SOL    HW231420   4.307   3.966   2.845 -1.4709  2.1322  1.5508
 6831SOL     OW31421   3.493   1.831   3.031 -0.3946 -0.4268 -0.4740
 6831SOL    HW131422   3.501   1.831   3.131  1.2173 -1.6366 -0.5854
 6831SOL    HW231423   3.489   1.925   2.998 -0.8374 -0.0190  0.7220
 6832SOL     OW31424   8.327   5.683   2.592 -0.0305  0.3214  0.1772
 6832SOL    HW131425   8.270   5.617   2.544  0.2698 -0.2089  0.5482
 6832SOL    HW231426   8.392   5.635   2.651  1.2243  0.8928 -0.7027
 6833SOL     OW31427   7.645   8.298   4.570 -0.1881 -0.0922  0.6179
 6833SOL    HW131428   7.625   8.346   4.655 -1.4953  0.6217 -0.0667
 6833SOL    HW231429   7.577   8.225   4.556  0.1991 -0.4001  0.3342
 6834SOL     OW31430   9.456   4.969   5.692 -0.1017 -0.2673 -0.1148
 6834SOL    HW131431   9.460   5.068   5.680 -1.3720  0.1619  2.6629
 6834SOL    HW231432   9.381   4.932   5.637  1.1203  0.1111 -2.0918
 6835SOL     OW31433   0.972   1.065   4.452  0.1425 -0.4162  0.1484
 6835SOL    HW131434   1.044   1.126   4.417  0.2594 -0.5141  0.2183
 6835SOL    HW231435   1.012   1.000   4.516  0.4770 -2.1987 -1.8281
 6836SOL     OW31436   5.478   8.259   4.193  0.1984 -0.2552 -0.4257
 6836SOL    HW131437   5.551   8.209   4.146  0.0770 -0.2311 -0.6398
 6836SOL    HW231438   5.416   8.299   4.125  0.8167  0.9768 -0.2912
 6837SOL     OW31439   3.445   1.072   1.352  0.5526 -0.3022 -0.5263
 6837SOL    HW131440   3.523   1.122   1.314  0.4456 -0.0769 -0.4487
 6837SOL    HW231441   3.418   1.113   1.439 -0.7272  0.6898 -1.3678
 6838SOL     OW31442   9.631   7.115   1.336  0.9192  0.1212 -0.1984
 6838SOL    HW131443   9.672   7.024   1.330  0.1419 -0.3422  1.4062
 6838SOL    HW231444   9.546   7.116   1.284  0.1797 -0.5021  0.9802
 6839SOL     OW31445   9.184   4.904   5.337  0.5830 -0.6143  0.0571
 6839SOL    HW131446   9.247   4.983   5.335 -0.0485 -0.0795  1.0074
 6839SOL    HW231447   9.103   4.928   5.389 -1.4376 -0.5687 -2.9860
 6840SOL     OW31448   0.981   4.602   3.686 -0.4608 -0.8512 -0.0325
 6840SOL    HW131449   0.947   4.677   3.630 -0.7828 -0.6927  0.3719
 6840SOL    HW231450   1.055   4.636   3.744 -0.6152 -0.8431  0.1594
 6841SOL     OW31451   4.029   5.117   0.101  0.2335  0.2668 -0.5762
 6841SOL    HW131452   3.956   5.093   0.165  0.6535  2.2792  0.7223
 6841SOL    HW231453   4.102   5.049   0.107  0.6431  0.8697  1.7449
 6842SOL     OW31454   5.480   0.508   3.836 -0.5226  0.1340  0.2701
 6842SOL    HW131455   5.390   0.550   3.844  0.8438  3.1588  0.3517
 6842SOL    HW231456   5.504   0.497   3.740  0.3604  2.4043  0.2034
 6843SOL     OW31457   1.714   8.590   1.581  0.0500 -0.7302  0.2059
 6843SOL    HW131458   1.636   8.594   1.518  1.1123 -0.5966 -1.1382
 6843SOL    HW231459   1.694   8.646   1.662 -0.9043  0.0129 -0.5207
 6844SOL     OW31460   3.489   3.354   4.820  0.5928 -0.7052 -0.1242
 6844SOL    HW131461   3.397   3.348   4.858  0.2368  0.1879 -0.8273
 6844SOL    HW231462   3.493   3.302   4.735  0.4321  0.1682 -0.6670
 6845SOL     OW31463   4.176   0.331   2.321 -0.5834  0.0741  0.1350
 6845SOL    HW131464   4.162   0.291   2.230  0.0173  0.8684 -0.3114
 6845SOL    HW231465   4.180   0.258   2.389  1.9962 -0.7524 -0.8545
 6846SOL     OW31466   1.188   6.550   4.895 -0.4521  0.4454 -0.5241
 6846SOL    HW131467   1.096   6.587   4.909 -0.5705  0.6125 -1.7589
 6846SOL    HW231468   1.222   6.576   4.805 -0.5041 -2.3530 -1.4099
 6847SOL     OW31469   9.963   4.206   5.206 -0.5010 -0.3132  0.5614
 6847SOL    HW131470   9.946   4.299   5.239 -1.8902 -0.1891 -0.4407
 6847SOL    HW231471   9.968   4.143   5.284 -1.2692  0.3480  1.1549
 6848SOL     OW31472   5.505   0.091   4.978  0.4820  0.3081 -0.1737
 6848SOL    HW131473   5.441   0.066   4.905  1.3970  0.0751 -0.9002
 6848SOL    HW231474   5.515   0.014   5.041 -1.1082  0.8652  0.8031
 6849SOL     OW31475   4.338   1.705   0.965 -0.1914 -0.0928  0.0245
 6849SOL    HW131476   4.401   1.659   0.902 -0.1987 -0.6976  0.4573
 6849SOL    HW231477   4.339   1.658   1.053  1.0585  1.7039  1.0156
 6850SOL     OW31478   5.135   2.868   2.426 -0.5483  0.1210  0.1343
 6850SOL    HW131479   5.156   2.776   2.395  1.3013  1.0002 -1.3261
 6850SOL    HW231480   5.216   2.909   2.467 -1.1777  1.3288  0.2023
 6851SOL     OW31481   2.000   1.821   2.021  0.2259 -0.6312 -0.5958
 6851SOL    HW131482   2.056   1.904   2.025 -1.2366  0.3924 -0.8117
 6851SOL    HW231483   2.023   1.769   1.938 -1.2698  1.3477 -2.2940
 6852SOL     OW31484   5.609   9.575   3.548 -0.0292  0.5955 -0.1092
 6852SOL    HW131485   5.588   9.501   3.484  0.3054  1.0215 -0.7189
 6852SOL    HW231486   5.707   9.571   3.571 -0.0090  0.8482 -0.1526
 6853SOL     OW31487   3.366   5.427   1.008  0.2334  0.0676  0.1014
 6853SOL    HW131488   3.378   5.526   1.002  1.5997 -0.0174  1.0459
 6853SOL    HW231489   3.456   5.383   1.011 -0.3564 -1.2645 -1.1411
 6854SOL     OW31490   1.408   7.842   5.459  0.1926  0.0132 -0.0104
 6854SOL    HW131491   1.321   7.799   5.434  0.4081  0.3148 -1.3464
 6854SOL    HW231492   1.407   7.937   5.430  0.4821  0.3714  1.1389
 6855SOL     OW31493   4.677   4.955   1.990  0.2514  0.2961  0.3562
 6855SOL    HW131494   4.637   4.926   1.904  0.7508 -0.7133  0.4590
 6855SOL    HW231495   4.759   5.010   1.972  0.1807  0.3453  0.1865
 6856SOL     OW31496   1.988   8.508   5.291  0.1196  0.1899 -0.1797
 6856SOL    HW131497   2.066   8.570   5.298  0.1806  0.2805 -1.5032
 6856SOL    HW231498   1.906   8.552   5.326  0.5299  0.3479  0.5773
 6857SOL     OW31499   1.106   1.370   4.736 -0.4437 -0.0077 -0.2770
 6857SOL    HW131500   1.024   1.321   4.706  0.3059 -0.9702 -0.7980
 6857SOL    HW231501   1.157   1.312   4.800  0.5776 -0.0224 -1.0891
 6858SOL     OW31502   9.294   6.241   5.724 -0.3614  0.6488  0.5600
 6858SOL    HW131503   9.232   6.204   5.793 -1.2072  2.1365  0.6066
 6858SOL    HW231504   9.347   6.166   5.684 -1.0194 -0.4311  1.6588
 6859SOL     OW31505   9.785   7.483   1.698  0.2543  0.0582  0.5943
 6859SOL    HW131506   9.774   7.409   1.632  0.1610  0.6590 -0.0724
 6859SOL    HW231507   9.867   7.467   1.753  0.0755 -0.6808  0.6501
 6860SOL     OW31508   6.581   7.745   2.736  0.3619 -0.1979 -0.0378
 6860SOL    HW131509   6.625   7.754   2.825 -0.4599  1.3564  0.2276
 6860SOL    HW231510   6.485   7.717   2.749  0.6623 -1.5081 -0.5169
 6861SOL     OW31511   1.339   9.078   3.353 -0.2346 -0.5236 -0.9912
 6861SOL    HW131512   1.350   9.059   3.451 -0.1168  0.1799 -0.8700
 6861SOL    HW231513   1.408   9.143   3.323 -0.6750 -0.2393 -1.3993
 6862SOL     OW31514   7.502   3.462   0.998 -0.7271 -0.0120 -0.0275
 6862SOL    HW131515   7.572   3.520   1.039 -0.6934  0.1660 -0.3319
 6862SOL    HW231516   7.459   3.511   0.922 -2.8335  0.8341  1.6484
 6863SOL     OW31517   5.324   8.924   3.241 -0.1437  0.0158  0.0418
 6863SOL    HW131518   5.417   8.903   3.272 -0.9106 -3.7934  0.0084
 6863SOL    HW231519   5.328   8.962   3.149  1.3212 -1.4622 -0.5329
 6864SOL     OW31520   1.817   5.357   1.619  0.2121 -0.1143  0.2264
 6864SOL    HW131521   1.726   5.345   1.659 -0.2574  0.3109 -0.7030
 6864SOL    HW231522   1.809   5.376   1.521  1.3756 -1.6471 -0.1878
 6865SOL     OW31523   8.448   8.394   0.839 -0.3194 -0.1465 -0.4900
 6865SOL    HW131524   8.367   8.452   0.846 -2.2580 -2.9467  1.3625
 6865SOL    HW231525   8.519   8.429   0.900 -1.6689 -0.0386  1.0549
 6866SOL     OW31526   4.321   4.267   1.255  0.1563  0.0589 -0.8235
 6866SOL    HW131527   4.248   4.200   1.250  1.4509 -1.5615  1.1699
 6866SOL    HW231528   4.400   4.235   1.203  0.4632  0.4787 -0.6237
 6867SOL     OW31529   5.549   2.062   2.335 -0.5259  0.4603  0.2901
 6867SOL    HW131530   5.528   2.123   2.258 -0.3807  0.1908  0.0393
 6867SOL    HW231531   5.648   2.059   2.350 -0.2735 -2.0296 -1.5970
 6868SOL     OW31532   3.611   6.552   0.300 -0.3898  0.1546  0.6576
 6868SOL    HW131533   3.668   6.470   0.308  0.7887  0.9456  0.5606
 6868SOL    HW231534   3.642   6.621   0.365 -2.2441  0.0492  1.7005
 6869SOL     OW31535  10.000   0.935   2.017  0.0657  0.0056  0.5791
 6869SOL    HW131536  10.069   0.863   2.011  1.8463  1.8248 -1.8843
 6869SOL    HW231537   9.915   0.904   1.975  1.2183 -0.2590 -1.6313
 6870SOL     OW31538   7.364   9.079   2.429  0.1576  0.3160  0.0906
 6870SOL    HW131539   7.346   8.982   2.413 -0.5473  0.9313 -3.2067
 6870SOL    HW231540   7.278   9.130   2.422  1.0040  1.5544 -1.5756
 6871SOL     OW31541   6.746   0.966   4.464 -0.4908 -0.0220 -0.3156
 6871SOL    HW131542   6.695   0.960   4.550 -0.0258  0.7441  0.0190
 6871SOL    HW231543   6.692   1.018   4.397 -0.1373  0.8267  0.0527
 6872SOL     OW31544   0.639   4.025   0.363 -0.0192  0.2848 -0.2494
 6872SOL    HW131545   0.727   4.046   0.405 -1.3763  2.9331  1.4279
 6872SOL    HW231546   0.625   4.086   0.285 -1.5349  1.8354  1.1889
 6873SOL     OW31547   1.022   9.270   1.534  0.4882 -0.8537  0.7310
 6873SOL    HW131548   1.063   9.216   1.460  0.8331 -0.9968  1.0232
 6873SOL    HW231549   1.043   9.227   1.622  0.4150 -0.4691  0.9393
 6874SOL     OW31550   3.982   8.391   2.172 -0.2108  0.7458  0.2420
 6874SOL    HW131551   4.081   8.376   2.171 -0.4386 -0.9082 -1.9613
 6874SOL    HW231552   3.963   8.489   2.181  1.6417  1.1919 -0.4786
 6875SOL     OW31553   1.165   5.211   5.862 -0.0732 -0.0843 -0.0240
 6875SOL    HW131554   1.116   5.125   5.875  0.0330 -0.2574 -0.7625
 6875SOL    HW231555   1.254   5.193   5.820  0.0041  0.3740 -0.0606
 6876SOL     OW31556   4.194   3.817   0.991 -0.6015 -0.0960  0.4013
 6876SOL    HW131557   4.257   3.740   1.008  0.1676  0.0968 -1.4760
 6876SOL    HW231558   4.241   3.903   1.012 -0.8011 -0.0367  0.6043
 6877SOL     OW31559   6.555   9.469   5.825 -0.0667  0.4136 -0.3957
 6877SOL    HW131560   6.550   9.499   5.920 -1.9596  1.4381 -0.8024
 6877SOL    HW231561   6.574   9.371   5.822 -0.4859  0.2816  1.0552
 6878SOL     OW31562   7.173   0.059   1.687  0.1297 -0.2502 -0.0639
 6878SOL    HW131563   7.218   0.017   1.608 -0.3808 -0.1735 -0.3973
 6878SOL    HW231564   7.237   0.062   1.764  0.6463 -0.2729 -0.4907
 6879SOL     OW31565   1.561   4.536   6.206  0.4936  0.1362 -0.1307
 6879SOL    HW131566   1.647   4.521   6.255  1.6130 -0.2290 -2.1581
 6879SOL    HW231567   1.571   4.509   6.110 -1.4275  1.5097 -0.7758
 6880SOL     OW31568   0.574   2.951   4.504 -0.3777  0.5305 -0.3574
 6880SOL    HW131569   0.631   3.015   4.556 -0.4423  0.2461  0.0700
 6880SOL    HW231570   0.622   2.864   4.495 -0.7276  0.3052 -0.0350
 6881SOL     OW31571   7.461   2.028   0.868 -0.6685  0.4777 -0.1633
 6881SOL    HW131572   7.410   2.044   0.952 -1.3132  0.2277 -0.5029
 6881SOL    HW231573   7.525   2.104   0.853  0.0591  0.0934  0.9912
 6882SOL     OW31574   4.632   3.356   4.152  0.1135  0.8011  0.0520
 6882SOL    HW131575   4.707   3.356   4.219  1.2110 -0.8239 -1.1421
 6882SOL    HW231576   4.567   3.283   4.175 -0.4690  1.4049  0.3585
 6883SOL     OW31577   3.267   5.016   5.199  0.2696 -0.0985  0.1602
 6883SOL    HW131578   3.201   5.091   5.210  1.2756  0.6342  1.2129
 6883SOL    HW231579   3.266   4.958   5.281  0.0142 -0.8426 -0.3582
 6884SOL     OW31580   9.534   0.947   1.894  0.1720  0.1152  0.4370
 6884SOL    HW131581   9.577   0.946   1.804  1.0903 -0.9298  0.8701
 6884SOL    HW231582   9.564   1.029   1.944  1.1307 -0.2385  0.4664
 6885SOL     OW31583   4.793   0.631   4.408 -0.2381 -0.2148  0.1208
 6885SOL    HW131584   4.838   0.598   4.490  1.3229  1.5245 -0.0154
 6885SOL    HW231585   4.852   0.616   4.328 -0.4281  0.8974 -0.2414
 6886SOL     OW31586   5.555   9.145   2.552 -0.3711 -0.2024  0.0957
 6886SOL    HW131587   5.457   9.142   2.532 -0.6121  1.7152  0.8994
 6886SOL    HW231588   5.589   9.237   2.536  1.0285 -0.5242  1.1591
 6887SOL     OW31589   3.357   6.617   0.323 -0.0953 -0.1013 -0.3101
 6887SOL    HW131590   3.342   6.653   0.415  1.2811  1.2732 -0.5970
 6887SOL    HW231591   3.455   6.607   0.307 -0.2260  1.6988 -2.3721
 6888SOL     OW31592   3.699   9.113   0.861  0.3993 -0.3825  0.5171
 6888SOL    HW131593   3.768   9.091   0.791  0.8228  1.1842  0.4297
 6888SOL    HW231594   3.705   9.210   0.884 -1.2492 -0.4134  1.1118
 6889SOL     OW31595   0.090   4.344   0.782 -0.0597 -0.2206 -0.2331
 6889SOL    HW131596   0.152   4.267   0.764 -0.9173 -1.2569  1.1460
 6889SOL    HW231597   0.000   4.325   0.742  0.7895  1.7941 -3.2553
 6890SOL     OW31598   1.772   6.446   6.302 -0.2284  0.1751 -0.3457
 6890SOL    HW131599   1.685   6.396   6.302 -0.5557  0.6999  1.9041
 6890SOL    HW231600   1.816   6.437   6.392  2.3390 -0.5511 -1.6069
 6891SOL     OW31601   2.778   1.422   4.393  0.6286 -0.5481  0.1235
 6891SOL    HW131602   2.814   1.512   4.416 -0.1397 -0.1254 -0.3415
 6891SOL    HW231603   2.711   1.430   4.320 -0.2144 -1.3688  0.7971
 6892SOL     OW31604   2.474   3.075   3.650  0.1197 -0.0180  0.1287
 6892SOL    HW131605   2.443   3.046   3.741 -1.5157  1.4843  0.0769
 6892SOL    HW231606   2.512   3.168   3.656 -0.0381  0.0999 -0.7246
 6893SOL     OW31607   9.349   2.863   0.537  0.2753 -0.3436 -0.2638
 6893SOL    HW131608   9.301   2.787   0.493  0.7987 -0.9423  0.1902
 6893SOL    HW231609   9.339   2.856   0.636  1.8531 -0.8560 -0.1294
 6894SOL     OW31610   8.771   5.949   6.046  0.1764  0.4724  0.1385
 6894SOL    HW131611   8.693   5.895   6.015 -1.4546  2.1857  1.1826
 6894SOL    HW231612   8.843   5.946   5.976 -1.8743  1.0720 -2.0928
 6895SOL     OW31613   4.487   3.375   2.324 -0.6565 -0.1715 -0.5869
 6895SOL    HW131614   4.548   3.420   2.259 -0.2067  0.3133  0.1578
 6895SOL    HW231615   4.404   3.430   2.336 -0.9946 -0.5460 -1.1701
 6896SOL     OW31616   7.554   6.947   3.434  0.2234  0.0808 -0.2812
 6896SOL    HW131617   7.592   6.856   3.453  1.8387  0.1654 -2.8336
 6896SOL    HW231618   7.462   6.937   3.395 -0.8246 -0.2916  2.1761
 6897SOL     OW31619   6.982   1.276   2.238  0.0860  0.1601 -0.2497
 6897SOL    HW131620   7.072   1.244   2.268 -0.2910 -1.1946 -0.5038
 6897SOL    HW231621   6.993   1.335   2.158  0.6595 -1.3144 -1.2992
 6898SOL     OW31622   9.889   3.209   5.426 -0.1541 -0.3719 -0.1701
 6898SOL    HW131623   9.961   3.225   5.358  1.5141  0.0101  1.6346
 6898SOL    HW231624   9.840   3.295   5.443 -0.4813 -0.4358 -0.7730
 6899SOL     OW31625   0.178   5.957   4.618  0.2371 -0.0539 -0.3640
 6899SOL    HW131626   0.268   5.943   4.577  0.5994 -1.5925  0.8725
 6899SOL    HW231627   0.134   6.036   4.576  1.5631 -0.1433 -1.9940
 6900SOL     OW31628   1.599   7.643   3.998 -0.6688 -0.0861  0.2699
 6900SOL    HW131629   1.559   7.567   4.048 -0.4894  0.6306  1.5018
 6900SOL    HW231630   1.670   7.687   4.053  0.9007 -0.5061 -1.3647
 6901SOL     OW31631   3.073   0.765   0.915  0.4525 -0.6715 -0.0645
 6901SOL    HW131632   3.131   0.827   0.861 -0.2714  1.6746  1.7545
 6901SOL    HW231633   3.125   0.731   0.993  0.1534 -0.5235  0.2016
 6902SOL     OW31634   1.494   4.997   1.235 -0.6562 -0.0642 -0.3049
 6902SOL    HW131635   1.509   5.033   1.143  0.9949 -0.0043 -0.0296
 6902SOL    HW231636   1.536   5.058   1.302  0.8103 -1.6602  0.2677
 6903SOL     OW31637   2.402   4.697   4.960  0.0125 -0.3870 -0.0495
 6903SOL    HW131638   2.311   4.680   4.921  0.1363 -0.0656 -0.4773
 6903SOL    HW231639   2.444   4.775   4.914  0.1055  0.0785  0.8276
 6904SOL     OW31640   3.118   7.852   1.714 -0.5029 -0.2053  0.1032
 6904SOL    HW131641   3.094   7.804   1.799 -0.0460  1.0165  0.9367
 6904SOL    HW231642   3.194   7.915   1.731 -0.7789  0.4722 -1.0857
 6905SOL     OW31643   6.043   7.797   2.080 -0.3801  0.0603  0.6919
 6905SOL    HW131644   6.069   7.814   2.175 -0.5253  1.3088  0.5251
 6905SOL    HW231645   6.124   7.771   2.027  0.2055  1.9218  0.6182
 6906SOL     OW31646   8.519   7.825   4.266 -0.1882  0.0686  0.3867
 6906SOL    HW131647   8.589   7.855   4.201 -0.8892 -1.4643 -1.1007
 6906SOL    HW231648   8.465   7.903   4.296 -0.3055  0.6787 -1.4037
 6907SOL     OW31649   5.875   0.645   3.102 -0.0878 -0.0342 -0.1154
 6907SOL    HW131650   5.808   0.709   3.142 -0.9281  0.7854 -2.7669
 6907SOL    HW231651   5.958   0.695   3.078 -0.1036 -0.2659 -0.6489
 6908SOL     OW31652   9.989   7.822   2.308  0.2353  0.2705  0.0239
 6908SOL    HW131653  10.018   7.909   2.269  1.9562  0.1668  1.0253
 6908SOL    HW231654  10.045   7.748   2.269 -0.9417 -0.3438 -0.5223
 6909SOL     OW31655   1.914   0.803   1.810 -0.1378 -0.6424 -0.0168
 6909SOL    HW131656   2.011   0.780   1.813 -0.3145 -1.6642 -1.4944
 6909SOL    HW231657   1.862   0.724   1.780 -1.2850  0.2948 -0.5513
 6910SOL     OW31658   5.533   0.896   1.383 -0.3016 -0.0320 -0.3645
 6910SOL    HW131659   5.571   0.908   1.291  2.1361  0.2890  0.6409
 6910SOL    HW231660   5.606   0.868   1.446 -2.0227 -0.6959  1.3907
 6911SOL     OW31661   9.863   1.659   4.213 -0.4747 -0.2295 -0.1544
 6911SOL    HW131662   9.921   1.577   4.208 -0.0425 -0.0863  1.8128
 6911SOL    HW231663   9.921   1.740   4.216 -0.8958  0.1370 -1.7538
 6912SOL     OW31664   1.813   7.401   5.534  0.1285  0.4323  0.2860
 6912SOL    HW131665   1.715   7.385   5.552  0.2170 -0.4908 -0.0239
 6912SOL    HW231666   1.858   7.426   5.620  0.1894 -2.1159  1.0266
 6913SOL     OW31667   3.564   2.913   2.767  0.0024 -0.3677 -0.1579
 6913SOL    HW131668   3.532   3.003   2.799 -0.0889 -0.3189 -0.3851
 6913SOL    HW231669   3.658   2.922   2.733  0.1017 -0.4211  0.1025
 6914SOL     OW31670   0.528   2.568   3.039  0.2179 -0.3644  0.4720
 6914SOL    HW131671   0.624   2.592   3.048  0.5527 -1.2097 -0.7379
 6914SOL    HW231672   0.518   2.468   3.044 -0.4257 -0.3769 -0.7876
 6915SOL     OW31673   2.214   7.083   0.502 -0.5677 -0.7790 -0.1495
 6915SOL    HW131674   2.142   7.136   0.545 -0.0092 -0.1803  0.0640
 6915SOL    HW231675   2.298   7.091   0.557  0.6923  1.5137 -2.2813
 6916SOL     OW31676   2.557   3.713   2.383  0.0029 -0.4601  0.7541
 6916SOL    HW131677   2.505   3.714   2.297  0.4045 -1.1372  0.4924
 6916SOL    HW231678   2.519   3.643   2.444  1.3932 -1.8884  0.0414
 6917SOL     OW31679   2.185   2.315   2.982 -0.1748 -0.4140  0.5298
 6917SOL    HW131680   2.102   2.350   3.026  1.1447  0.5033  2.3606
 6917SOL    HW231681   2.231   2.389   2.933  0.7393 -0.3759  1.4246
 6918SOL     OW31682   2.129   7.655   2.846  0.2925  0.1411  1.0211
 6918SOL    HW131683   2.144   7.557   2.831 -0.2315  0.3759 -1.2624
 6918SOL    HW231684   2.216   7.703   2.844  0.2575  0.2012 -1.9841
 6919SOL     OW31685   9.653   7.544   5.781 -0.5532  0.0836  0.3535
 6919SOL    HW131686   9.683   7.587   5.867 -0.0853  0.0901  0.1885
 6919SOL    HW231687   9.733   7.508   5.732 -0.8880 -0.5103  0.2390
 6920SOL     OW31688   2.781   1.031   3.696  0.0148 -0.2043  0.2755
 6920SOL    HW131689   2.703   0.975   3.724  0.6003 -1.6548 -0.9352
 6920SOL    HW231690   2.852   1.026   3.766 -1.6061  2.4878  2.2019
 6921SOL     OW31691   4.193   8.200   1.379  0.4852  0.2636 -0.1701
 6921SOL    HW131692   4.254   8.135   1.424 -1.7768 -1.2176  0.8552
 6921SOL    HW231693   4.168   8.166   1.289  2.5655  1.7629 -1.3770
 6922SOL     OW31694   0.861   3.574   1.871  0.1684 -0.0964 -0.1600
 6922SOL    HW131695   0.843   3.648   1.936 -0.4978 -0.9070  0.5867
 6922SOL    HW231696   0.881   3.613   1.781  1.8875  1.0639  0.7007
 6923SOL     OW31697   6.454   7.353   4.461 -0.3629  0.9341 -0.3832
 6923SOL    HW131698   6.421   7.308   4.544 -1.3755  2.0152 -0.1705
 6923SOL    HW231699   6.547   7.386   4.476  0.4977 -1.3429 -0.6605
 6924SOL     OW31700   3.435   2.982   4.867  0.1406 -0.4642  0.2264
 6924SOL    HW131701   3.422   3.031   4.781  0.4837 -0.3336  0.2482
 6924SOL    HW231702   3.350   2.986   4.921 -0.8408 -2.5028 -1.0827
 6925SOL     OW31703   8.263   1.862   6.067 -0.5128  0.6590 -0.0456
 6925SOL    HW131704   8.175   1.895   6.101 -0.7211 -0.2137  0.2647
 6925SOL    HW231705   8.249   1.779   6.014  0.0188  1.0640 -0.8372
 6926SOL     OW31706   2.641   8.938   2.995  0.3809 -0.2759  0.5142
 6926SOL    HW131707   2.634   8.995   2.913 -2.0329  0.3604  1.1415
 6926SOL    HW231708   2.629   8.842   2.971 -0.4094 -0.0828  0.1495
 6927SOL     OW31709   7.751   1.142   5.700  0.0252 -0.2526  0.4070
 6927SOL    HW131710   7.659   1.107   5.716  0.5846 -1.3715  1.2459
 6927SOL    HW231711   7.764   1.159   5.602  0.2838 -3.9734 -0.2470
 6928SOL     OW31712   2.524   8.386   2.480  0.2203  0.1181 -0.2260
 6928SOL    HW131713   2.470   8.320   2.531 -0.9859  0.9551 -0.4061
 6928SOL    HW231714   2.529   8.359   2.384  0.6875 -0.3132 -0.0814
 6929SOL     OW31715   7.839   8.842   5.511 -0.0022 -0.3889 -0.2256
 6929SOL    HW131716   7.742   8.855   5.493 -0.4138 -1.6205  0.9608
 6929SOL    HW231717   7.867   8.901   5.587  0.7500  1.7237 -2.1138
 6930SOL     OW31718   9.341   3.988   2.585  0.4982  0.1816  0.6778
 6930SOL    HW131719   9.309   3.895   2.566 -0.0822  0.5774 -0.3041
 6930SOL    HW231720   9.266   4.041   2.625  0.3810  0.6522 -0.1519
 6931SOL     OW31721   7.956   5.879   4.092 -0.4745 -0.0488  0.1812
 6931SOL    HW131722   8.014   5.834   4.023 -0.7721 -0.9796  0.5253
 6931SOL    HW231723   7.982   5.847   4.183 -1.5058 -0.4540  0.3398
 6932SOL     OW31724   3.150   3.094   1.941  0.3083  0.1823  0.4259
 6932SOL    HW131725   3.244   3.069   1.916  0.0051 -0.8713  0.3376
 6932SOL    HW231726   3.107   3.018   1.990  0.4554  1.7134  3.0211
 6933SOL     OW31727   2.160   8.443   3.465  0.6021  0.3520 -0.2717
 6933SOL    HW131728   2.080   8.418   3.411 -0.0907  0.3612  0.7441
 6933SOL    HW231729   2.212   8.361   3.490  0.2406  0.2375  0.1012
 6934SOL     OW31730   9.396   0.903   1.043  0.1814 -0.0260 -0.2708
 6934SOL    HW131731   9.306   0.870   1.015  0.8800 -2.6233  0.3930
 6934SOL    HW231732   9.410   0.996   1.008 -2.8318  0.5227 -0.1329
 6935SOL     OW31733   2.092   6.402   4.280 -0.0990  0.5385 -0.3587
 6935SOL    HW131734   2.054   6.321   4.235 -1.1738  0.8113  0.0417
 6935SOL    HW231735   2.063   6.403   4.376  1.4227  0.4365  0.1153
 6936SOL     OW31736   6.756   8.508   1.975 -0.0146  0.0157  0.0160
 6936SOL    HW131737   6.702   8.457   1.908 -0.9597  1.7191 -0.5472
 6936SOL    HW231738   6.849   8.521   1.940 -0.3397  0.4045 -0.7168
 6937SOL     OW31739   7.600   4.157   0.841 -0.3394  0.4827  0.3402
 6937SOL    HW131740   7.532   4.155   0.768 -1.4423  0.4002  1.3522
 6937SOL    HW231741   7.691   4.162   0.802 -0.9590  1.2269 -1.0256
 6938SOL     OW31742   1.057   2.360   0.525  0.5310  0.3045  0.1402
 6938SOL    HW131743   1.043   2.429   0.454  0.9448  1.2127  0.9157
 6938SOL    HW231744   1.134   2.301   0.501  0.0925  0.0283 -0.5918
 6939SOL     OW31745   8.034   2.076   0.480 -0.5846 -0.0655  0.0552
 6939SOL    HW131746   8.088   2.007   0.431  0.3013  1.0004 -0.4768
 6939SOL    HW231747   7.942   2.039   0.498  0.4046 -2.0414  1.3117
 6940SOL     OW31748   4.187   5.682   2.645 -0.1237  0.2757  0.4170
 6940SOL    HW131749   4.153   5.700   2.553  1.4796 -0.7247 -0.3941
 6940SOL    HW231750   4.287   5.680   2.643 -0.1123 -2.6973  1.5958
 6941SOL     OW31751   5.227   4.770   1.082  0.4018 -0.0908 -0.5265
 6941SOL    HW131752   5.199   4.823   1.002 -0.8455 -1.0506 -0.7363
 6941SOL    HW231753   5.316   4.729   1.065  0.0799 -0.4058 -1.4881
 6942SOL     OW31754   2.596   0.528   2.199 -0.4749  0.0862  0.5141
 6942SOL    HW131755   2.545   0.457   2.249 -0.4405 -0.1971  0.1476
 6942SOL    HW231756   2.684   0.491   2.170 -0.9444 -0.0897 -0.6968
 6943SOL     OW31757   5.773   8.182   1.832  0.3283 -0.1024  0.4621
 6943SOL    HW131758   5.766   8.125   1.914  1.6078 -1.1349 -0.1355
 6943SOL    HW231759   5.689   8.174   1.779 -0.1361 -0.1712  1.2066
 6944SOL     OW31760   3.140   6.177   4.644  0.2183  0.5029  0.0504
 6944SOL    HW131761   3.040   6.183   4.641  0.2654  0.9247 -0.6825
 6944SOL    HW231762   3.169   6.145   4.735 -0.5365  1.4280  0.6241
 6945SOL     OW31763   0.770   5.698   6.283 -0.2765  0.0701 -0.4522
 6945SOL    HW131764   0.764   5.599   6.291  2.0886 -0.0826 -0.2068
 6945SOL    HW231765   0.820   5.722   6.200  0.0993  1.0273  0.0462
 6946SOL     OW31766   5.105   9.594   4.268  0.0493  0.0935 -1.0332
 6946SOL    HW131767   5.083   9.690   4.251 -0.1260  0.0575 -1.0103
 6946SOL    HW231768   5.023   9.547   4.300  0.0305 -0.1653 -1.4627
 6947SOL     OW31769   1.566   5.585   6.637  0.0152  0.2991  0.4422
 6947SOL    HW131770   1.532   5.675   6.666  0.0091  0.1759  0.8220
 6947SOL    HW231771   1.489   5.527   6.610 -0.2845 -0.6181  3.0786
 6948SOL     OW31772   9.203   5.518   2.313  0.5049 -0.2197  0.2510
 6948SOL    HW131773   9.177   5.576   2.390  1.4493 -0.2285  0.5818
 6948SOL    HW231774   9.214   5.575   2.231 -1.1919 -0.3064 -0.0561
 6949SOL     OW31775   5.753   0.406   4.331 -0.0176 -0.4424 -0.0579
 6949SOL    HW131776   5.833   0.348   4.315  0.6643  0.4211  0.2129
 6949SOL    HW231777   5.778   0.502   4.320 -1.1696 -0.1983 -0.6025
 6950SOL     OW31778   7.024   9.118   1.654 -0.4412 -0.1615 -0.3776
 6950SOL    HW131779   7.086   9.134   1.578  0.5903 -3.0060 -0.1877
 6950SOL    HW231780   7.076   9.112   1.739 -1.2751  0.1029  0.1625
 6951SOL     OW31781   2.681   3.048   4.898  0.5417  0.2427 -0.1010
 6951SOL    HW131782   2.629   2.962   4.894 -1.6769  1.4857  0.9947
 6951SOL    HW231783   2.656   3.105   4.821  0.6656  0.6311  0.1450
 6952SOL     OW31784   0.618   3.231   2.616 -0.1441  0.3917  0.3728
 6952SOL    HW131785   0.611   3.152   2.556  1.2858 -0.5986  1.4766
 6952SOL    HW231786   0.590   3.313   2.566 -1.0465 -0.7086 -0.9694
 6953SOL     OW31787   9.613   1.349   2.983 -0.4263 -0.1197 -0.6396
 6953SOL    HW131788   9.637   1.255   3.006  0.0479  0.1636  0.0425
 6953SOL    HW231789   9.697   1.402   2.968 -0.6401  0.6282  0.7625
 6954SOL     OW31790   3.743   1.436   2.210 -0.8160 -0.1975  0.2125
 6954SOL    HW131791   3.714   1.523   2.172 -1.3978 -0.7631 -0.6488
 6954SOL    HW231792   3.801   1.452   2.290 -2.1174  0.9506  0.9456
 6955SOL     OW31793   9.027   4.989   2.947  0.2237  0.2143 -0.1719
 6955SOL    HW131794   9.016   4.968   2.850 -2.2047 -0.8486  0.3100
 6955SOL    HW231795   9.082   4.917   2.990  0.5612  0.2277 -0.5798
 6956SOL     OW31796   7.465   8.056   4.518 -0.0348  0.9475  0.3924
 6956SOL    HW131797   7.502   7.996   4.589 -0.6697  0.0764 -0.0014
 6956SOL    HW231798   7.367   8.070   4.535  0.0159  1.5034  0.2209
 6957SOL     OW31799   5.157   8.830   2.170  0.6043  0.3919 -0.2878
 6957SOL    HW131800   5.156   8.882   2.085 -0.2291  0.9860  0.0833
 6957SOL    HW231801   5.095   8.752   2.162 -0.7600  1.3949  0.3569
 6958SOL     OW31802   2.941   2.954   0.990  0.3160  0.5307 -0.0891
 6958SOL    HW131803   2.867   3.001   0.943  1.1992  0.5358 -1.5165
 6958SOL    HW231804   3.029   2.981   0.950  1.0007 -0.4605  0.6990
 6959SOL     OW31805   1.423   1.462   1.623 -0.3987  0.4499 -0.6714
 6959SOL    HW131806   1.372   1.517   1.558 -1.2451 -0.0411 -0.4320
 6959SOL    HW231807   1.360   1.427   1.693 -0.2428 -2.5011 -1.9630
 6960SOL     OW31808   8.783   9.738   5.375  0.2620  0.0192 -0.5581
 6960SOL    HW131809   8.780   9.801   5.298  1.6352  0.1294 -0.5366
 6960SOL    HW231810   8.814   9.648   5.344 -3.5437 -1.2532 -0.9549
 6961SOL     OW31811   2.010   8.801   1.002 -0.0553 -0.1881  0.0220
 6961SOL    HW131812   1.913   8.779   1.015 -0.0069 -0.5819 -0.2349
 6961SOL    HW231813   2.019   8.865   0.926  0.0023 -1.5158 -1.1343
 6962SOL     OW31814   7.217   1.136   2.771 -0.4143 -0.1368  0.1711
 6962SOL    HW131815   7.277   1.112   2.694 -0.3043  0.4223  0.0804
 6962SOL    HW231816   7.132   1.175   2.735 -0.2414  0.4013  0.3349
 6963SOL     OW31817   1.071   6.507   1.334 -0.2577  0.3177 -0.1558
 6963SOL    HW131818   1.122   6.472   1.413 -1.6155  0.1869  0.6791
 6963SOL    HW231819   1.135   6.545   1.268  0.9556 -0.1875  0.6976
 6964SOL     OW31820   8.714   9.236   3.351  0.9004  0.0856  0.1782
 6964SOL    HW131821   8.644   9.274   3.411  0.8799  0.3445 -0.0063
 6964SOL    HW231822   8.676   9.158   3.302  0.1771  1.2919 -1.2299
 6965SOL     OW31823   1.026   6.289   0.500  0.7495 -0.2001 -0.0204
 6965SOL    HW131824   1.042   6.341   0.416  1.0945 -0.4341 -0.1015
 6965SOL    HW231825   1.078   6.329   0.575  2.0280 -1.1688 -0.3613
 6966SOL     OW31826   8.211   3.266   2.564 -0.0429 -0.9708 -0.2388
 6966SOL    HW131827   8.278   3.194   2.581 -1.4164 -2.2664 -0.1588
 6966SOL    HW231828   8.223   3.339   2.632  1.4201 -1.0687 -0.3779
 6967SOL     OW31829   3.800   2.605   3.664 -0.1450 -0.0546  0.0620
 6967SOL    HW131830   3.850   2.594   3.579 -1.4450 -0.8514 -0.6137
 6967SOL    HW231831   3.746   2.523   3.683  0.5639 -0.1212  1.9440
 6968SOL     OW31832   3.109   5.546   4.654  0.0604  0.5055  0.0843
 6968SOL    HW131833   3.154   5.470   4.700  1.6896  0.8409 -0.8964
 6968SOL    HW231834   3.032   5.579   4.709 -0.1945 -1.3575  0.8561
 6969SOL     OW31835   0.896   8.164   4.387 -0.1518 -0.4250  0.2043
 6969SOL    HW131836   0.995   8.168   4.400  0.0433 -0.4584 -1.2000
 6969SOL    HW231837   0.872   8.207   4.300 -1.3794 -0.3944  0.5468
 6970SOL     OW31838   2.563   4.168   4.812 -0.4352 -0.1818  0.6099
 6970SOL    HW131839   2.551   4.180   4.910  0.4542  1.3535  0.5404
 6970SOL    HW231840   2.621   4.088   4.795 -2.4043 -1.7946  1.2406
 6971SOL     OW31841   4.941   3.168   3.201  0.0899  0.4720  0.6144
 6971SOL    HW131842   4.877   3.154   3.277  0.9898  1.1136  1.5004
 6971SOL    HW231843   4.894   3.148   3.115 -0.8037 -0.7360  1.3563
 6972SOL     OW31844   9.698   6.452   0.397 -0.2751 -0.8072  0.3982
 6972SOL    HW131845   9.665   6.405   0.315 -1.9070 -1.0038  1.1392
 6972SOL    HW231846   9.660   6.406   0.478  1.0957 -0.4501  1.2530
 6973SOL     OW31847   4.451   6.347   1.442 -0.6752 -0.8027  0.1401
 6973SOL    HW131848   4.505   6.290   1.380 -0.1390 -0.2350  0.0802
 6973SOL    HW231849   4.512   6.399   1.502 -1.0786  1.5556 -1.4525
 6974SOL     OW31850   4.949   0.510   2.422  0.2938 -0.3744  0.2796
 6974SOL    HW131851   5.010   0.433   2.443 -0.4015 -0.5045  1.8846
 6974SOL    HW231852   5.002   0.595   2.422  0.8192 -0.6934 -0.1995
 6975SOL     OW31853   9.947   4.415   2.892  0.1846  0.6491  0.1668
 6975SOL    HW131854   9.937   4.330   2.943  1.9020  0.5632  0.4085
 6975SOL    HW231855   9.995   4.397   2.807 -0.2472  1.2331 -0.2011
 6976SOL     OW31856   5.169   1.379   3.193 -0.5168 -0.5922  0.7926
 6976SOL    HW131857   5.151   1.286   3.226 -0.3804 -0.4787  1.1975
 6976SOL    HW231858   5.099   1.441   3.227 -0.8746 -0.6322  0.1237
 6977SOL     OW31859   3.022   9.241   2.443  0.2781 -0.6713 -0.7474
 6977SOL    HW131860   2.927   9.272   2.433  0.7472  0.9466 -0.4686
 6977SOL    HW231861   3.064   9.289   2.520  0.7174 -2.9220  0.4325
 6978SOL     OW31862   7.688   0.963   5.037 -0.2341 -0.0201  0.0454
 6978SOL    HW131863   7.677   1.051   5.083 -1.8127 -0.1905  0.0245
 6978SOL    HW231864   7.756   0.972   4.965  0.1321  1.0036  0.5038
 6979SOL     OW31865   0.960   9.049   3.768  0.2990  0.5061  0.0652
 6979SOL    HW131866   0.926   9.010   3.682  2.1165  0.7474 -0.8002
 6979SOL    HW231867   0.891   9.040   3.839 -0.1543 -2.3784 -0.6633
 6980SOL     OW31868   0.178   6.735   0.869 -0.5214 -0.0152  0.0387
 6980SOL    HW131869   0.083   6.707   0.882  0.0065 -0.8422  2.2686
 6980SOL    HW231870   0.235   6.655   0.854  0.0635  0.3581  0.2269
 6981SOL     OW31871   1.883   7.051   3.795  0.1803 -0.1227 -0.6783
 6981SOL    HW131872   1.941   7.069   3.874 -0.5460  1.6125 -0.5129
 6981SOL    HW231873   1.873   6.952   3.782  3.5941 -0.4671 -1.0567
 6982SOL     OW31874   8.323   9.510   0.796 -0.5144  0.4188 -0.3559
 6982SOL    HW131875   8.375   9.596   0.791  0.3973 -0.0164  1.3042
 6982SOL    HW231876   8.277   9.504   0.884 -1.7474 -0.1416 -1.0350
 6983SOL     OW31877   0.282   7.466   2.568  0.2789  0.1220  0.1371
 6983SOL    HW131878   0.191   7.425   2.578  1.1287 -1.1326  3.2384
 6983SOL    HW231879   0.288   7.511   2.478 -3.0853 -0.4778 -0.4784
 6984SOL     OW31880   8.506   9.275   0.896 -0.2066 -0.0136 -0.0192
 6984SOL    HW131881   8.527   9.252   0.991 -1.4848  0.7881  0.4739
 6984SOL    HW231882   8.484   9.372   0.889 -3.7353 -0.7945 -0.4739
 6985SOL     OW31883   8.019   1.614   0.724 -0.0487  1.0425  0.4808
 6985SOL    HW131884   7.927   1.597   0.689  1.1486  0.0575 -2.2994
 6985SOL    HW231885   8.068   1.527   0.734  0.8866  1.6294  1.1132
 6986SOL     OW31886   3.299   3.942   0.667  0.4436 -0.0534  0.4054
 6986SOL    HW131887   3.325   4.030   0.706  1.3807 -0.3078  0.3687
 6986SOL    HW231888   3.201   3.926   0.682 -0.1042  1.7584 -1.1318
 6987SOL     OW31889   2.301   4.374   1.259 -0.2545 -0.7946  0.2165
 6987SOL    HW131890   2.392   4.388   1.298 -0.3081  1.8934 -0.5544
 6987SOL    HW231891   2.234   4.430   1.308 -0.8691  0.1232 -1.6353
 6988SOL     OW31892   8.375   6.657   4.709  0.0803 -0.2930 -0.0540
 6988SOL    HW131893   8.294   6.670   4.652  0.4310 -1.1500 -0.7715
 6988SOL    HW231894   8.446   6.613   4.655  0.9144  0.1564  0.6638
 6989SOL     OW31895   2.695   6.689   5.199  0.1405  0.4460 -0.0232
 6989SOL    HW131896   2.661   6.651   5.285 -1.5791  0.5498 -0.6375
 6989SOL    HW231897   2.756   6.623   5.156  1.9134  0.8351  1.7846
 6990SOL     OW31898   9.547   4.689   5.038 -0.1375 -0.2792  0.2739
 6990SOL    HW131899   9.516   4.597   5.063  0.5791 -0.1201  1.7547
 6990SOL    HW231900   9.637   4.683   4.995 -0.2767 -0.2976 -0.0219
 6991SOL     OW31901   3.183   7.531   0.777  0.1986 -0.1969  0.5392
 6991SOL    HW131902   3.096   7.537   0.825 -0.2283  1.0324 -0.3500
 6991SOL    HW231903   3.226   7.622   0.773  0.9510 -0.5636 -0.0514
 6992SOL     OW31904   9.526   9.815   1.768 -0.4938 -0.2672  0.4308
 6992SOL    HW131905   9.512   9.737   1.829 -2.5070 -0.1068  0.2002
 6992SOL    HW231906   9.464   9.888   1.793  2.2135  1.7787  1.4227
 6993SOL     OW31907   4.388   8.217   2.700  0.4738 -0.1477 -0.1752
 6993SOL    HW131908   4.353   8.125   2.710 -2.3621  0.8034 -1.0067
 6993SOL    HW231909   4.377   8.267   2.786  0.3314 -0.0069 -0.2756
 6994SOL     OW31910   6.071   0.268   3.409 -0.2007 -1.0098 -0.0869
 6994SOL    HW131911   6.115   0.202   3.469 -1.1507 -1.7079 -0.1613
 6994SOL    HW231912   6.093   0.246   3.314 -1.2696 -1.7805 -0.1659
 6995SOL     OW31913   4.851   4.810   2.678  0.4861  0.3662 -0.0025
 6995SOL    HW131914   4.885   4.718   2.696  1.5932  0.8922  0.6449
 6995SOL    HW231915   4.849   4.861   2.764 -0.8929  0.6934 -0.2247
 6996SOL     OW31916   9.489   8.502   1.483  0.2220 -0.0974 -0.3925
 6996SOL    HW131917   9.550   8.443   1.534  1.5919  1.2935 -0.4066
 6996SOL    HW231918   9.466   8.458   1.396  2.6270  0.1311 -1.1807
 6997SOL     OW31919   6.482   0.423   3.273  1.1083  0.2576 -0.3018
 6997SOL    HW131920   6.480   0.410   3.373  0.4745 -0.7807 -0.4405
 6997SOL    HW231921   6.537   0.351   3.231  0.8801  0.3489 -0.7609
 6998SOL     OW31922   2.467   6.310   3.771  0.2489  0.4057 -0.4064
 6998SOL    HW131923   2.518   6.331   3.855  1.5762  0.7046 -1.2756
 6998SOL    HW231924   2.497   6.371   3.698  1.1873 -1.7238 -1.8579
 6999SOL     OW31925   6.654   7.888   3.749 -0.0835  0.6383 -0.1031
 6999SOL    HW131926   6.595   7.958   3.789  0.2749 -0.2133  2.0050
 6999SOL    HW231927   6.639   7.801   3.796  0.1197 -0.5058 -2.0942
 7000SOL     OW31928   4.765   1.344   2.357  0.1167  0.0117  0.0804
 7000SOL    HW131929   4.742   1.301   2.269  1.8063  0.2372 -0.4978
 7000SOL    HW231930   4.696   1.413   2.379 -0.1215  0.2381 -1.2913
 7001SOL     OW31931   3.696   2.849   3.716 -0.3145  0.3966  0.6640
 7001SOL    HW131932   3.766   2.920   3.722 -0.6023  0.8015 -0.6845
 7001SOL    HW231933   3.738   2.761   3.694 -0.1759  0.5270  0.4147
 7002SOL     OW31934   1.928   4.151   2.080 -0.6469  0.2777 -0.2134
 7002SOL    HW131935   1.958   4.237   2.119 -0.2093  1.3791 -2.8628
 7002SOL    HW231936   1.893   4.091   2.152  1.6685  1.5514  2.0203
 7003SOL     OW31937   1.064   6.877   2.237  0.1449  0.3844 -1.2179
 7003SOL    HW131938   1.100   6.872   2.331 -2.7211 -0.8439 -0.1508
 7003SOL    HW231939   0.993   6.947   2.232 -1.1819 -0.9935 -1.9548
 7004SOL     OW31940   0.236   6.417   2.677  0.3482 -0.5699  0.1477
 7004SOL    HW131941   0.318   6.474   2.677 -0.5740  0.9403 -3.4093
 7004SOL    HW231942   0.161   6.466   2.720  0.5958 -0.8001  0.8455
 7005SOL     OW31943   0.633   9.103   3.349 -0.1273  0.2267  0.1259
 7005SOL    HW131944   0.624   9.018   3.400 -2.9849 -0.0695 -0.7601
 7005SOL    HW231945   0.614   9.086   3.252  0.9209  1.5698 -0.3290
 7006SOL     OW31946   8.543   4.094   0.786  0.3600 -0.3878 -0.1748
 7006SOL    HW131947   8.524   4.063   0.693 -0.9320 -2.1832  0.6668
 7006SOL    HW231948   8.621   4.043   0.823  1.9410  1.4779 -0.8209
 7007SOL     OW31949   6.947   4.082   1.237  0.3036 -0.0221 -0.3234
 7007SOL    HW131950   6.945   4.161   1.176 -1.3352  1.5707  1.6940
 7007SOL    HW231951   6.959   4.114   1.331 -2.3193 -2.0149  0.7443
 7008SOL     OW31952   4.751   5.373   1.881  0.9047  0.1351  0.3119
 7008SOL    HW131953   4.667   5.403   1.926 -0.0632 -0.9960 -0.6868
 7008SOL    HW231954   4.826   5.434   1.906 -0.6459  2.4131 -0.3885
 7009SOL     OW31955   8.916   8.183   1.232  0.1757 -0.8852  0.3119
 7009SOL    HW131956   8.990   8.194   1.166 -0.5556 -1.9895 -0.7062
 7009SOL    HW231957   8.828   8.202   1.189 -0.3124 -1.6189  0.9543
 7010SOL     OW31958   5.530   2.584   2.765  0.0664 -0.0154 -0.4896
 7010SOL    HW131959   5.482   2.569   2.679  0.4940 -1.1246 -0.5313
 7010SOL    HW231960   5.607   2.646   2.750  2.0889 -2.7044 -1.5627
 7011SOL     OW31961   1.876   7.114   4.317  0.1108  0.2363  0.2091
 7011SOL    HW131962   1.807   7.186   4.311  0.0807  0.4092  2.4508
 7011SOL    HW231963   1.851   7.038   4.257 -1.4329  0.7689  0.1768
 7012SOL     OW31964   8.746   3.101   4.242  0.9333 -0.0084 -0.4085
 7012SOL    HW131965   8.823   3.043   4.267  0.1036 -0.3418  1.4447
 7012SOL    HW231966   8.694   3.124   4.324 -1.6870 -0.8817 -1.7676
 7013SOL     OW31967   1.725   2.683   3.963  0.3321 -0.0281  0.1376
 7013SOL    HW131968   1.738   2.781   3.977  1.1294 -0.1699  0.4058
 7013SOL    HW231969   1.762   2.656   3.875  0.5251 -0.1720  0.2632
 7014SOL     OW31970   7.517   0.585   5.401  0.2781  0.4412  0.2051
 7014SOL    HW131971   7.451   0.611   5.331 -0.3419 -1.1188  0.1967
 7014SOL    HW231972   7.600   0.551   5.357  1.0071  2.1498  0.2183
 7015SOL     OW31973   6.758   1.341   5.131  0.1266 -0.0312  0.7008
 7015SOL    HW131974   6.814   1.417   5.097  0.1192 -0.4553 -0.2797
 7015SOL    HW231975   6.671   1.338   5.081 -0.0457 -0.4349  1.0175
 7016SOL     OW31976   0.467   1.332   1.917 -0.1530  0.2079  0.4410
 7016SOL    HW131977   0.431   1.401   1.853  1.2223  0.2500 -0.3200
 7016SOL    HW231978   0.392   1.295   1.972 -1.3544  0.2755 -1.1041
 7017SOL     OW31979   0.899   4.396   5.841 -0.1137  0.3789 -0.8309
 7017SOL    HW131980   0.867   4.303   5.860  0.7399  0.4765  1.3026
 7017SOL    HW231981   0.996   4.393   5.817 -0.2500  0.6598 -1.4278
 7018SOL     OW31982   3.368   6.010   4.436 -1.0238  0.2056  0.5142
 7018SOL    HW131983   3.287   5.957   4.461 -1.0035  0.5396  1.3174
 7018SOL    HW231984   3.414   6.041   4.520 -1.2707  1.8418  0.0490
 7019SOL     OW31985   8.764   4.654   2.347 -0.7174 -0.1990  0.2213
 7019SOL    HW131986   8.842   4.712   2.323 -0.2562 -0.6665  0.5551
 7019SOL    HW231987   8.746   4.590   2.272 -0.4811 -0.3951  0.3287
 7020SOL     OW31988   0.929   5.354   5.780 -0.5676 -0.3042 -0.2574
 7020SOL    HW131989   0.961   5.416   5.708  1.0697 -0.7811  0.0358
 7020SOL    HW231990   1.002   5.290   5.803 -1.2628 -0.4888  1.4675
 7021SOL     OW31991   4.439   4.264   3.820  0.2652  0.3540 -0.1193
 7021SOL    HW131992   4.468   4.224   3.908  1.3807 -0.8864 -1.0213
 7021SOL    HW231993   4.399   4.354   3.836 -1.6635 -0.8013  1.9104
 7022SOL     OW31994   7.916   3.054   2.873  0.2331  0.3577  0.0035
 7022SOL    HW131995   7.961   3.001   2.801  0.5065 -1.9187  1.7848
 7022SOL    HW231996   7.983   3.114   2.916  0.6595 -0.0796 -0.0335
 7023SOL     OW31997   9.020   0.427   4.328  0.4824  0.0169  0.0995
 7023SOL    HW131998   9.012   0.453   4.424  2.3948 -1.4869  0.7041
 7023SOL    HW231999   9.014   0.328   4.319  1.0222  0.0870 -1.2400
 7024SOL     OW32000   2.152   2.449   2.193  0.2069 -0.0971 -0.4564
 7024SOL    HW132001   2.180   2.466   2.288 -0.8036 -0.1648 -0.1403
 7024SOL    HW232002   2.225   2.478   2.131  0.5224  0.7539  0.3023
 7025SOL     OW32003   7.084   9.602   1.695 -0.4345  0.1885 -0.0911
 7025SOL    HW132004   7.069   9.690   1.740  1.7701  0.2218  0.6237
 7025SOL    HW232005   7.057   9.528   1.757  0.2675  0.2977  0.3475
 7026SOL     OW32006   4.933   0.239   4.743 -0.1909  0.2588 -0.1665
 7026SOL    HW132007   4.861   0.240   4.811 -0.3271  0.0944 -0.3080
 7026SOL    HW232008   4.951   0.144   4.715  2.0622  0.0015  1.9714
 7027SOL     OW32009   7.883   8.985   3.933 -0.0168  0.3369  0.0696
 7027SOL    HW132010   7.981   8.989   3.953 -0.2139 -2.0243  1.7296
 7027SOL    HW232011   7.849   9.077   3.915  2.3562  1.2764  0.1887
 7028SOL     OW32012   4.237   8.263   3.176  0.4145  0.5893 -0.0434
 7028SOL    HW132013   4.266   8.177   3.134  0.4105 -0.8135  2.7786
 7028SOL    HW232014   4.241   8.336   3.107 -0.1275 -1.7353 -2.6214
 7029SOL     OW32015   1.702   9.642   1.960  0.1039 -0.2145 -0.4390
 7029SOL    HW132016   1.680   9.659   2.056 -1.7533  0.7839 -1.0090
 7029SOL    HW232017   1.800   9.651   1.946  0.1358  1.9324  0.9412
 7030SOL     OW32018   0.206   8.878   1.994  0.1794 -0.2128  0.5524
 7030SOL    HW132019   0.151   8.822   2.056 -0.5810 -0.7558 -0.5779
 7030SOL    HW232020   0.147   8.947   1.951  0.6220 -0.0652  0.1823
 7031SOL     OW32021   4.366   2.280   3.570 -0.2742 -0.6831  0.0618
 7031SOL    HW132022   4.267   2.269   3.574 -0.2712 -0.2739  1.2950
 7031SOL    HW232023   4.399   2.319   3.656  0.8240  0.2710 -0.7837
 7032SOL     OW32024   5.132   4.392   3.742  0.0433  0.3180 -0.2158
 7032SOL    HW132025   5.115   4.311   3.686 -0.6432 -0.4006  1.0029
 7032SOL    HW232026   5.112   4.371   3.838  1.7116  1.3584  0.3858
 7033SOL     OW32027   3.929   1.413   2.878  0.1038 -0.1046  0.1875
 7033SOL    HW132028   3.904   1.317   2.894 -1.7054  0.6033  1.9642
 7033SOL    HW232029   3.872   1.472   2.936  2.3160  1.9625  0.3566
 7034SOL     OW32030   1.917   7.530   4.433  0.9751  0.3881 -0.3097
 7034SOL    HW132031   1.905   7.628   4.424  2.3476  0.4842 -1.1235
 7034SOL    HW232032   1.960   7.493   4.351 -0.0779 -0.9916 -0.2738
 7035SOL     OW32033   8.730   3.059   4.789 -0.0729  0.0554  0.0737
 7035SOL    HW132034   8.767   3.122   4.720  2.1071 -1.8861 -0.6049
 7035SOL    HW232035   8.738   3.100   4.880  0.4984  1.1108 -0.4474
 7036SOL     OW32036   3.407   8.292   2.372 -0.4743  0.1041  0.0065
 7036SOL    HW132037   3.499   8.304   2.335  0.0035  2.0090  1.7226
 7036SOL    HW232038   3.398   8.201   2.412  0.2413 -0.5521 -1.2802
 7037SOL     OW32039   8.851   2.638   3.337  0.4325 -0.1510  0.5429
 7037SOL    HW132040   8.830   2.559   3.280  0.0713 -0.1079  0.6139
 7037SOL    HW232041   8.804   2.630   3.425  1.4579 -0.5012  1.0630
 7038SOL     OW32042   8.191   8.609   4.878  0.3870  0.5416  0.6250
 7038SOL    HW132043   8.272   8.668   4.883 -0.8797  2.4213 -0.3167
 7038SOL    HW232044   8.110   8.665   4.862 -0.7891 -1.5204 -0.9335
 7039SOL     OW32045   5.414   4.956   0.743  0.0267 -0.0775  0.2770
 7039SOL    HW132046   5.389   5.042   0.698  2.2218  1.1290  1.2896
 7039SOL    HW232047   5.499   4.921   0.703 -0.5350 -1.4688  0.2829
 7040SOL     OW32048   8.468   5.565   6.571 -0.8216 -0.2415 -0.0653
 7040SOL    HW132049   8.553   5.618   6.570 -0.4375 -0.8516 -0.2152
 7040SOL    HW232050   8.426   5.572   6.661 -0.8857  0.4905 -0.1508
 7041SOL     OW32051   4.771   1.129   5.117  0.0913  1.0251  0.0803
 7041SOL    HW132052   4.749   1.215   5.071 -1.4238  0.6962  0.1427
 7041SOL    HW232053   4.686   1.083   5.143  0.8351 -1.0814 -1.0501
 7042SOL     OW32054   1.481   1.418   3.631 -0.6612  0.0326 -0.3973
 7042SOL    HW132055   1.508   1.395   3.724 -1.0950  1.7446  0.1692
 7042SOL    HW232056   1.553   1.470   3.587 -1.1406  0.6484 -0.4558
 7043SOL     OW32057   1.858   4.896   1.084 -0.7835 -0.1684  0.8109
 7043SOL    HW132058   1.938   4.856   1.039 -1.0909 -1.7362  1.6438
 7043SOL    HW232059   1.880   4.914   1.180 -0.8648  1.0667  0.6100
 7044SOL     OW32060   9.623   6.512   1.493 -0.1628 -0.4649  0.1014
 7044SOL    HW132061   9.594   6.490   1.400  1.0002 -0.6728 -0.2205
 7044SOL    HW232062   9.543   6.514   1.553 -0.9635  0.0029 -0.9587
 7045SOL     OW32063   8.551   0.342   1.810  0.6030 -0.2997 -0.3042
 7045SOL    HW132064   8.505   0.285   1.878  0.7275  0.9250  0.8315
 7045SOL    HW232065   8.526   0.438   1.825  2.2008  0.1979 -0.7303
 7046SOL     OW32066   6.045   4.152   0.596  0.3028 -0.4453  0.0558
 7046SOL    HW132067   5.990   4.236   0.600 -0.0551 -0.6472 -0.5490
 7046SOL    HW232068   6.139   4.173   0.623 -0.4806 -0.4575  2.9680
 7047SOL     OW32069   4.653   6.819   2.190  0.2082 -0.3758 -0.0510
 7047SOL    HW132070   4.586   6.763   2.142  0.3851 -0.6166 -0.0151
 7047SOL    HW232071   4.697   6.881   2.125  0.4941 -0.7450 -0.2085
 7048SOL     OW32072   0.525   8.816   4.901  0.3278 -0.5695 -0.4842
 7048SOL    HW132073   0.526   8.798   4.802  2.8138 -2.4569 -0.1533
 7048SOL    HW232074   0.585   8.894   4.921  1.6655 -1.6475 -0.2309
 7049SOL     OW32075   8.548   7.437   0.613 -0.5197 -0.3224  0.1502
 7049SOL    HW132076   8.463   7.474   0.577  0.0406  1.3735  0.5548
 7049SOL    HW232077   8.538   7.338   0.625 -2.5601 -0.1032  0.5190
 7050SOL     OW32078   9.256   8.277   3.346  0.0344  0.3617  0.0145
 7050SOL    HW132079   9.264   8.271   3.446  2.6493 -0.7329 -0.2079
 7050SOL    HW232080   9.325   8.218   3.304 -2.1767 -0.5412 -2.4656
 7051SOL     OW32081   4.250   4.447   0.840 -0.4523 -0.2267  0.6943
 7051SOL    HW132082   4.167   4.486   0.800 -0.5059 -1.2357 -0.2351
 7051SOL    HW232083   4.230   4.355   0.874 -0.1087  0.1676  1.9884
 7052SOL     OW32084   7.032   1.221   0.138 -0.2511  0.1986  0.7852
 7052SOL    HW132085   6.989   1.254   0.222  0.3265 -1.5411  1.7887
 7052SOL    HW232086   6.962   1.204   0.069 -0.8964  0.0273  1.4785
 7053SOL     OW32087   9.550   5.067   0.112 -0.7482  0.2149  0.0488
 7053SOL    HW132088   9.586   5.125   0.039  0.1541 -0.8394 -0.3635
 7053SOL    HW232089   9.461   5.031   0.085 -1.4515  1.6399  0.4360
 7054SOL     OW32090   8.224   6.272   3.270 -0.1148 -0.1778  0.2314
 7054SOL    HW132091   8.131   6.305   3.254 -0.8316 -2.1814  0.1225
 7054SOL    HW232092   8.223   6.202   3.341  1.6437  1.3729  1.8740
 7055SOL     OW32093   5.584   3.987   1.518  0.2926  0.3005 -0.3035
 7055SOL    HW132094   5.656   3.992   1.586 -0.5042 -0.9072  0.6388
 7055SOL    HW232095   5.575   3.893   1.484 -1.2887  0.2874  0.0987
 7056SOL     OW32096   0.688   3.818   4.503  0.3120 -0.4634  0.4517
 7056SOL    HW132097   0.717   3.891   4.441  0.2003  0.1716  1.1483
 7056SOL    HW232098   0.671   3.734   4.450  2.1777 -0.5041 -0.1205
 7057SOL     OW32099   8.081   7.862   3.545 -0.0529  0.3486  0.0679
 7057SOL    HW132100   8.049   7.854   3.451 -1.0998 -2.0259  0.5736
 7057SOL    HW232101   8.025   7.929   3.594  0.0916  1.1225 -0.8284
 7058SOL     OW32102   5.978   8.600   5.045 -0.4073 -0.8197  0.2867
 7058SOL    HW132103   6.065   8.558   5.069  0.2657  0.0228 -0.6260
 7058SOL    HW232104   5.930   8.541   4.980 -1.0929 -1.8861  1.7520
 7059SOL     OW32105   3.587   3.566   3.580 -0.8338  0.5974 -0.1474
 7059SOL    HW132106   3.676   3.595   3.546 -1.1407  1.7387  0.0134
 7059SOL    HW232107   3.598   3.511   3.663 -0.2020 -0.4955 -0.9434
 7060SOL     OW32108   0.461   3.172   3.824  0.1644  0.0104  0.2211
 7060SOL    HW132109   0.440   3.255   3.876 -2.5995  0.4562 -1.4913
 7060SOL    HW232110   0.377   3.122   3.807  1.3332 -1.2727 -1.9103
 7061SOL     OW32111   4.373   4.937   1.193  0.2157 -0.0073 -0.1167
 7061SOL    HW132112   4.298   4.879   1.160 -0.6276  1.2983 -0.5045
 7061SOL    HW232113   4.370   5.026   1.148  0.8661  0.7330  1.2513
 7062SOL     OW32114   4.447   2.193   3.072 -0.6302 -0.0381 -0.2417
 7062SOL    HW132115   4.457   2.106   3.120 -1.1911 -0.2917 -0.5826
 7062SOL    HW232116   4.492   2.265   3.125  2.3458 -1.0026 -1.3451
 7063SOL     OW32117   8.429   5.659   4.500 -0.3855  0.0090 -0.6033
 7063SOL    HW132118   8.500   5.633   4.566 -0.6590  0.2708 -0.2053
 7063SOL    HW232119   8.398   5.752   4.519 -0.2371  0.2018 -1.3043
 7064SOL     OW32120   2.094   5.887   1.047  0.1431  0.1269 -0.1239
 7064SOL    HW132121   2.065   5.981   1.031  1.0534  0.4381  0.0288
 7064SOL    HW232122   2.184   5.872   1.007  1.0741  0.0322  1.9165
 7065SOL     OW32123   1.377   7.907   3.321 -0.2179 -0.3698 -0.4264
 7065SOL    HW132124   1.378   8.002   3.291 -2.3169 -0.0264  0.5472
 7065SOL    HW232125   1.367   7.903   3.420 -1.5327 -1.6210 -0.5934
 7066SOL     OW32126   2.816   5.428   4.683 -0.2313  0.6132 -0.4350
 7066SOL    HW132127   2.828   5.381   4.595 -0.4327  0.0250 -0.1525
 7066SOL    HW232128   2.818   5.360   4.757 -1.3188  0.9530 -0.0837
 7067SOL     OW32129   1.383   4.335   2.980 -0.5803  0.1660 -0.3787
 7067SOL    HW132130   1.348   4.247   2.947 -0.9610  0.2830 -0.2841
 7067SOL    HW232131   1.413   4.325   3.075  0.4559 -0.1545 -0.7380
 7068SOL     OW32132   3.530   6.927   1.978  0.2658  0.0192 -0.2348
 7068SOL    HW132133   3.430   6.934   1.982  0.3125  0.0081  1.9004
 7068SOL    HW232134   3.563   6.884   2.062  2.0999  0.3320 -0.7765
 7069SOL     OW32135   6.742   7.279   4.893 -0.2232  0.1812  0.1716
 7069SOL    HW132136   6.769   7.184   4.908  0.4130  0.1713 -0.9658
 7069SOL    HW232137   6.723   7.323   4.980 -0.9058 -1.1074  0.6755
 7070SOL     OW32138   0.286   7.383   1.823 -0.0903  0.6193 -0.4613
 7070SOL    HW132139   0.377   7.404   1.787  0.8516 -0.1728  1.3831
 7070SOL    HW232140   0.267   7.286   1.808  0.2815  0.3003  1.0861
 7071SOL     OW32141   7.276   3.970   1.115  0.4926 -0.7081  0.2765
 7071SOL    HW132142   7.370   3.960   1.148  0.3982 -1.0732  0.4421
 7071SOL    HW232143   7.214   3.919   1.176 -0.1740  2.0833  2.0004
 7072SOL     OW32144   9.396   4.285   0.877  0.3375 -0.1374 -0.5340
 7072SOL    HW132145   9.404   4.218   0.950  0.5988  0.0179 -0.4184
 7072SOL    HW232146   9.384   4.239   0.790  1.1342 -0.3521 -0.5353
 7073SOL     OW32147   9.292   6.975   0.918  0.2022 -0.2315 -0.0275
 7073SOL    HW132148   9.283   7.074   0.910 -2.5480 -0.4531 -0.0206
 7073SOL    HW232149   9.366   6.944   0.858 -0.1103  1.6313 -1.4393
 7074SOL     OW32150   7.540   0.921   3.522 -1.0397  0.4522  0.2207
 7074SOL    HW132151   7.566   1.017   3.511 -1.6533  0.6169  0.1681
 7074SOL    HW232152   7.527   0.880   3.432 -0.1571  0.1498  0.2367
 7075SOL     OW32153   7.460   9.818   4.096 -0.2211 -0.1297  0.2834
 7075SOL    HW132154   7.512   9.869   4.027 -1.6640  1.0129  0.0373
 7075SOL    HW232155   7.479   9.720   4.084  0.5532  0.1430 -0.9053
 7076SOL     OW32156   4.115   5.900   1.578 -0.1753  0.6963  0.2602
 7076SOL    HW132157   4.176   5.829   1.613  1.7577  2.7835  1.3100
 7076SOL    HW232158   4.082   5.955   1.655  0.0496  2.2043 -0.6969
 7077SOL     OW32159   3.532   2.751   2.993 -0.1363 -0.0076  0.1466
 7077SOL    HW132160   3.463   2.693   2.951 -0.6181 -0.2995  1.3338
 7077SOL    HW232161   3.562   2.820   2.927  1.0446 -2.0950 -1.5627
 7078SOL     OW32162   0.081   9.719   1.341  0.0661 -0.1512  0.4980
 7078SOL    HW132163   0.157   9.759   1.393  0.4535 -0.9014  0.5113
 7078SOL    HW232164   0.013   9.681   1.404  0.3058 -0.6354  0.4667
 7079SOL     OW32165   0.620   2.689   6.626  0.4452 -0.1651  0.9423
 7079SOL    HW132166   0.558   2.692   6.548  1.0121 -0.5637  0.4656
 7079SOL    HW232167   0.574   2.646   6.704  0.5123 -1.6137  0.2118
 7080SOL     OW32168   4.132   2.281   3.688 -0.0232 -0.2481  0.4407
 7080SOL    HW132169   4.058   2.232   3.642  2.1817 -2.4631 -0.8661
 7080SOL    HW232170   4.127   2.266   3.786 -1.2572 -0.4132  0.3583
 7081SOL     OW32171   2.888   4.573   0.049 -0.5151  0.5462 -0.5932
 7081SOL    HW132172   2.807   4.632   0.058  0.3547  1.7333 -0.5016
 7081SOL    HW232173   2.961   4.608   0.108 -0.1410 -0.8995 -0.1834
 7082SOL     OW32174   9.697   8.259   4.414  0.0642 -0.2869 -0.0446
 7082SOL    HW132175   9.782   8.309   4.396 -0.4949 -0.5450 -3.6887
 7082SOL    HW232176   9.713   8.161   4.406 -0.5446 -0.3381 -0.7297
 7083SOL     OW32177   5.680   0.223   1.270 -0.5911 -0.0766  1.2499
 7083SOL    HW132178   5.666   0.200   1.366  0.0349 -1.9481  0.9034
 7083SOL    HW232179   5.591   0.225   1.223 -0.6563 -1.8843  1.2723
 7084SOL     OW32180   6.438   1.568   1.175  0.6331 -0.0132 -0.6112
 7084SOL    HW132181   6.391   1.541   1.091 -0.1972 -1.6670  0.3558
 7084SOL    HW232182   6.372   1.612   1.236  0.0724 -3.0745  1.0884
 7085SOL     OW32183   8.110   7.959   5.096 -0.0642 -0.5375  0.0073
 7085SOL    HW132184   8.191   7.969   5.039 -1.1319  0.8911 -1.3048
 7085SOL    HW232185   8.100   8.039   5.156 -1.7173  0.3892 -1.4605
 7086SOL     OW32186   2.073   9.191   2.669  0.2060  0.1008 -1.0098
 7086SOL    HW132187   2.076   9.273   2.612  1.4173  1.4478  0.9428
 7086SOL    HW232188   1.978   9.170   2.691 -0.3409 -0.7963 -3.9625
 7087SOL     OW32189   1.704   9.089   3.819 -0.2985 -0.4664  0.6222
 7087SOL    HW132190   1.754   9.009   3.784 -0.0816 -0.9147  1.8928
 7087SOL    HW232191   1.608   9.065   3.833 -0.4420 -0.2087  0.0740
 7088SOL     OW32192   5.306   8.339   1.626  0.2578  0.4509 -0.0054
 7088SOL    HW132193   5.343   8.313   1.715  0.7471  0.9737 -0.0492
 7088SOL    HW232194   5.212   8.306   1.617  0.8462 -1.2870 -0.0531
 7089SOL     OW32195   0.796   2.988   0.539 -1.0342 -0.4145  0.3449
 7089SOL    HW132196   0.737   3.069   0.537 -1.8072 -0.9919 -0.5494
 7089SOL    HW232197   0.883   3.010   0.495 -0.8477  0.2203  1.0088
 7090SOL     OW32198   6.351   8.400   2.571 -0.3410 -0.0470  0.9230
 7090SOL    HW132199   6.287   8.443   2.635 -1.3070 -0.8739  0.5257
 7090SOL    HW232200   6.384   8.468   2.506 -0.4467  0.4924  1.4258
 7091SOL     OW32201   3.117   8.595   1.600 -0.5578  0.0940  0.0179
 7091SOL    HW132202   3.020   8.620   1.595 -0.1679  1.7880  0.7684
 7091SOL    HW232203   3.172   8.676   1.619  1.2534 -0.4193 -2.6329
 7092SOL     OW32204   9.235   1.899   5.004  0.3685  0.1884  0.0732
 7092SOL    HW132205   9.142   1.864   4.997  0.3632  0.2063  0.0467
 7092SOL    HW232206   9.236   1.996   4.980  0.5039  0.0228 -0.5801
 7093SOL     OW32207   8.597   5.108   0.504  0.4052 -0.3134  0.0343
 7093SOL    HW132208   8.659   5.175   0.464 -0.6096  0.1447 -0.8083
 7093SOL    HW232209   8.574   5.039   0.435  2.7301 -2.5009  1.3612
 7094SOL     OW32210   1.559   5.489   1.870  0.2328  0.0210  0.3306
 7094SOL    HW132211   1.569   5.401   1.825  0.3928  0.1155  0.1826
 7094SOL    HW232212   1.614   5.558   1.822  1.4891 -0.1654  1.4609
 7095SOL     OW32213   1.516   2.000   1.526  0.2110 -0.3291 -0.4730
 7095SOL    HW132214   1.460   1.926   1.563 -1.6703  0.4119 -1.7486
 7095SOL    HW232215   1.515   1.996   1.426 -0.1551  1.5812 -0.5633
 7096SOL     OW32216   4.290   3.515   4.471 -0.1800  0.6342 -0.1749
 7096SOL    HW132217   4.263   3.561   4.556  2.1861 -0.4998  1.2397
 7096SOL    HW232218   4.308   3.584   4.400  3.8432  2.0705  2.0717
 7097SOL     OW32219   9.013   5.550   2.586 -0.6316 -0.6495  0.1336
 7097SOL    HW132220   8.995   5.554   2.685 -0.3424 -2.2351  0.2507
 7097SOL    HW232221   9.074   5.626   2.561  0.8894 -1.3808  1.5047
 7098SOL     OW32222   3.345   7.488   1.826  0.3835 -0.2107  0.3764
 7098SOL    HW132223   3.421   7.425   1.844 -0.6858 -0.7125  3.3759
 7098SOL    HW232224   3.259   7.438   1.823 -0.0751  0.6279 -0.9232
 7099SOL     OW32225   9.685   5.148   1.581  0.1678  0.0647  0.3412
 7099SOL    HW132226   9.637   5.203   1.513 -0.4864  0.1821  0.8924
 7099SOL    HW232227   9.780   5.136   1.553 -0.1066  0.0829 -0.6057
 7100SOL     OW32228   4.782   6.853   3.917  0.0213 -0.5032 -0.5056
 7100SOL    HW132229   4.824   6.769   3.882 -2.5219 -1.0710 -2.2822
 7100SOL    HW232230   4.690   6.862   3.881 -0.7321  1.7079  1.8204
 7101SOL     OW32231   0.870   2.348   4.421  1.2104 -0.0476  0.3054
 7101SOL    HW132232   0.858   2.249   4.406  1.6190 -0.4447  2.3682
 7101SOL    HW232233   0.961   2.365   4.457  1.0843  1.0697  0.0909
 7102SOL     OW32234   9.048   9.199   3.230  0.2860 -0.4937 -0.0574
 7102SOL    HW132235   9.014   9.116   3.186 -0.1505  0.4224 -1.5105
 7102SOL    HW232236   9.067   9.268   3.160  2.7662 -0.1208  0.9277
 7103SOL     OW32237   5.128   3.847   2.336 -0.3531  0.1212  0.4467
 7103SOL    HW132238   5.203   3.815   2.277 -1.3435 -1.0036 -0.2221
 7103SOL    HW232239   5.107   3.776   2.403 -2.0585 -0.3407 -0.5538
 7104SOL     OW32240   3.433   2.469   4.641 -0.0903  0.5572  0.2869
 7104SOL    HW132241   3.449   2.565   4.665 -0.0214  0.9029 -1.0721
 7104SOL    HW232242   3.517   2.417   4.657  0.0888  0.8678  0.3675
 7105SOL     OW32243   2.124   7.498   6.002 -0.4797  0.6798 -0.3153
 7105SOL    HW132244   2.221   7.519   6.019 -0.3447  0.6487 -1.0372
 7105SOL    HW232245   2.073   7.508   6.087  0.2683  0.0912  0.2191
 7106SOL     OW32246   1.107   9.136   2.126  0.0782  0.1931 -0.3396
 7106SOL    HW132247   1.040   9.064   2.141  0.6145 -0.7333 -2.2517
 7106SOL    HW232248   1.195   9.095   2.102 -0.4879  1.5090 -5.0360
 7107SOL     OW32249   0.696   6.104   3.410 -0.1390 -0.5231  0.4441
 7107SOL    HW132250   0.748   6.065   3.334  0.5424 -1.7157  1.5186
 7107SOL    HW232251   0.734   6.072   3.497 -1.7361 -0.2283  1.2652
 7108SOL     OW32252   7.992   2.486   4.935  0.3845  0.1589  0.4606
 7108SOL    HW132253   8.014   2.389   4.944  1.3388  0.2241 -0.8847
 7108SOL    HW232254   8.049   2.526   4.862 -3.5556  0.5969 -2.5207
 7109SOL     OW32255   7.025   9.637   4.454  0.2086  0.6951 -0.2275
 7109SOL    HW132256   7.073   9.555   4.421 -0.8186  0.2500 -0.6292
 7109SOL    HW232257   6.942   9.650   4.401  0.3556  2.0021 -0.1475
 7110SOL     OW32258   4.993   8.657   2.468  0.1638 -0.3307  0.2176
 7110SOL    HW132259   4.910   8.713   2.467  0.8106  0.6122 -0.4918
 7110SOL    HW232260   5.052   8.685   2.544  0.5328  0.0328 -0.1975
 7111SOL     OW32261   4.592   3.615   4.920 -0.0322  0.0744  0.1275
 7111SOL    HW132262   4.582   3.603   4.821 -0.0596 -1.2629  0.2784
 7111SOL    HW232263   4.561   3.532   4.967  2.6332 -0.4014  1.1141
 7112SOL     OW32264   0.787   5.824   1.750  0.8669  0.1735  0.0311
 7112SOL    HW132265   0.731   5.900   1.719  1.2274  0.0603 -0.9282
 7112SOL    HW232266   0.779   5.814   1.849 -0.7199  0.2196 -0.0834
 7113SOL     OW32267   0.022   7.203   0.680 -0.5256  0.0675 -0.1627
 7113SOL    HW132268  -0.025   7.236   0.598 -1.1731 -0.4094  0.0084
 7113SOL    HW232269   0.047   7.107   0.667 -1.4240 -0.2702  0.5328
 7114SOL     OW32270   3.514   4.394   1.141 -0.3728  0.8512  0.2711
 7114SOL    HW132271   3.439   4.330   1.125  0.4348 -0.2826  0.9623
 7114SOL    HW232272   3.564   4.409   1.056 -1.4174  1.6909 -0.2191
 7115SOL     OW32273   5.683   1.941   3.987  0.2092  0.1748  0.1353
 7115SOL    HW132274   5.593   1.970   3.956 -0.2061  0.3072  1.4455
 7115SOL    HW232275   5.694   1.963   4.083  1.0425 -1.2486  0.3823
 7116SOL     OW32276   2.006   3.543   5.273 -0.4074 -0.7522 -0.1769
 7116SOL    HW132277   2.066   3.622   5.266 -0.9935 -0.2869 -0.0266
 7116SOL    HW232278   2.058   3.459   5.254 -0.5539 -0.0703 -4.1753
 7117SOL     OW32279   9.195   3.335   3.204  0.0883  0.4323 -0.3747
 7117SOL    HW132280   9.132   3.412   3.214  0.5153  0.5829  1.4341
 7117SOL    HW232281   9.226   3.306   3.295 -2.1137 -3.5849 -0.7823
 7118SOL     OW32282   6.018   1.011   0.763  0.2729  0.0591  0.0371
 7118SOL    HW132283   6.115   0.997   0.744 -0.0309 -0.6621 -0.9587
 7118SOL    HW232284   5.990   0.954   0.840  0.8325  0.8975  0.8726
 7119SOL     OW32285   4.431   2.517   5.061  0.3676 -0.5565 -0.0190
 7119SOL    HW132286   4.469   2.550   5.148  1.4513 -1.1878 -0.2508
 7119SOL    HW232287   4.483   2.438   5.029  0.0059 -0.2977 -1.2830
 7120SOL     OW32288   2.301   1.620   4.147 -0.3371 -0.6601  0.1842
 7120SOL    HW132289   2.332   1.525   4.137  0.5419 -0.2508 -0.9930
 7120SOL    HW232290   2.372   1.673   4.193 -0.6263 -0.4495  0.3888
 7121SOL     OW32291   9.711   3.955   1.587  0.4599 -0.0993 -0.2996
 7121SOL    HW132292   9.661   4.017   1.528 -2.1346  0.0843  2.0095
 7121SOL    HW232293   9.659   3.870   1.598 -0.3356  0.8210  3.6179
 7122SOL     OW32294   6.080   9.625   4.975  0.1184 -0.1460  0.1952
 7122SOL    HW132295   6.153   9.605   5.041  1.8480 -0.6769 -1.8387
 7122SOL    HW232296   6.038   9.539   4.944  1.5722 -0.1220 -1.8938
 7123SOL     OW32297   0.317   0.497   1.697  0.2545  0.1349 -0.8464
 7123SOL    HW132298   0.275   0.446   1.772 -0.5708  1.6609 -0.2380
 7123SOL    HW232299   0.411   0.522   1.722  0.1849  0.1205 -0.5729
 7124SOL     OW32300   6.650   9.218   5.838  0.6077 -0.1566  0.0456
 7124SOL    HW132301   6.705   9.144   5.877 -0.9444 -0.9041  0.8419
 7124SOL    HW232302   6.613   9.190   5.750  1.7779  0.4822 -0.6644
 7125SOL     OW32303   9.577   3.924   2.434  0.3195 -0.1839  0.6369
 7125SOL    HW132304   9.605   3.987   2.362  0.5729  1.3431  2.0406
 7125SOL    HW232305   9.509   3.968   2.492 -1.3027 -2.0799  0.2333
 7126SOL     OW32306   8.272   6.694   1.069  0.0924  0.1647  0.4635
 7126SOL    HW132307   8.327   6.776   1.083  1.8516 -0.6719 -1.2009
 7126SOL    HW232308   8.203   6.711   0.998  1.5467 -0.2379 -1.0927
 7127SOL     OW32309   4.264   2.454   2.102 -0.2498  0.0159 -0.6058
 7127SOL    HW132310   4.347   2.399   2.110 -1.0663 -1.3636 -1.4154
 7127SOL    HW232311   4.285   2.541   2.058  1.2836  0.9068  1.7587
 7128SOL     OW32312   2.777   5.576   6.244 -0.1902 -0.1041  0.2994
 7128SOL    HW132313   2.841   5.652   6.241  1.5229 -1.5356 -0.4529
 7128SOL    HW232314   2.767   5.544   6.338 -0.5151  0.7134  0.5433
 7129SOL     OW32315   8.011   2.823   0.031 -0.3248  0.3664 -0.0218
 7129SOL    HW132316   7.973   2.742  -0.015  1.9507 -0.7516  0.0130
 7129SOL    HW232317   7.955   2.903   0.008 -1.6829 -0.9188 -1.3368
 7130SOL     OW32318   2.526   8.267   5.221 -0.1346  0.5941  0.5558
 7130SOL    HW132319   2.508   8.202   5.295 -0.2106  0.0954  0.0989
 7130SOL    HW232320   2.450   8.332   5.215 -0.5404  0.1001  0.3435
 7131SOL     OW32321   0.432   7.315   4.315 -0.1004 -0.0699 -0.3346
 7131SOL    HW132322   0.491   7.372   4.372 -0.9712 -0.8999  1.4450
 7131SOL    HW232323   0.424   7.356   4.224  1.7071  1.0254 -0.0359
 7132SOL     OW32324   7.799   2.285   2.923 -0.3911 -0.1443  0.1789
 7132SOL    HW132325   7.842   2.221   2.987  2.2582  1.8402  0.4289
 7132SOL    HW232326   7.854   2.293   2.840 -1.3739  0.8644 -0.3977
 7133SOL     OW32327   8.350   1.177   4.305  0.0153  0.1858  0.4826
 7133SOL    HW132328   8.285   1.250   4.328  0.6032  0.8923 -0.0831
 7133SOL    HW232329   8.422   1.214   4.247 -0.1034 -1.0385 -0.4545
 7134SOL     OW32330   0.859   5.752   1.076 -0.3124 -0.2366  0.0588
 7134SOL    HW132331   0.766   5.758   1.040  0.1725  0.0491 -1.2107
 7134SOL    HW232332   0.917   5.707   1.008  0.0163 -2.5238  1.7706
 7135SOL     OW32333   8.795   3.409   2.163  0.1114  0.3206  0.6360
 7135SOL    HW132334   8.736   3.339   2.123 -0.3654 -0.1555  2.1457
 7135SOL    HW232335   8.871   3.429   2.101 -0.9797  0.0740 -0.7845
 7136SOL     OW32336   6.444   1.268   5.300 -0.7186  0.1009  0.2924
 7136SOL    HW132337   6.467   1.175   5.330  0.3470 -0.1533 -1.2203
 7136SOL    HW232338   6.506   1.333   5.344 -1.5271  0.1157  1.4279
 7137SOL     OW32339   8.998   6.334   3.126  0.4574  1.2457 -0.4559
 7137SOL    HW132340   8.917   6.393   3.135 -0.7105 -0.4822  0.7413
 7137SOL    HW232341   9.045   6.330   3.214 -0.1581 -0.5465 -0.1908
 7138SOL     OW32342   7.487   4.798   0.598  0.0312 -0.0734  0.3617
 7138SOL    HW132343   7.497   4.884   0.548  1.1054 -0.4414 -0.0862
 7138SOL    HW232344   7.461   4.725   0.534  1.4032 -0.5437  0.3061
 7139SOL     OW32345   9.412   6.650   4.529  0.0131  0.1546 -0.1994
 7139SOL    HW132346   9.440   6.579   4.465  0.2004 -0.5536  0.6535
 7139SOL    HW232347   9.374   6.727   4.479 -0.3618 -0.6264 -1.1283
 7140SOL     OW32348   0.414   0.696   3.886  0.3011  0.4810 -0.2300
 7140SOL    HW132349   0.437   0.648   3.970 -2.9443 -2.1661 -0.7406
 7140SOL    HW232350   0.370   0.783   3.908  0.2247  0.1885  0.7961
 7141SOL     OW32351   2.497   7.124   2.582 -0.2539  0.1149 -0.4381
 7141SOL    HW132352   2.584   7.105   2.626 -0.7864  0.4710  0.7895
 7141SOL    HW232353   2.422   7.095   2.641 -0.9978  1.6798 -0.5623
 7142SOL     OW32354   4.672   2.656   0.810  0.1938  0.2685 -0.2646
 7142SOL    HW132355   4.602   2.623   0.874  1.1420 -0.9436  0.1624
 7142SOL    HW232356   4.708   2.743   0.842  1.2504 -0.7280  1.3237
 7143SOL     OW32357   1.886   2.980   5.167 -0.1234 -0.2931  0.2772
 7143SOL    HW132358   1.875   2.926   5.083  0.8932  0.0457 -0.0742
 7143SOL    HW232359   1.976   2.962   5.206 -0.7925 -0.8364  1.5792
 7144SOL     OW32360   8.349   7.537   3.841 -0.3895  0.1380  0.1068
 7144SOL    HW132361   8.281   7.495   3.780  0.5772  0.8105 -1.4789
 7144SOL    HW232362   8.303   7.572   3.923 -1.9630  0.6103 -0.9410
 7145SOL     OW32363   8.734   0.573   0.513 -0.0826 -0.4238  0.7056
 7145SOL    HW132364   8.671   0.571   0.435 -0.6672  2.4348  1.0647
 7145SOL    HW232365   8.684   0.553   0.597  0.2102 -1.7439  0.5799
 7146SOL     OW32366   7.911   7.443   3.440  0.5372 -0.1085 -0.2362
 7146SOL    HW132367   7.821   7.405   3.418  0.4494 -0.8624  1.3789
 7146SOL    HW232368   7.900   7.525   3.496  0.8629 -0.3770  0.2240
 7147SOL     OW32369   7.188   1.262   1.280  0.4587 -0.0628  0.0612
 7147SOL    HW132370   7.254   1.337   1.290  1.1872 -0.6295 -0.4786
 7147SOL    HW232371   7.236   1.175   1.275 -0.3253 -0.4784 -0.4043
 7148SOL     OW32372   2.525   7.561   2.668 -0.3054  0.0139  0.4347
 7148SOL    HW132373   2.554   7.610   2.586  0.4218  2.5626  2.1692
 7148SOL    HW232374   2.606   7.527   2.717 -0.7390 -1.5971  0.0644
 7149SOL     OW32375   2.690   0.245   2.028  0.1513  0.3188 -0.0498
 7149SOL    HW132376   2.612   0.306   2.013  0.4586  1.1762  1.6806
 7149SOL    HW232377   2.675   0.190   2.110  0.7837 -0.4619 -0.4481
 7150SOL     OW32378   9.256   4.142   6.154  0.5794 -0.4861 -0.5805
 7150SOL    HW132379   9.316   4.141   6.073  1.4526  0.2520  0.0429
 7150SOL    HW232380   9.240   4.237   6.182 -1.2070 -0.6618 -0.9666
 7151SOL     OW32381   3.727   1.870   3.889 -0.5348 -0.4775  0.5706
 7151SOL    HW132382   3.767   1.960   3.874 -0.1619 -0.3880  2.0752
 7151SOL    HW232383   3.631   1.870   3.859 -0.4642  0.3282  0.3433
 7152SOL     OW32384   5.130   7.481   2.172  0.2559  0.7550  0.3323
 7152SOL    HW132385   5.043   7.529   2.163  0.5342  1.2107  0.0429
 7152SOL    HW232386   5.115   7.392   2.216 -0.1520  1.4715  1.6648
 7153SOL     OW32387   8.394   0.308   1.575 -0.1901 -0.5257  0.6913
 7153SOL    HW132388   8.436   0.352   1.654 -0.5160 -0.6410  0.9324
 7153SOL    HW232389   8.460   0.302   1.501  0.2067 -0.6789  1.0544
 7154SOL     OW32390   3.420   1.592   4.231 -0.8119  0.8209 -0.0529
 7154SOL    HW132391   3.478   1.523   4.275 -0.6268 -0.9024 -2.8308
 7154SOL    HW232392   3.477   1.668   4.200 -0.8140  1.5917  1.7662
 7155SOL     OW32393   3.486   0.040   1.352 -0.1703  0.3412  0.7073
 7155SOL    HW132394   3.571   0.009   1.396  0.6736 -0.1650 -1.2327
 7155SOL    HW232395   3.450   0.119   1.402  0.8155 -0.1366  2.2270
 7156SOL     OW32396   9.324   9.686   3.326  0.4678 -0.0913  0.0923
 7156SOL    HW132397   9.242   9.632   3.305 -0.6321  1.0805  1.2879
 7156SOL    HW232398   9.357   9.662   3.418 -0.5376  1.8504  0.9873
 7157SOL     OW32399   4.757   3.598   2.729  0.6296 -0.1156  0.7851
 7157SOL    HW132400   4.705   3.525   2.684  2.1331 -0.6980 -0.0292
 7157SOL    HW232401   4.712   3.621   2.816  0.1968 -2.1021  1.1344
 7158SOL     OW32402   0.367   0.871   3.388  0.3470 -0.4042 -0.2542
 7158SOL    HW132403   0.297   0.868   3.316 -0.1085  0.0967  0.1614
 7158SOL    HW232404   0.451   0.912   3.352 -0.8005  2.5273  0.2606
 7159SOL     OW32405   2.821   6.941   1.944  0.3411 -0.3863  0.1727
 7159SOL    HW132406   2.880   6.914   1.867  0.6492 -0.5873  0.4799
 7159SOL    HW232407   2.780   7.030   1.924  0.5881 -0.3381 -0.1327
 7160SOL     OW32408   2.135   8.897   1.563  0.0982  0.4280  0.2639
 7160SOL    HW132409   2.061   8.941   1.614 -1.6875 -1.6202 -0.4666
 7160SOL    HW232410   2.152   8.948   1.479 -1.7361 -0.0291 -0.4193
 7161SOL     OW32411   8.661   6.859   5.965  0.1377 -0.1134  0.1559
 7161SOL    HW132412   8.584   6.823   5.913 -0.7640  1.3092  0.4624
 7161SOL    HW232413   8.704   6.934   5.913  1.1625 -0.7359  0.0938
 7162SOL     OW32414   5.458   0.201   3.640  0.1007 -0.0126  0.0442
 7162SOL    HW132415   5.413   0.250   3.715  1.8113  1.2010  0.2858
 7162SOL    HW232416   5.440   0.103   3.649  1.0287  0.0340  2.5380
 7163SOL     OW32417   1.068   4.124   1.136 -0.2120 -0.3465  0.1983
 7163SOL    HW132418   1.045   4.142   1.040  0.0667 -0.9460  0.0098
 7163SOL    HW232419   1.146   4.181   1.163  1.3981 -2.0304 -0.7314
 7164SOL     OW32420   0.520   4.850   0.150 -0.1749  0.0372  0.0977
 7164SOL    HW132421   0.491   4.880   0.059 -0.4115  1.4256  0.6098
 7164SOL    HW232422   0.558   4.758   0.145 -0.9528 -0.2238 -1.2649
 7165SOL     OW32423   8.503   2.785   2.381  0.0935 -0.1040 -0.1056
 7165SOL    HW132424   8.514   2.839   2.297  2.3467  1.1593  0.9500
 7165SOL    HW232425   8.552   2.830   2.456 -2.7881 -0.6250  2.1727
 7166SOL     OW32426   5.178   0.674   2.887  0.1577  0.7140 -0.1436
 7166SOL    HW132427   5.197   0.586   2.842  0.5861  1.1896 -0.9132
 7166SOL    HW232428   5.081   0.678   2.912  0.2118 -0.1203  0.2223
 7167SOL     OW32429   8.211   8.570   5.296  0.0604 -0.1389  0.4946
 7167SOL    HW132430   8.116   8.547   5.276 -0.2471  1.1012  0.4990
 7167SOL    HW232431   8.270   8.493   5.271 -0.7441 -0.2044 -1.2778
 7168SOL     OW32432   8.431   6.915   1.068  0.4052  0.2200  0.0524
 7168SOL    HW132433   8.515   6.867   1.096  0.1443  1.1295  2.5510
 7168SOL    HW232434   8.420   6.998   1.124 -1.0136  1.2964 -1.7667
 7169SOL     OW32435   7.645   0.962   0.892  0.1313  0.3747 -0.2749
 7169SOL    HW132436   7.604   0.904   0.962  1.0633 -0.5872 -0.5253
 7169SOL    HW232437   7.737   0.990   0.921 -0.2685  1.6545 -0.1967
 7170SOL     OW32438   1.872   7.746   6.141 -0.5428  0.2912  0.4102
 7170SOL    HW132439   1.865   7.728   6.043  2.7981 -1.2482  0.3885
 7170SOL    HW232440   1.787   7.720   6.186 -1.6713 -0.1482 -1.8816
 7171SOL     OW32441   4.639   2.533   1.706 -0.8151  0.6861 -0.0207
 7171SOL    HW132442   4.723   2.532   1.652 -1.9897 -2.5624 -1.8977
 7171SOL    HW232443   4.659   2.503   1.799  0.2153  0.5486 -0.2756
 7172SOL     OW32444   3.736   4.445   0.819 -0.1655  0.7404  0.0387
 7172SOL    HW132445   3.782   4.533   0.822 -0.7040  1.0533 -0.6181
 7172SOL    HW232446   3.784   4.379   0.877  1.2481  0.9817 -0.8437
 7173SOL     OW32447   0.333   3.435   3.908 -0.5886  0.2684  0.6876
 7173SOL    HW132448   0.321   3.468   3.814 -0.0002 -0.6324  0.2914
 7173SOL    HW232449   0.247   3.446   3.958 -1.0475  0.3051 -0.0995
 7174SOL     OW32450   3.837   3.770   2.595 -0.7353 -0.1867 -0.7283
 7174SOL    HW132451   3.877   3.831   2.526 -0.3445  0.5023  0.0839
 7174SOL    HW232452   3.899   3.693   2.612 -0.5910 -0.0837 -0.7857
 7175SOL     OW32453   6.080   7.993   3.887  0.9336 -0.1071 -0.0692
 7175SOL    HW132454   6.090   8.058   3.962 -0.2193  0.3177 -0.2680
 7175SOL    HW232455   6.135   8.024   3.809  1.7510 -0.2953  0.4294
 7176SOL     OW32456   1.536   2.380   2.529  0.3076  0.7126  0.2082
 7176SOL    HW132457   1.583   2.300   2.568  0.4015  1.5481  1.8424
 7176SOL    HW232458   1.440   2.379   2.556 -0.5746 -0.7568 -2.7731
 7177SOL     OW32459   3.681   3.652   4.401 -0.4827 -0.0767  0.6428
 7177SOL    HW132460   3.651   3.690   4.489 -0.3340 -0.0350  0.6751
 7177SOL    HW232461   3.650   3.711   4.327 -1.0659 -0.3901  0.6313
 7178SOL     OW32462   1.104   7.865   0.050 -0.1966 -0.1188 -0.3175
 7178SOL    HW132463   1.122   7.897   0.143  0.2259  1.7041 -1.0072
 7178SOL    HW232464   1.097   7.765   0.050  0.9669 -0.2263  1.4780
 7179SOL     OW32465   9.744   6.875   6.552  0.2945  0.2534  0.1547
 7179SOL    HW132466   9.705   6.863   6.644 -2.4983  0.7094 -0.9330
 7179SOL    HW232467   9.821   6.938   6.557 -1.5965  2.5241  1.7635
 7180SOL     OW32468   6.964   9.824   2.904  0.6725 -0.2931  0.7802
 7180SOL    HW132469   6.909   9.745   2.931  0.7140 -0.1352  1.3325
 7180SOL    HW232470   7.061   9.799   2.907  0.7801  0.2512  2.5742
 7181SOL     OW32471   2.200   9.905   1.268 -0.0722 -0.2230  0.3445
 7181SOL    HW132472   2.135   9.928   1.196  0.6385  0.0903 -0.2033
 7181SOL    HW232473   2.161   9.929   1.357 -0.3651  0.7465 -0.0407
 7182SOL     OW32474   1.601   3.314   4.886  0.2663  0.0844  0.2860
 7182SOL    HW132475   1.573   3.246   4.954 -1.4949  1.3608  0.8812
 7182SOL    HW232476   1.554   3.401   4.905 -0.1786  0.4983 -2.4872
 7183SOL     OW32477   7.502   0.543   3.967 -0.3663 -0.3485  0.5216
 7183SOL    HW132478   7.541   0.451   3.965  0.2869 -0.0506 -2.1366
 7183SOL    HW232479   7.575   0.610   3.957 -0.8769  0.4725  2.1161
 7184SOL     OW32480   2.492   4.795   0.802 -0.3016 -0.2767 -0.4853
 7184SOL    HW132481   2.510   4.712   0.750 -1.7972 -1.5952  1.0464
 7184SOL    HW232482   2.468   4.771   0.897  0.0622  1.9368  0.2025
 7185SOL     OW32483   6.646   7.207   3.588 -0.3956  0.5035 -0.0579
 7185SOL    HW132484   6.668   7.132   3.526  2.2279  0.1688  1.2293
 7185SOL    HW232485   6.636   7.172   3.681  1.3947  1.8163  0.6438
 7186SOL     OW32486   1.409   4.995   3.394 -0.1906  0.6074 -0.0617
 7186SOL    HW132487   1.391   5.045   3.309 -2.2101 -0.7560 -0.4695
 7186SOL    HW232488   1.328   4.941   3.418  0.9955 -0.3665  1.8053
 7187SOL     OW32489   7.424   1.054   6.308 -0.2721  0.0452 -0.1511
 7187SOL    HW132490   7.444   0.978   6.246 -0.8649  1.1273 -1.7226
 7187SOL    HW232491   7.509   1.089   6.347  0.2834  0.2568 -1.4979
 7188SOL     OW32492   7.373   2.599   1.159  0.2293 -0.4851 -0.0301
 7188SOL    HW132493   7.311   2.542   1.211  0.3789 -0.2435  0.4129
 7188SOL    HW232494   7.448   2.629   1.218 -1.3794  2.5717  0.5511
 7189SOL     OW32495   4.778   5.720   1.714  0.0347  0.2630 -0.3613
 7189SOL    HW132496   4.786   5.720   1.813  0.0531 -1.9489 -0.3511
 7189SOL    HW232497   4.860   5.682   1.673  0.1336  1.3958 -1.2468
 7190SOL     OW32498   3.689   0.441   3.657  0.1849 -0.0502 -0.6492
 7190SOL    HW132499   3.597   0.439   3.617 -0.3144 -2.0991  0.5501
 7190SOL    HW232500   3.754   0.397   3.594  0.0943  0.1376 -0.8746
 7191SOL     OW32501   9.363   9.988   2.962  0.2389 -0.2860 -0.3897
 7191SOL    HW132502   9.333   9.899   2.997  1.8591 -0.4725  0.5560
 7191SOL    HW232503   9.397  10.045   3.037 -3.4210  2.2680 -0.5263
 7192SOL     OW32504   0.731   5.552   2.642 -0.0898 -0.0714  0.4565
 7192SOL    HW132505   0.674   5.631   2.618  0.0831  0.0741  0.5255
 7192SOL    HW232506   0.787   5.527   2.562 -0.9579 -0.8167  0.0823
 7193SOL     OW32507   8.661   3.764   1.416  0.0290  0.3128 -0.6196
 7193SOL    HW132508   8.584   3.701   1.412  0.1617  0.0561  0.7543
 7193SOL    HW232509   8.632   3.850   1.459  0.6784 -0.0582  0.5839
 7194SOL     OW32510   7.954   9.703   5.698 -0.4642  0.9131  0.5829
 7194SOL    HW132511   7.903   9.665   5.621 -0.4856  0.0213  1.0359
 7194SOL    HW232512   7.927   9.798   5.711  0.3103  1.4083 -1.1735
 7195SOL     OW32513   8.076   1.216   3.653 -0.0361  0.9461 -0.6026
 7195SOL    HW132514   8.097   1.274   3.733 -0.6051  2.0002 -1.2077
 7195SOL    HW232515   8.100   1.121   3.674 -0.0489  1.2310  0.7784
 7196SOL     OW32516   5.060   1.122   0.989  0.4398 -0.0564 -0.0417
 7196SOL    HW132517   5.141   1.130   1.046  0.4262 -1.6254  0.2240
 7196SOL    HW232518   5.071   1.045   0.925  0.0957  1.1340 -1.5691
 7197SOL     OW32519   3.012   3.478   4.118  0.2321  0.3894  0.3947
 7197SOL    HW132520   3.025   3.433   4.030  0.7691  2.3627 -0.5658
 7197SOL    HW232521   2.948   3.426   4.173  1.7883 -2.2152 -0.1734
 7198SOL     OW32522   8.526   5.602   6.273  0.1721  0.2699  0.4686
 7198SOL    HW132523   8.458   5.582   6.344 -0.4965 -0.4236 -0.3621
 7198SOL    HW232524   8.567   5.691   6.291 -1.6449  1.1390  0.4645
 7199SOL     OW32525   8.311   0.832   4.637  0.2128  0.0176 -0.2913
 7199SOL    HW132526   8.302   0.825   4.736  1.4340  4.5770  0.2591
 7199SOL    HW232527   8.408   0.828   4.613  0.0693  1.1793 -1.0675
 7200SOL     OW32528   2.605   7.521   5.499  0.2050 -0.4011  0.4523
 7200SOL    HW132529   2.626   7.572   5.416  1.2555  1.3435  1.7607
 7200SOL    HW232530   2.524   7.559   5.543  0.1344 -0.7935  0.6697
 7201SOL     OW32531   9.951   3.561   0.753  0.5328  0.1504 -0.1373
 7201SOL    HW132532   9.941   3.488   0.686 -1.8221  1.8883 -1.7595
 7201SOL    HW232533   9.992   3.641   0.710  1.1550  0.5045  1.0915
 7202SOL     OW32534   2.947   3.048   4.942 -0.7154  0.0666 -0.1276
 7202SOL    HW132535   2.847   3.036   4.944 -0.7435  0.3790  0.3881
 7202SOL    HW232536   2.970   3.128   4.887 -0.5396 -2.1140 -3.4168
 7203SOL     OW32537   2.886   7.363   1.489  0.4281 -0.0928  0.0012
 7203SOL    HW132538   2.824   7.323   1.421  2.0297 -1.7047 -0.5896
 7203SOL    HW232539   2.980   7.337   1.466  1.2696  1.8416  1.1717
 7204SOL     OW32540   4.299   1.472   1.434  0.1578  0.0441 -0.1790
 7204SOL    HW132541   4.239   1.408   1.386 -0.6944  0.4697  0.3021
 7204SOL    HW232542   4.312   1.441   1.528 -0.2090  0.5419  0.0376
 7205SOL     OW32543   3.166   4.328   2.026 -0.0264  0.4074 -0.4007
 7205SOL    HW132544   3.138   4.328   1.930  0.0490  1.0222 -0.4286
 7205SOL    HW232545   3.162   4.235   2.063 -1.9152  0.4691 -0.4419
 7206SOL     OW32546   7.267   9.729   3.639  0.3058  0.1533  0.0698
 7206SOL    HW132547   7.238   9.822   3.618  0.5819  0.6404  1.7585
 7206SOL    HW232548   7.364   9.728   3.662  0.3388 -0.5819 -0.0630
 7207SOL     OW32549   2.128   4.594   1.385  0.2303  0.0301 -0.0653
 7207SOL    HW132550   2.077   4.586   1.299 -0.4503 -1.6522  0.4568
 7207SOL    HW232551   2.173   4.683   1.390 -2.3214  1.4024 -0.7358
 7208SOL     OW32552   8.119   7.050   2.792 -0.1885 -0.1174  0.3178
 7208SOL    HW132553   8.146   7.141   2.760  2.0821 -0.6124  0.6923
 7208SOL    HW232554   8.063   7.059   2.874  1.2235  0.9189  1.1903
 7209SOL     OW32555   5.011   0.203   1.382 -0.1659 -0.4141 -0.1825
 7209SOL    HW132556   5.102   0.164   1.399  0.1388  0.9328  1.2909
 7209SOL    HW232557   5.020   0.281   1.320 -0.0849  0.8717  1.4307
 7210SOL     OW32558   1.187   0.711   3.480 -0.3406 -0.2809 -0.2028
 7210SOL    HW132559   1.267   0.653   3.460  0.7436  1.0576  0.1531
 7210SOL    HW232560   1.214   0.784   3.543 -1.6942  0.6024 -0.6250
 7211SOL     OW32561   9.439   6.901   2.227  0.1443 -0.0712 -0.5358
 7211SOL    HW132562   9.393   6.861   2.307 -0.2112  0.5040 -0.4470
 7211SOL    HW232563   9.391   6.984   2.199 -0.8848 -1.3328 -2.5622
 7212SOL     OW32564   7.372   7.738   3.220  0.1844 -0.3532 -0.2051
 7212SOL    HW132565   7.436   7.666   3.248 -0.2027 -0.6133  0.0169
 7212SOL    HW232566   7.325   7.710   3.136 -0.2287 -0.5225  0.0781
 7213SOL     OW32567   3.000   6.114   1.088  0.1283 -0.2931 -0.3699
 7213SOL    HW132568   3.085   6.069   1.060  0.3106  1.0091 -1.9841
 7213SOL    HW232569   2.996   6.119   1.188  1.4814 -1.2346 -0.2558
 7214SOL     OW32570   3.967   3.535   2.609  0.2187  0.4016  0.1930
 7214SOL    HW132571   4.038   3.492   2.664 -0.5903  1.7293  2.3336
 7214SOL    HW232572   3.983   3.516   2.512  2.3474 -0.9615  0.7918
 7215SOL     OW32573   9.822   2.677   0.234 -0.5279 -0.3647  0.1313
 7215SOL    HW132574   9.804   2.587   0.274 -0.1618 -1.0470 -1.2453
 7215SOL    HW232575   9.741   2.710   0.187  0.0611 -1.0070 -1.3523
 7216SOL     OW32576   4.419   9.019   1.549 -0.3979 -0.2703  0.4775
 7216SOL    HW132577   4.506   9.040   1.593  0.2289 -1.9714  0.0787
 7216SOL    HW232578   4.345   9.059   1.603  0.6337  1.6186  0.5460
 7217SOL     OW32579   9.552   9.919   0.741  0.1568  0.2921 -0.0334
 7217SOL    HW132580   9.542   9.904   0.643  0.9593  2.8678 -0.5485
 7217SOL    HW232581   9.646   9.945   0.761 -0.3311  1.0996  1.2430
 7218SOL     OW32582   6.356   1.473   2.120  0.3646 -0.2897  0.2161
 7218SOL    HW132583   6.348   1.421   2.035  0.1257  0.2445 -0.0908
 7218SOL    HW232584   6.288   1.440   2.186  0.4774 -0.6310  0.1621
 7219SOL     OW32585   9.380   3.707   4.053  0.1224  0.2198 -0.3710
 7219SOL    HW132586   9.403   3.739   4.146 -1.3093 -0.6750  0.2948
 7219SOL    HW232587   9.365   3.787   3.994  1.1680  0.7987  0.1241
 7220SOL     OW32588   9.528   0.618   3.511  0.2272  0.5094 -0.3745
 7220SOL    HW132589   9.553   0.555   3.585 -2.0681  0.8414  0.7325
 7220SOL    HW232590   9.548   0.712   3.538  0.3293  0.5464 -0.5784
 7221SOL     OW32591   9.268   6.236   0.820 -0.1245  0.8763 -0.5849
 7221SOL    HW132592   9.303   6.148   0.790 -0.3466  0.8703 -0.8289
 7221SOL    HW232593   9.275   6.243   0.920  3.0753  1.9396 -0.8426
 7222SOL     OW32594   3.925   8.552   2.632 -0.3278 -0.3472 -0.0011
 7222SOL    HW132595   3.934   8.640   2.679  0.7235 -0.9862  1.0114
 7222SOL    HW232596   3.829   8.534   2.613 -0.5478  1.0695 -0.3264
 7223SOL     OW32597   9.572   7.710   0.106 -0.5867  0.1532  0.0688
 7223SOL    HW132598   9.574   7.610   0.118  1.9110 -0.0736 -1.9086
 7223SOL    HW232599   9.623   7.753   0.180  0.9307 -0.2455 -0.7260
 7224SOL     OW32600   3.411   9.673   1.696 -0.1923 -0.5086  0.6706
 7224SOL    HW132601   3.416   9.699   1.599  1.8713  0.3209  0.9713
 7224SOL    HW232602   3.319   9.641   1.717 -1.0498  0.5949 -1.2499
 7225SOL     OW32603   8.741   4.943   4.466 -0.2067 -0.4665 -0.2657
 7225SOL    HW132604   8.812   4.888   4.511 -0.9617 -0.9503  0.3521
 7225SOL    HW232605   8.752   5.039   4.491 -1.0862 -0.8277  1.6110
 7226SOL     OW32606   6.270   8.415   4.879  0.2632 -0.2096 -0.1052
 7226SOL    HW132607   6.278   8.512   4.858 -1.2923 -0.1999 -0.7757
 7226SOL    HW232608   6.249   8.364   4.796 -1.1508 -0.8054  0.5788
 7227SOL     OW32609   8.399   8.580   2.372 -0.1419  0.1536 -0.6108
 7227SOL    HW132610   8.495   8.574   2.344  0.4395 -0.1359  1.3539
 7227SOL    HW232611   8.375   8.499   2.427 -0.7849  1.4187  1.0345
 7228SOL     OW32612   0.586   3.640   5.693 -0.6101 -0.2567  0.2967
 7228SOL    HW132613   0.503   3.696   5.695 -1.0780 -0.9705  0.8413
 7228SOL    HW232614   0.564   3.549   5.656 -0.1576 -0.5903  0.8497
 7229SOL     OW32615   8.175   8.593   3.734 -0.0986  0.1256  0.3400
 7229SOL    HW132616   8.154   8.547   3.820  1.6428 -0.8740  0.2629
 7229SOL    HW232617   8.118   8.556   3.661 -0.3717 -0.2255  0.7309
 7230SOL     OW32618   7.830   1.355   3.266  0.3079 -0.2658 -0.5742
 7230SOL    HW132619   7.751   1.384   3.213  0.6694  0.1989 -0.8661
 7230SOL    HW232620   7.800   1.325   3.357 -0.1593  0.2829 -0.5448
 7231SOL     OW32621   9.261   9.705   4.751  0.0580  0.3641  0.3217
 7231SOL    HW132622   9.199   9.636   4.715  1.7288 -1.0957  0.1520
 7231SOL    HW232623   9.248   9.714   4.849 -0.0783 -0.2884  0.3639
 7232SOL     OW32624   1.213   3.783   4.384  0.2142  0.6363 -0.0674
 7232SOL    HW132625   1.258   3.754   4.300  0.2586  1.6571 -0.4011
 7232SOL    HW232626   1.125   3.736   4.393  1.4377 -1.5481  0.7131
 7233SOL     OW32627   2.241   7.887   3.325 -0.2759  0.3006 -0.3588
 7233SOL    HW132628   2.162   7.849   3.278  0.8231 -1.4802 -0.8348
 7233SOL    HW232629   2.226   7.883   3.424 -1.3493  1.2728 -0.4770
 7234SOL     OW32630   9.142   9.374   3.685  0.2159 -0.1537  0.4246
 7234SOL    HW132631   9.093   9.374   3.598 -0.1844  1.2742  0.6346
 7234SOL    HW232632   9.186   9.285   3.699  0.7072 -0.2391 -1.4776
 7235SOL     OW32633   1.371   5.808   6.047 -0.1831  0.4493  0.1802
 7235SOL    HW132634   1.359   5.760   6.134 -2.1595  0.6510  0.0529
 7235SOL    HW232635   1.398   5.903   6.065 -1.3295  0.7019  0.6170
 7236SOL     OW32636   8.145   1.938   5.057 -0.4540  0.0006 -0.5318
 7236SOL    HW132637   8.124   1.841   5.044 -1.0311  0.1093 -0.4025
 7236SOL    HW232638   8.134   1.962   5.154 -1.2331  0.4113 -0.7155
 7237SOL     OW32639   0.823   4.313   6.729  0.3964 -0.2345  0.1941
 7237SOL    HW132640   0.756   4.387   6.734 -0.7305 -1.2921  1.0147
 7237SOL    HW232641   0.887   4.331   6.654  0.6985  2.0140  0.9744
 7238SOL     OW32642   3.415   5.065   1.204  0.1542 -0.2410  0.4170
 7238SOL    HW132643   3.492   5.090   1.144 -0.4397  0.6748  0.0245
 7238SOL    HW232644   3.385   4.972   1.182 -0.3721  0.2582 -1.0537
 7239SOL     OW32645   0.756   3.084   4.641 -0.8595  0.7989 -0.0487
 7239SOL    HW132646   0.821   3.073   4.565 -1.3773  0.4151 -0.4346
 7239SOL    HW232647   0.776   3.169   4.690 -0.2627  0.8393 -0.3600
 7240SOL     OW32648   9.362   3.667   6.445  0.5525 -0.2803 -0.1004
 7240SOL    HW132649   9.299   3.617   6.504 -1.9465 -0.4237 -2.8153
 7240SOL    HW232650   9.323   3.756   6.423  1.5080 -0.1812 -1.4254
 7241SOL     OW32651   9.639   4.724   6.241  0.4159  0.1798 -0.6838
 7241SOL    HW132652   9.707   4.740   6.169  1.8179 -0.7122  0.4251
 7241SOL    HW232653   9.679   4.669   6.314 -1.4392 -0.1723  0.1059
 7242SOL     OW32654   1.195   3.219   1.886  0.2100 -0.4598 -0.1566
 7242SOL    HW132655   1.116   3.276   1.906  1.3437  0.4525  1.8572
 7242SOL    HW232656   1.252   3.211   1.968  1.7164 -1.8741 -1.3113
 7243SOL     OW32657   1.105   4.527   3.981  0.3452 -0.0185  0.4446
 7243SOL    HW132658   1.072   4.558   4.070 -1.2031 -1.1063  0.2882
 7243SOL    HW232659   1.122   4.605   3.922 -1.0346  0.6408  0.8914
 7244SOL     OW32660   1.828   9.739   2.637 -0.2142 -0.6402  0.4331
 7244SOL    HW132661   1.906   9.678   2.655 -0.4710 -0.6422  1.5577
 7244SOL    HW232662   1.799   9.728   2.542  1.1476 -0.6534  0.0117
 7245SOL     OW32663   9.902   9.996   3.464  0.0197  0.1801 -1.0065
 7245SOL    HW132664   9.999   9.976   3.453  0.0528 -0.2721  0.0040
 7245SOL    HW232665   9.852   9.911   3.479 -0.2629  0.5788  0.3557
 7246SOL     OW32666   1.092   6.422   3.142 -0.5599  0.0740 -0.2049
 7246SOL    HW132667   1.050   6.429   3.052 -0.5839  0.0664 -0.1945
 7246SOL    HW232668   1.076   6.331   3.180  0.1775 -0.2045 -0.5519
 7247SOL     OW32669   3.564   9.563   4.545 -0.0342  0.1160  0.0813
 7247SOL    HW132670   3.543   9.466   4.556  1.0001 -0.0285  0.7719
 7247SOL    HW232671   3.648   9.586   4.594  0.1402  1.2056 -0.6971
 7248SOL     OW32672   2.437   1.275   4.290 -0.1547 -0.6528  0.0330
 7248SOL    HW132673   2.471   1.360   4.250 -0.2847 -1.0011 -0.8352
 7248SOL    HW232674   2.511   1.230   4.339  0.0040 -0.2050  0.2064
 7249SOL     OW32675   3.059   4.660   4.515 -0.4341 -0.5647  0.2431
 7249SOL    HW132676   2.990   4.720   4.475 -1.3047 -1.6439  0.1011
 7249SOL    HW232677   3.139   4.656   4.455 -0.9291 -0.6203 -0.4146
 7250SOL     OW32678   4.634   8.093   5.204  0.0923 -0.0936 -0.2140
 7250SOL    HW132679   4.712   8.138   5.160  0.2988 -1.2284 -1.0335
 7250SOL    HW232680   4.554   8.153   5.199  0.9576  1.1741  0.8277
 7251SOL     OW32681   2.512   6.503   0.375 -0.4645 -0.8150 -0.6330
 7251SOL    HW132682   2.524   6.438   0.300  2.3813 -0.6694 -0.3680
 7251SOL    HW232683   2.495   6.594   0.339 -2.5913 -1.3218 -1.0182
 7252SOL     OW32684   3.664   6.796   3.969 -0.0944  0.2163  0.1498
 7252SOL    HW132685   3.648   6.825   3.875 -1.9599 -0.6933  0.1638
 7252SOL    HW232686   3.755   6.825   3.998  0.1545  1.2728 -1.6316
 7253SOL     OW32687   8.632   9.244   1.691  0.8192 -0.1273 -0.3393
 7253SOL    HW132688   8.662   9.322   1.636 -3.3390  1.1899 -0.8993
 7253SOL    HW232689   8.684   9.241   1.776  2.0937  2.3154 -0.9945
 7254SOL     OW32690   4.136   3.499   2.002  0.3624 -0.4970 -0.0269
 7254SOL    HW132691   4.196   3.572   2.034 -0.1649  0.1899 -0.5596
 7254SOL    HW232692   4.123   3.431   2.074  1.9945 -0.7978 -0.0132
 7255SOL     OW32693   9.078   0.499   3.613 -0.1626  0.2060  0.3241
 7255SOL    HW132694   9.022   0.425   3.575 -0.4496  1.0736 -0.9670
 7255SOL    HW232695   9.026   0.547   3.684 -0.4013 -0.1222  0.3737
 7256SOL     OW32696   9.200   7.581   2.667  0.0420 -0.1978 -0.2375
 7256SOL    HW132697   9.219   7.671   2.707  0.1433 -0.8744  1.2623
 7256SOL    HW232698   9.123   7.588   2.603 -0.4984  0.7788  0.5120
 7257SOL     OW32699   2.908   3.708   6.371 -0.6081 -0.5609  0.0508
 7257SOL    HW132700   2.868   3.793   6.337  0.6379 -0.8023 -2.1011
 7257SOL    HW232701   2.836   3.639   6.382 -1.5572  0.6284  1.3846
 7258SOL     OW32702   3.230   1.841   1.094 -0.2140 -0.4392 -0.1321
 7258SOL    HW132703   3.194   1.874   1.181  0.7356  0.6007 -0.1319
 7258SOL    HW232704   3.254   1.744   1.103  1.5324  0.1019  1.3037
 7259SOL     OW32705   0.040   8.765   1.713  0.0626 -0.2272 -0.4980
 7259SOL    HW132706  -0.024   8.702   1.757 -0.9082 -0.4571 -2.2071
 7259SOL    HW232707   0.035   8.854   1.759 -0.8101 -0.5004 -0.0383
 7260SOL     OW32708   3.656   6.173   4.851 -0.1623  0.2672 -0.1108
 7260SOL    HW132709   3.613   6.234   4.918  0.7263 -1.3317  1.9505
 7260SOL    HW232710   3.755   6.176   4.861 -0.0950 -1.2567 -0.2328
 7261SOL     OW32711   6.437   8.815   2.619 -0.3689  0.4049 -0.1239
 7261SOL    HW132712   6.493   8.843   2.697 -0.9374  0.8727  0.1192
 7261SOL    HW232713   6.493   8.815   2.536  0.2991 -0.3326  0.3230
 7262SOL     OW32714   9.155   6.127   5.970 -0.0820 -0.5152  0.1924
 7262SOL    HW132715   9.095   6.063   5.922 -0.9841  2.1659 -2.4323
 7262SOL    HW232716   9.104   6.170   6.044 -0.4518 -0.5746 -0.0219
 7263SOL     OW32717   6.519   2.441   2.827 -0.3141  0.3110 -0.0192
 7263SOL    HW132718   6.603   2.387   2.827 -1.4086 -1.4616 -2.3872
 7263SOL    HW232719   6.475   2.433   2.916  1.4529  0.4070  0.8996
 7264SOL     OW32720   2.800   4.061   2.521 -0.1050  0.1779  0.4129
 7264SOL    HW132721   2.734   4.134   2.536  0.0881  0.5437 -0.4607
 7264SOL    HW232722   2.777   4.014   2.435  0.4862 -0.0019  0.3562
 7265SOL     OW32723   0.887   4.027   0.172  0.8412 -0.1944  0.3445
 7265SOL    HW132724   0.810   3.996   0.227  0.9429 -0.6502  0.2358
 7265SOL    HW232725   0.906   3.959   0.100  0.8771  0.2625 -0.0816
 7266SOL     OW32726   1.497   5.019   4.396 -0.1545 -0.5692 -0.2570
 7266SOL    HW132727   1.432   4.959   4.442 -0.3569  0.3114  0.6169
 7266SOL    HW232728   1.567   4.964   4.350  1.0531 -1.4171  2.5373
 7267SOL     OW32729   6.286   9.016   2.153 -0.4487  0.3817 -0.3398
 7267SOL    HW132730   6.219   8.986   2.085 -2.4578  1.5285  1.0957
 7267SOL    HW232731   6.337   8.936   2.186 -0.5242 -0.3995 -2.0380
 7268SOL     OW32732   2.821   3.946   6.281  0.4561 -0.3604  0.2818
 7268SOL    HW132733   2.873   3.998   6.213  1.1722 -1.8339 -0.3127
 7268SOL    HW232734   2.737   3.996   6.304  3.1444  3.2287  2.9838
 7269SOL     OW32735   8.269   2.224   0.062  0.2069 -0.0433 -0.0431
 7269SOL    HW132736   8.317   2.311   0.070  0.3910 -0.3575  2.8244
 7269SOL    HW232737   8.332   2.155   0.026 -0.2573  1.2047 -3.4107
 7270SOL     OW32738   8.697   5.454   0.854  0.4368 -0.0070 -0.2366
 7270SOL    HW132739   8.683   5.462   0.952 -3.0127 -0.5307 -0.6048
 7270SOL    HW232740   8.687   5.544   0.811 -1.1258 -0.2451 -0.4041
 7271SOL     OW32741   1.343   4.186   4.578 -0.5472  0.2640 -0.4246
 7271SOL    HW132742   1.324   4.187   4.676 -0.1731 -0.7362 -0.3335
 7271SOL    HW232743   1.303   4.104   4.537 -1.8038  1.3359 -1.3416
 7272SOL     OW32744   0.794   2.956   6.320  0.4448 -0.0706 -0.3286
 7272SOL    HW132745   0.787   3.026   6.392 -1.3988 -1.3177  0.7505
 7272SOL    HW232746   0.853   2.882   6.352 -0.2285 -0.5401 -0.1736
 7273SOL     OW32747   9.642   5.578   0.037 -0.2109 -0.3348 -0.1013
 7273SOL    HW132748   9.681   5.630  -0.038 -0.1180  1.2500  1.0230
 7273SOL    HW232749   9.715   5.530   0.085 -0.1878 -0.8265 -0.6227
 7274SOL     OW32750   2.932   3.732   4.379  0.1986  0.4478  0.0425
 7274SOL    HW132751   2.863   3.798   4.349  2.2679  1.3256 -3.0227
 7274SOL    HW232752   3.008   3.731   4.314  3.2120 -0.3246  3.3802
 7275SOL     OW32753   2.605   4.623   6.104 -0.0392  0.4061 -0.0962
 7275SOL    HW132754   2.623   4.711   6.062  0.9885 -0.1566 -0.8438
 7275SOL    HW232755   2.596   4.634   6.203  2.8953  0.9310  0.1356
 7276SOL     OW32756   2.528   6.119   4.634  0.0511 -0.4337 -0.2392
 7276SOL    HW132757   2.429   6.121   4.619 -0.3230 -0.4921  1.9760
 7276SOL    HW232758   2.550   6.045   4.697  1.1748  1.1595  1.3065
 7277SOL     OW32759   1.243   5.672   1.617 -0.1470 -0.4086 -0.2031
 7277SOL    HW132760   1.147   5.697   1.623  0.1270  0.5355  0.2277
 7277SOL    HW232761   1.273   5.678   1.521 -0.0366  1.0839 -0.0818
 7278SOL     OW32762   9.754   3.545   0.316 -0.0715 -0.9226  0.5543
 7278SOL    HW132763   9.825   3.611   0.293 -0.4972 -0.4267  0.6584
 7278SOL    HW232764   9.786   3.453   0.296  0.0629 -0.5994 -0.7642
 7279SOL     OW32765   1.132   9.107   4.397 -0.3692  0.3163 -0.3856
 7279SOL    HW132766   1.070   9.185   4.392 -0.0271  0.7545  1.5343
 7279SOL    HW232767   1.092   9.038   4.458  0.8775  0.4972  0.6699
 7280SOL     OW32768   8.892   6.153   6.726  0.3238 -0.4329 -0.0474
 7280SOL    HW132769   8.934   6.141   6.636  0.3437  1.9222 -0.4049
 7280SOL    HW232770   8.964   6.162   6.795  0.3035 -3.3624  0.4094
 7281SOL     OW32771   2.188   7.381   1.137  0.0548  0.5377 -0.1749
 7281SOL    HW132772   2.146   7.457   1.186  0.2970  0.0163  0.8441
 7281SOL    HW232773   2.288   7.389   1.143  0.0778 -0.3636  0.7133
 7282SOL     OW32774   4.601   6.317   2.675  0.3496  0.1241 -0.0782
 7282SOL    HW132775   4.597   6.416   2.680 -0.9840  0.1432 -1.1284
 7282SOL    HW232776   4.589   6.278   2.767  1.0341  0.9219  0.3554
 7283SOL     OW32777   4.792   6.826   2.623  0.3106 -0.2344  0.3873
 7283SOL    HW132778   4.742   6.877   2.553 -1.1163 -0.2393  1.3856
 7283SOL    HW232779   4.792   6.878   2.708  1.1517 -0.7029  0.6776
 7284SOL     OW32780   0.319   0.870   1.498  0.3170  0.1988  0.0819
 7284SOL    HW132781   0.365   0.782   1.510  0.2469  0.3438  1.5491
 7284SOL    HW232782   0.259   0.887   1.577  0.6552  1.7509  0.0209
 7285SOL     OW32783   0.199   8.894   4.007  0.0276 -0.5108 -0.0315
 7285SOL    HW132784   0.253   8.926   4.084 -0.2364  0.6736 -0.3301
 7285SOL    HW232785   0.256   8.834   3.950  0.3688 -0.9928  0.8049
 7286SOL     OW32786   7.880   0.244   2.889 -0.0778 -0.2436 -0.1727
 7286SOL    HW132787   7.786   0.233   2.854 -0.4741  0.5278  0.6396
 7286SOL    HW232788   7.938   0.280   2.817 -0.4632 -0.4733 -0.6056
 7287SOL     OW32789   6.510   0.725   5.507  0.4606 -0.0708 -0.1456
 7287SOL    HW132790   6.592   0.758   5.460  0.9373 -2.0316 -0.7445
 7287SOL    HW232791   6.508   0.762   5.600 -0.3942  3.7405 -1.5553
 7288SOL     OW32792   1.215   4.799   6.161  0.7183  0.4425 -0.0790
 7288SOL    HW132793   1.259   4.771   6.076  0.8641 -0.4180  0.2724
 7288SOL    HW232794   1.161   4.722   6.197  0.9887  0.6745  0.8139
 7289SOL     OW32795   0.056   5.906   5.397  0.3119  0.5818 -0.4833
 7289SOL    HW132796  -0.044   5.905   5.390  0.3465 -0.0510 -0.8998
 7289SOL    HW232797   0.096   5.918   5.307  0.6174  0.2587 -0.3927
 7290SOL     OW32798   1.235   7.460   6.155  0.3915  0.2896 -0.0540
 7290SOL    HW132799   1.301   7.408   6.209  0.0391 -0.8549 -0.7087
 7290SOL    HW232800   1.242   7.433   6.059 -1.4876 -0.3556 -0.0369
 7291SOL     OW32801   0.753   6.300   4.811  0.5004 -0.7122  0.2432
 7291SOL    HW132802   0.817   6.277   4.885  0.4992 -1.1869  0.0994
 7291SOL    HW232803   0.784   6.258   4.726  0.0556 -0.8526  0.1502
 7292SOL     OW32804   4.539   8.671   2.036 -0.4320  0.1158 -0.5945
 7292SOL    HW132805   4.612   8.634   2.094 -0.4567 -2.0839 -1.9200
 7292SOL    HW232806   4.574   8.685   1.944 -2.1507 -2.6698 -1.7045
 7293SOL     OW32807   3.566   5.584   1.244  0.4341 -0.5102  0.7383
 7293SOL    HW132808   3.488   5.639   1.218  1.0461 -0.2985 -0.6767
 7293SOL    HW232809   3.622   5.634   1.311  1.2535  0.8184 -0.8984
 7294SOL     OW32810   0.873   4.697   0.842 -0.1881 -0.0871  0.0482
 7294SOL    HW132811   0.876   4.771   0.775  0.6283  0.2955  0.5063
 7294SOL    HW232812   0.784   4.698   0.889 -0.3835  0.2601 -0.3274
 7295SOL     OW32813   0.132   8.690   2.445 -0.6841 -0.2618 -0.2878
 7295SOL    HW132814   0.130   8.723   2.351 -1.8122 -2.0879 -0.9422
 7295SOL    HW232815   0.075   8.749   2.502  0.6655  1.3317 -0.5720
 7296SOL     OW32816   0.913   1.265   0.996 -0.1466 -0.6059 -0.0349
 7296SOL    HW132817   0.847   1.281   1.070 -1.9464  0.5802 -1.8561
 7296SOL    HW232818   1.001   1.303   1.023 -1.1135  1.0037  0.9833
 7297SOL     OW32819   6.740   8.686   4.661 -0.3784  0.1608 -0.0928
 7297SOL    HW132820   6.659   8.740   4.681 -0.7437 -0.6168  0.5620
 7297SOL    HW232821   6.816   8.717   4.719 -0.7318 -0.3714  0.6634
 7298SOL     OW32822   1.126   4.212   2.306  0.0916  0.3806 -0.2706
 7298SOL    HW132823   1.065   4.207   2.385  1.3154 -0.1578  0.6601
 7298SOL    HW232824   1.090   4.156   2.232 -1.3545  1.3368 -0.2954
 7299SOL     OW32825   3.874   6.969   1.340 -0.3830  0.6369 -0.4337
 7299SOL    HW132826   3.941   6.998   1.408 -0.2945 -0.6263  0.0268
 7299SOL    HW232827   3.783   6.966   1.381 -0.1965 -1.0350 -0.0775
 7300SOL     OW32828   9.563   5.080   2.727 -0.0608 -0.3509  0.4449
 7300SOL    HW132829   9.484   5.136   2.701  0.4218  0.2008  0.1596
 7300SOL    HW232830   9.633   5.085   2.655  0.3907 -0.5349  0.8666
 7301SOL     OW32831   1.909   3.367   1.493  0.4690 -0.0047 -0.2360
 7301SOL    HW132832   1.929   3.333   1.401  2.3980 -2.6550  1.0982
 7301SOL    HW232833   1.863   3.295   1.546 -0.2674  1.3548  1.0257
 7302SOL     OW32834   4.446   9.028   2.065 -0.2418 -0.4701  0.8746
 7302SOL    HW132835   4.361   9.073   2.037 -0.5039 -1.8369 -0.5878
 7302SOL    HW232836   4.425   8.942   2.112  0.3240 -1.1250 -0.0451
 7303SOL     OW32837   9.295   7.572   2.078  0.4262 -0.6435 -0.3943
 7303SOL    HW132838   9.255   7.544   1.990 -1.2293  0.5747 -0.0487
 7303SOL    HW232839   9.358   7.648   2.063  1.2890 -1.4019 -0.7026
 7304SOL     OW32840   0.851   3.715   5.544  0.1583 -0.5151 -0.4145
 7304SOL    HW132841   0.807   3.665   5.469  0.4136 -1.1653 -0.1318
 7304SOL    HW232842   0.782   3.748   5.608 -0.0684  0.0986 -0.9641
 7305SOL     OW32843   0.378   7.142   3.979  0.0190  0.0415 -0.0824
 7305SOL    HW132844   0.441   7.084   4.031  0.4607 -0.5483 -1.2372
 7305SOL    HW232845   0.372   7.232   4.021  1.8901  0.2098 -0.1248
 7306SOL     OW32846   8.845   7.529   5.162 -0.2617  0.3646 -0.6590
 7306SOL    HW132847   8.809   7.620   5.147 -2.2877 -0.1551  0.8336
 7306SOL    HW232848   8.770   7.466   5.184  1.2720 -1.2830  0.0330
 7307SOL     OW32849   0.399   1.163   4.243 -0.3758 -0.4584 -0.5331
 7307SOL    HW132850   0.443   1.248   4.213 -1.2043 -0.4233 -1.6938
 7307SOL    HW232851   0.455   1.119   4.313  2.0818 -1.0130 -2.7953
 7308SOL     OW32852   8.623   7.359   1.151 -0.1487  0.2066  0.2099
 7308SOL    HW132853   8.669   7.415   1.082  1.7575 -0.0240  1.2488
 7308SOL    HW232854   8.675   7.275   1.166 -1.2890 -0.3799  0.9354
 7309SOL     OW32855   5.285   3.830   1.502  0.0123  0.1506  0.4834
 7309SOL    HW132856   5.229   3.756   1.464  2.8519 -0.4260 -2.8933
 7309SOL    HW232857   5.235   3.916   1.497 -1.9298 -0.9279  0.9510
 7310SOL     OW32858   0.520   8.118   4.274 -0.0143 -0.5694 -0.0465
 7310SOL    HW132859   0.479   8.174   4.346  1.4474  0.2379  0.1679
 7310SOL    HW232860   0.464   8.124   4.191 -1.8366 -1.6803  1.0515
 7311SOL     OW32861   6.976   2.235   3.220 -0.1484 -0.2757 -0.2778
 7311SOL    HW132862   7.034   2.299   3.269  0.1605 -0.6436 -0.1685
 7311SOL    HW232863   7.004   2.231   3.124 -0.6770  0.3555 -0.4636
 7312SOL     OW32864   9.074   3.964   6.240 -0.8539  0.1409 -0.0420
 7312SOL    HW132865   9.132   4.039   6.208  2.7158 -1.2724  2.7873
 7312SOL    HW232866   9.080   3.887   6.176  1.6185 -0.5116  0.9058
 7313SOL     OW32867   0.659   7.946   0.820 -0.4540 -0.0992 -0.3030
 7313SOL    HW132868   0.737   7.885   0.811  0.1246  0.4494  0.8924
 7313SOL    HW232869   0.676   8.031   0.770  0.3686  0.6347  1.1862
 7314SOL     OW32870   0.145   0.825   4.491 -0.1728 -0.0926  0.2075
 7314SOL    HW132871   0.124   0.776   4.407  0.8161 -1.6197  0.8172
 7314SOL    HW232872   0.102   0.915   4.490  0.4608  0.2026 -2.2614
 7315SOL     OW32873   6.220   6.980   4.336  0.1632 -0.0669 -0.2487
 7315SOL    HW132874   6.220   6.881   4.329 -1.6068 -0.1156  0.0863
 7315SOL    HW232875   6.154   7.018   4.272 -0.3168  0.7846  0.7351
 7316SOL     OW32876   1.286   4.240   4.164  0.1482  0.0451 -0.6242
 7316SOL    HW132877   1.215   4.173   4.185  1.0749 -0.9175 -0.5150
 7316SOL    HW232878   1.283   4.315   4.230 -0.6600 -0.0556 -0.5404
 7317SOL     OW32879   2.253   1.297   3.475 -0.3822 -0.7767  0.2572
 7317SOL    HW132880   2.155   1.318   3.486 -0.7234 -2.4385  0.4980
 7317SOL    HW232881   2.264   1.223   3.409  0.6457 -1.3561  1.0686
 7318SOL     OW32882   0.828   4.461   6.303  0.1386 -0.5807  0.8903
 7318SOL    HW132883   0.738   4.504   6.302  0.3902 -0.0349  1.3831
 7318SOL    HW232884   0.825   4.376   6.251 -1.0756 -1.4066  2.2681
 7319SOL     OW32885   3.559   6.450   2.580 -0.1230 -0.4496  0.1897
 7319SOL    HW132886   3.500   6.482   2.655 -0.5152  0.0394 -0.3151
 7319SOL    HW232887   3.644   6.414   2.617  0.8979  2.3941  0.7466
 7320SOL     OW32888   7.943   9.943   1.829  0.4194 -0.3751 -0.3494
 7320SOL    HW132889   7.913   9.956   1.924  1.5046 -0.2205 -0.0194
 7320SOL    HW232890   8.025   9.887   1.827 -0.0579 -1.0521 -1.2676
 7321SOL     OW32891   0.848   6.406   1.236  0.1908  0.0835 -0.0884
 7321SOL    HW132892   0.763   6.456   1.248 -0.3226 -0.6340 -0.6920
 7321SOL    HW232893   0.923   6.455   1.282 -0.3514  1.2462 -0.4296
 7322SOL     OW32894   3.297   7.957   3.128 -0.1301 -0.6772 -0.0977
 7322SOL    HW132895   3.203   7.972   3.159  0.3444 -0.1385  1.0947
 7322SOL    HW232896   3.315   8.015   3.048  0.0941  1.3791  1.4281
 7323SOL     OW32897   1.329   7.901   6.106  0.4798  0.4580 -0.0735
 7323SOL    HW132898   1.340   7.896   6.205  1.9473  0.1444 -0.2343
 7323SOL    HW232899   1.305   7.994   6.080  0.6523  0.6772  0.5362
 7324SOL     OW32900   4.545   5.602   2.935 -0.4595  0.6141 -0.1230
 7324SOL    HW132901   4.506   5.565   2.850 -0.5191  0.8717 -0.2064
 7324SOL    HW232902   4.644   5.606   2.927 -0.4170  0.0174  0.0664
 7325SOL     OW32903   1.029   6.480   0.260 -0.4726  0.1074  0.4562
 7325SOL    HW132904   1.113   6.447   0.217  0.1945  0.0283  1.7925
 7325SOL    HW232905   0.957   6.488   0.191  0.8602  0.9727 -0.8649
 7326SOL     OW32906   4.085   4.166   1.036  0.2519  0.2057  0.3139
 7326SOL    HW132907   4.038   4.105   0.971  1.0036 -0.7693  0.6745
 7326SOL    HW232908   4.183   4.148   1.033  0.5715  1.8434 -0.0241
 7327SOL     OW32909   0.224   3.950   1.363 -0.2232  0.5726 -0.2751
 7327SOL    HW132910   0.156   3.953   1.436 -0.2324  1.0659 -0.3009
 7327SOL    HW232911   0.316   3.946   1.403 -0.2640 -0.0254 -0.2401
 7328SOL     OW32912   1.500   7.889   4.288  0.6305  0.2555  0.4554
 7328SOL    HW132913   1.490   7.946   4.370  1.6733 -0.3505  1.0185
 7328SOL    HW232914   1.494   7.793   4.314 -0.7451  0.0919 -0.4353
 7329SOL     OW32915   0.390   9.201   1.405 -0.2115  0.0848  0.5877
 7329SOL    HW132916   0.344   9.287   1.383 -0.9650 -0.7425 -1.2213
 7329SOL    HW232917   0.449   9.175   1.328  0.5492 -0.6575  1.4134
 7330SOL     OW32918   0.695   4.569   5.368  0.3032 -0.1452  0.1673
 7330SOL    HW132919   0.650   4.658   5.378  1.6795  0.5734  0.2529
 7330SOL    HW232920   0.628   4.496   5.373 -0.6540  0.8169  1.9684
 7331SOL     OW32921   8.044   1.469   6.090  0.1480 -0.4717 -0.6682
 7331SOL    HW132922   8.016   1.377   6.063  0.2456 -0.7832  0.2847
 7331SOL    HW232923   7.964   1.529   6.092  0.1215 -0.4681 -1.5265
 7332SOL     OW32924   8.382   3.342   1.863 -0.1016 -0.6910  0.0302
 7332SOL    HW132925   8.321   3.318   1.788 -3.0110  1.8291  1.4861
 7332SOL    HW232926   8.350   3.298   1.948  0.6188 -0.0495  0.6476
 7333SOL     OW32927   7.640   2.358   4.058 -0.3066  0.1642  0.2662
 7333SOL    HW132928   7.658   2.320   4.148 -2.1176 -1.4883 -0.0423
 7333SOL    HW232929   7.691   2.444   4.047  0.6855 -0.1189  2.4652
 7334SOL     OW32930   2.813   9.654   4.372 -0.0630 -0.1593  0.4217
 7334SOL    HW132931   2.856   9.672   4.283  0.3677 -1.2745  0.3954
 7334SOL    HW232932   2.867   9.586   4.422 -1.4423 -1.1099  0.6564
 7335SOL     OW32933   1.936   4.231   0.851  0.6569 -0.6313 -0.0995
 7335SOL    HW132934   1.931   4.170   0.772 -0.0566  0.6894 -1.0895
 7335SOL    HW232935   1.844   4.261   0.875  1.0722  0.6830 -0.1169
 7336SOL     OW32936   3.593   1.400   2.712 -0.5240  0.1620  1.0411
 7336SOL    HW132937   3.664   1.335   2.685  0.0629  0.8539  0.8855
 7336SOL    HW232938   3.505   1.370   2.676 -0.1071 -0.0854  0.2080
 7337SOL     OW32939   0.600   5.625   5.016 -0.2004  0.4893  0.1844
 7337SOL    HW132940   0.693   5.634   5.051 -0.6570  1.4992  1.1892
 7337SOL    HW232941   0.535   5.638   5.091 -1.1932  1.8335 -0.8734
 7338SOL     OW32942   9.277   2.163   4.967  0.0515  0.0528 -0.1202
 7338SOL    HW132943   9.225   2.245   4.944  0.6541  0.4822  0.0367
 7338SOL    HW232944   9.373   2.176   4.945  0.0628 -0.8308 -0.6432
 7339SOL     OW32945   9.319   0.415   4.048  0.0237 -0.3086  1.3729
 7339SOL    HW132946   9.331   0.418   3.949 -0.0890  1.1219  1.3904
 7339SOL    HW232947   9.224   0.396   4.070  0.1534 -1.1399  1.2046
 7340SOL     OW32948   8.086   9.241   5.634 -0.0471 -0.4303  0.8188
 7340SOL    HW132949   8.173   9.278   5.665  0.3920  1.0264 -1.9732
 7340SOL    HW232950   8.011   9.291   5.678  0.5499  1.0315  0.2008
 7341SOL     OW32951   0.347   5.049   0.462 -0.0530 -0.1925  0.1559
 7341SOL    HW132952   0.340   5.031   0.560 -1.1495 -0.4696  0.0394
 7341SOL    HW232953   0.349   4.962   0.413  0.4186 -0.0521 -0.0744
 7342SOL     OW32954   2.786   3.499   1.698 -0.3318  0.0201 -0.2988
 7342SOL    HW132955   2.717   3.528   1.763  0.5744 -2.8608  2.0958
 7342SOL    HW232956   2.775   3.401   1.679  1.6746  0.0086 -1.5965
 7343SOL     OW32957   8.403   0.203   3.647  0.2727 -0.0585  0.3953
 7343SOL    HW132958   8.438   0.186   3.555  1.1454 -0.6194  0.8233
 7343SOL    HW232959   8.478   0.233   3.706 -0.3706  0.7378  0.8172
 7344SOL     OW32960   8.851   2.745   1.604 -0.5447 -0.7124  0.3294
 7344SOL    HW132961   8.817   2.702   1.521  1.1666  0.5395 -1.0512
 7344SOL    HW232962   8.913   2.683   1.651 -0.2062 -0.7866 -0.2154
 7345SOL     OW32963   4.898   7.518   1.679  0.7771 -0.2416  0.4880
 7345SOL    HW132964   4.833   7.549   1.748 -0.8987  1.4155 -1.7467
 7345SOL    HW232965   4.858   7.441   1.628  2.1682 -1.7246  1.5841
 7346SOL     OW32966   6.040   4.733   0.664 -0.1546  0.1801 -0.1976
 7346SOL    HW132967   6.090   4.723   0.750  0.3265 -2.1198 -0.7322
 7346SOL    HW232968   5.944   4.707   0.678 -0.5011  1.5056  0.0385
 7347SOL     OW32969   7.106   1.382   6.093  0.1808  0.1284 -0.1408
 7347SOL    HW132970   7.089   1.383   6.192 -3.1369  0.5374 -0.6523
 7347SOL    HW232971   7.162   1.461   6.068  0.2599  0.5412  1.2904
 7348SOL     OW32972   7.524   2.302   2.902  0.1409  0.3494  0.1403
 7348SOL    HW132973   7.622   2.307   2.885  0.0824  1.5153  0.0932
 7348SOL    HW232974   7.504   2.338   2.993 -0.3896  1.5322 -0.4304
 7349SOL     OW32975   0.586   3.297   3.490 -0.3947  0.2440  0.4116
 7349SOL    HW132976   0.634   3.253   3.566 -3.1078 -1.3825  1.2546
 7349SOL    HW232977   0.488   3.290   3.504 -0.9402  1.5923 -2.3438
 7350SOL     OW32978   4.529   3.110   0.687  0.0001 -0.4380  0.2755
 7350SOL    HW132979   4.541   3.046   0.611  0.0703  2.3277 -2.1228
 7350SOL    HW232980   4.450   3.168   0.670  1.7062  2.1604  0.8776
 7351SOL     OW32981   0.442   5.966   6.611 -1.1331  0.3824  0.2355
 7351SOL    HW132982   0.448   5.969   6.511  1.1184 -0.2795  0.3225
 7351SOL    HW232983   0.423   5.872   6.640  1.5397 -0.1056  0.5354
 7352SOL     OW32984   8.565   4.161   1.363 -0.0665 -0.3740 -0.4631
 7352SOL    HW132985   8.502   4.239   1.356  1.0741  0.6131  0.1231
 7352SOL    HW232986   8.617   4.153   1.278  1.2452  0.7570  0.2167
 7353SOL     OW32987   1.119   8.058   5.707  0.2695  0.1314 -0.5066
 7353SOL    HW132988   1.134   7.966   5.672 -1.8939  0.1267 -1.5036
 7353SOL    HW232989   1.101   8.121   5.631 -0.5294  0.9111  0.3066
 7354SOL     OW32990   8.369   0.050   1.640 -0.0002  0.6784 -0.5969
 7354SOL    HW132991   8.455   0.002   1.625 -0.0545  0.1521  0.6948
 7354SOL    HW232992   8.382   0.147   1.624  0.6673  0.5175 -1.0559
 7355SOL     OW32993   7.993   9.534   0.286 -0.0820  0.3563 -0.1328
 7355SOL    HW132994   7.937   9.479   0.347  0.1961  1.3388  1.0432
 7355SOL    HW232995   8.088   9.533   0.318  0.2552  0.0384 -1.1472
 7356SOL     OW32996   8.974   0.972   1.463 -0.1230 -0.4715 -0.0165
 7356SOL    HW132997   8.904   0.973   1.391  0.2491 -1.0427 -0.3925
 7356SOL    HW232998   8.964   1.053   1.521 -1.2707 -0.6920  0.1009
 7357SOL     OW32999   2.053   3.334   1.991 -0.7254 -0.2187 -0.3674
 7357SOL    HW133000   1.992   3.255   1.988  0.4074 -1.0362 -4.2186
 7357SOL    HW233001   2.055   3.378   1.901  0.8786  2.5101  0.9355
 7358SOL     OW33002   7.704   3.107   3.902 -0.2755  0.0499  0.4615
 7358SOL    HW133003   7.640   3.091   3.977 -0.2759  1.7066  0.8159
 7358SOL    HW233004   7.798   3.110   3.937  0.0223 -2.2385 -0.0388
 7359SOL     OW33005   1.014   8.783   3.101  0.4553 -0.1086  0.6649
 7359SOL    HW133006   1.056   8.736   3.178  1.2179 -0.6050 -0.0524
 7359SOL    HW233007   1.051   8.748   3.015 -0.3191  0.5032  0.0667
 7360SOL     OW33008   1.120   9.892   2.488 -0.2580 -0.5180  0.2334
 7360SOL    HW133009   1.205   9.891   2.540 -1.0614  0.7156  1.6213
 7360SOL    HW233010   1.114   9.810   2.431  0.9291 -1.5924  1.6392
 7361SOL     OW33011   0.719   2.449   4.031 -0.0537 -0.0449 -0.2949
 7361SOL    HW133012   0.691   2.376   3.968 -0.4055  0.8110 -1.1436
 7361SOL    HW233013   0.811   2.479   4.009 -0.5958  1.0389 -1.1532
 7362SOL     OW33014   2.617   5.968   1.838  0.4066 -0.2434 -0.2504
 7362SOL    HW133015   2.712   5.954   1.865  0.1927 -3.4201 -0.9621
 7362SOL    HW233016   2.558   5.964   1.919  0.6794 -0.1108 -0.0446
 7363SOL     OW33017   1.220   4.796   3.443  0.0190  0.3162  0.1636
 7363SOL    HW133018   1.169   4.722   3.488 -0.2442  0.1004 -0.4962
 7363SOL    HW233019   1.157   4.868   3.415  0.0355 -0.0805 -0.9141
 7364SOL     OW33020   4.125   3.883   4.432  0.2923 -0.3312 -0.2146
 7364SOL    HW133021   4.126   3.889   4.531  2.1140  1.6672 -0.2991
 7364SOL    HW233022   4.036   3.850   4.401 -0.3018 -0.9401  2.0653
 7365SOL     OW33023   2.794   1.662   2.928  0.1075  0.0366  0.4284
 7365SOL    HW133024   2.880   1.631   2.968  0.5823  1.9845  0.9891
 7365SOL    HW233025   2.787   1.761   2.938 -3.0719 -0.3011  2.0438
 7366SOL     OW33026   0.106   0.666   5.113 -0.9931 -0.2872  0.3667
 7366SOL    HW133027   0.082   0.742   5.174 -1.2040  0.1299 -0.2379
 7366SOL    HW233028   0.024   0.613   5.092 -1.1962  0.4867 -0.8078
 7367SOL     OW33029   9.358   9.216   1.326 -0.3345 -0.3262 -0.5133
 7367SOL    HW133030   9.433   9.162   1.363 -0.9700 -0.0824  1.1974
 7367SOL    HW233031   9.324   9.174   1.242 -1.1877 -2.9073  1.0983
 7368SOL     OW33032   9.833   0.771   2.774  0.9876  0.6827 -0.9482
 7368SOL    HW133033   9.756   0.708   2.765  1.3886  0.2090 -1.1243
 7368SOL    HW233034   9.918   0.721   2.759  1.3926  0.9618  0.3630
 7369SOL     OW33035   9.044   7.560   4.649 -0.1621 -0.4597 -0.0284
 7369SOL    HW133036   8.950   7.563   4.682  0.3414 -1.4259  1.5102
 7369SOL    HW233037   9.049   7.503   4.567 -0.8012 -0.8953  0.2423
 7370SOL     OW33038   0.266   8.064   5.194  0.2124 -0.1799 -0.4289
 7370SOL    HW133039   0.309   7.998   5.133 -0.9361 -0.6032 -0.7924
 7370SOL    HW233040   0.216   8.016   5.265  0.8238  0.3122  0.3395
 7371SOL     OW33041   8.303   1.708   3.622  0.3923 -0.7413 -0.1517
 7371SOL    HW133042   8.206   1.685   3.631  0.2066 -0.1371 -0.6124
 7371SOL    HW233043   8.358   1.626   3.638 -0.1511 -0.8913  1.0689
 7372SOL     OW33044   3.181   4.531   1.619 -0.2922  0.1718  0.0080
 7372SOL    HW133045   3.093   4.485   1.626 -0.0652 -0.0837  1.3021
 7372SOL    HW233046   3.172   4.626   1.651 -0.0890  0.1443  0.1421
 7373SOL     OW33047   1.680   6.369   4.914 -0.4664  0.1560  0.0885
 7373SOL    HW133048   1.598   6.312   4.918 -0.2534 -0.1761 -0.2234
 7373SOL    HW233049   1.665   6.446   4.852 -0.3947 -0.1544 -0.3235
 7374SOL     OW33050   2.701   7.177   6.252 -0.5083  0.2793 -0.1121
 7374SOL    HW133051   2.788   7.181   6.302 -0.0787 -0.8354 -0.7666
 7374SOL    HW233052   2.652   7.263   6.265  1.3888  1.5254 -0.9850
 7375SOL     OW33053   2.864   3.075   3.221  0.5870 -0.9788  0.7633
 7375SOL    HW133054   2.888   3.031   3.307  0.9012  1.0000  1.7220
 7375SOL    HW233055   2.898   3.169   3.220 -2.8750  0.3814  0.1674
 7376SOL     OW33056   8.260   3.507   0.163  0.5216  0.0402  0.0942
 7376SOL    HW133057   8.268   3.547   0.254 -2.7033  0.8140  0.0814
 7376SOL    HW233058   8.237   3.579   0.097 -3.8887 -1.5056 -0.1850
 7377SOL     OW33059   4.200   3.875   2.569  0.0205  0.5195 -0.4460
 7377SOL    HW133060   4.292   3.883   2.531  0.4345  1.5920  0.7467
 7377SOL    HW233061   4.205   3.835   2.660 -0.5679  1.6561  0.0945
 7378SOL     OW33062   9.386   2.895   3.132 -0.3835  0.1565  0.2735
 7378SOL    HW133063   9.456   2.825   3.146 -0.0115  0.6158  0.7044
 7378SOL    HW233064   9.425   2.971   3.079  0.5144  2.0662  3.5067
 7379SOL     OW33065   3.844   5.579   3.276 -0.2313  0.3205 -0.4301
 7379SOL    HW133066   3.808   5.596   3.368 -0.5598 -1.5696 -0.1890
 7379SOL    HW233067   3.777   5.527   3.223  0.1874  0.9187 -1.5606
 7380SOL     OW33068   0.484   8.081   4.788 -0.1801  0.6971 -0.4312
 7380SOL    HW133069   0.434   8.165   4.807 -0.2880  0.4683  0.3385
 7380SOL    HW233070   0.455   8.044   4.700 -3.1300 -0.6832  1.0205
 7381SOL     OW33071   0.440   1.765   4.069  0.4816 -0.0997 -0.3652
 7381SOL    HW133072   0.370   1.708   4.113  0.5206 -0.0038 -0.1779
 7381SOL    HW233073   0.527   1.754   4.117  1.0126 -1.4909 -1.5901
 7382SOL     OW33074   8.815   3.214   1.611  0.1047 -0.0614  0.0121
 7382SOL    HW133075   8.773   3.150   1.547  1.0175 -1.6574  0.9702
 7382SOL    HW233076   8.870   3.280   1.561  0.9560 -1.4012 -0.8406
 7383SOL     OW33077   1.376   9.010   3.626 -0.2304  0.1855 -0.2928
 7383SOL    HW133078   1.419   8.921   3.642 -0.0152  0.2491 -0.5107
 7383SOL    HW233079   1.340   9.045   3.713  0.0169  0.0574 -0.1362
 7384SOL     OW33080   9.061   2.922   1.508  0.0879 -0.6937  0.1933
 7384SOL    HW133081   8.978   2.870   1.531 -0.5984  1.1690  2.0392
 7384SOL    HW233082   9.140   2.861   1.513 -0.9626 -2.1267 -0.0594
 7385SOL     OW33083   9.796   3.212   1.721  0.3338  0.1125  0.5073
 7385SOL    HW133084   9.856   3.283   1.684  0.8207  1.1541  3.1531
 7385SOL    HW233085   9.849   3.152   1.782 -0.1402 -2.3667 -1.4395
 7386SOL     OW33086   9.342   7.436   4.288  0.0396 -0.3784 -0.7865
 7386SOL    HW133087   9.293   7.353   4.261 -2.0933 -0.4136  2.8957
 7386SOL    HW233088   9.298   7.515   4.246 -1.2471 -0.6623  0.0259
 7387SOL     OW33089   9.005   6.287   1.183 -0.0188  0.0765 -0.0555
 7387SOL    HW133090   9.090   6.237   1.200  1.2049  2.2804  0.4440
 7387SOL    HW233091   8.939   6.226   1.139  1.2295 -2.1210  1.0418
 7388SOL     OW33092   3.693   7.332   3.097 -0.0735  0.1081 -0.3534
 7388SOL    HW133093   3.752   7.412   3.094  0.7344 -0.4390  0.7945
 7388SOL    HW233094   3.738   7.255   3.051  0.1983 -0.3635  0.6993
 7389SOL     OW33095   5.668   0.391   0.449 -0.0691 -0.5934 -0.1493
 7389SOL    HW133096   5.694   0.298   0.476  0.0005 -0.9038 -1.2825
 7389SOL    HW233097   5.727   0.457   0.497  0.7797 -1.1802 -0.3807
 7390SOL     OW33098   6.444   9.266   1.866  0.3086  0.1025 -0.0011
 7390SOL    HW133099   6.404   9.188   1.818  2.0949 -0.9053  0.1010
 7390SOL    HW233100   6.462   9.242   1.961  1.2544  0.4983 -0.0730
 7391SOL     OW33101   0.444   4.315   3.194  0.1167 -0.2935 -0.0497
 7391SOL    HW133102   0.443   4.316   3.094  1.1192  2.1424 -0.0574
 7391SOL    HW233103   0.366   4.366   3.230  0.6541  0.2097  0.4109
 7392SOL     OW33104   2.470   1.787   4.298  0.1613 -0.0381 -0.0113
 7392SOL    HW133105   2.431   1.879   4.289  0.4872  0.2093  1.0079
 7392SOL    HW233106   2.471   1.761   4.395  0.4978 -0.9305 -0.2523
 7393SOL     OW33107   2.330   0.112   3.660  0.1112  0.1206  0.2405
 7393SOL    HW133108   2.321   0.022   3.702  2.4096 -0.9139 -1.3606
 7393SOL    HW233109   2.421   0.149   3.682 -0.7742  2.0083  0.7800
 7394SOL     OW33110   9.275   1.007   4.804 -0.0811  0.1503 -0.0352
 7394SOL    HW133111   9.275   1.077   4.875  0.0608  1.1634 -1.0236
 7394SOL    HW233112   9.340   1.033   4.732 -1.5943  0.0690 -1.4403
 7395SOL     OW33113   1.273   4.468   4.292 -0.0144  0.6127  0.1300
 7395SOL    HW133114   1.198   4.532   4.275  0.5512  1.2278 -0.0630
 7395SOL    HW233115   1.279   4.450   4.390  0.2339  1.3577  0.2542
 7396SOL     OW33116   1.939   3.885   6.112 -0.0070 -0.0715  0.3038
 7396SOL    HW133117   2.022   3.829   6.111 -0.3214 -0.5381 -0.3435
 7396SOL    HW233118   1.877   3.855   6.039 -0.2421  1.0281  0.0310
 7397SOL     OW33119   9.881   6.825   5.610  0.3540  0.1358 -0.4700
 7397SOL    HW133120   9.875   6.924   5.595 -0.5416 -0.0347 -1.2289
 7397SOL    HW233121   9.907   6.808   5.706 -2.2827  1.0774  0.4590
 7398SOL     OW33122   2.921   4.618   1.425 -1.1567  1.0835 -0.5582
 7398SOL    HW133123   2.954   4.701   1.469  0.6352 -0.3407  0.8763
 7398SOL    HW233124   2.975   4.601   1.342 -0.6033  0.6484 -0.1172
 7399SOL     OW33125   8.499   3.819   1.054  0.2585  0.6960 -0.7795
 7399SOL    HW133126   8.560   3.762   1.109 -0.0224  0.8406 -0.3128
 7399SOL    HW233127   8.553   3.882   0.999  0.5335  0.7544 -0.4448
 7400SOL     OW33128   0.109   6.569   5.005 -0.0163 -0.1022  0.5655
 7400SOL    HW133129   0.025   6.568   5.059  0.3754  2.1102  1.2740
 7400SOL    HW233130   0.086   6.566   4.908 -1.0055  1.6483  0.7226
 7401SOL     OW33131   3.044   8.893   4.372 -0.2196  0.2648 -0.9619
 7401SOL    HW133132   3.010   8.985   4.354 -4.4467 -1.3134 -1.6141
 7401SOL    HW233133   3.007   8.860   4.459 -1.2609 -1.9237 -2.2005
 7402SOL     OW33134   6.927   8.530   2.592 -0.0980  0.4285 -0.1278
 7402SOL    HW133135   6.876   8.581   2.661  1.0868  0.7270  0.5367
 7402SOL    HW233136   7.011   8.494   2.633  0.3920  0.2251 -1.3071
 7403SOL     OW33137   6.898   8.287   5.058 -0.2134 -0.0632 -0.2434
 7403SOL    HW133138   6.981   8.343   5.067  0.3993 -0.9690 -0.1691
 7403SOL    HW233139   6.914   8.215   4.991 -0.6307 -0.7945  0.4348
 7404SOL     OW33140   0.188   0.158   2.374 -0.5381  0.5220 -0.4652
 7404SOL    HW133141   0.098   0.141   2.415 -0.0167 -2.5113 -0.4604
 7404SOL    HW233142   0.227   0.242   2.412 -2.2652  0.4923  1.4442
 7405SOL     OW33143   3.283   5.565   4.049 -0.2761  0.2454  0.0221
 7405SOL    HW133144   3.228   5.594   4.128  0.0879 -0.0104  0.3637
 7405SOL    HW233145   3.312   5.471   4.061  2.5263  1.2134  1.1112
 7406SOL     OW33146   0.190   8.557   1.067  0.4553 -0.9401 -0.1075
 7406SOL    HW133147   0.238   8.645   1.068  0.7678 -1.1012 -0.6412
 7406SOL    HW233148   0.133   8.549   1.149 -0.8447  0.4545 -0.8611
 7407SOL     OW33149   4.148   1.232   1.407  0.4399  0.3232 -0.1603
 7407SOL    HW133150   4.099   1.297   1.465  1.6031  0.3928  0.7789
 7407SOL    HW233151   4.129   1.139   1.438  1.8336  0.4015  0.9883
 7408SOL     OW33152   5.511   7.914   2.174 -0.2006 -0.8998  0.3643
 7408SOL    HW133153   5.463   7.836   2.215  0.8131 -1.2368  0.9421
 7408SOL    HW233154   5.557   7.966   2.246  2.3500 -2.0028 -0.3783
 7409SOL     OW33155   7.863   2.606   1.559 -0.0473 -0.3046  0.0706
 7409SOL    HW133156   7.803   2.629   1.635  0.3716 -1.0106  0.6272
 7409SOL    HW233157   7.948   2.568   1.594  1.3643  2.0719 -0.6335
 7410SOL     OW33158   5.806   8.808   2.831  0.3858 -0.2400 -0.0331
 7410SOL    HW133159   5.706   8.805   2.836  0.4046 -3.0577 -0.4420
 7410SOL    HW233160   5.834   8.871   2.759 -1.1509 -0.5314 -0.9045
 7411SOL     OW33161   6.482   0.317   3.589  0.1261 -0.2100 -0.1296
 7411SOL    HW133162   6.390   0.358   3.588  0.4866  0.6144  0.0262
 7411SOL    HW233163   6.474   0.218   3.585 -0.8206 -0.1982  1.0127
 7412SOL     OW33164   3.069   3.374   2.053 -0.0059  0.4673 -0.3658
 7412SOL    HW133165   3.056   3.294   1.995  0.5570 -0.1211  0.3190
 7412SOL    HW233166   3.089   3.345   2.147 -1.6299  1.4100  0.2966
 7413SOL     OW33167   0.804   3.967   1.855  0.2796  0.5347 -0.0270
 7413SOL    HW133168   0.762   3.958   1.765 -0.7121  2.4104  0.2265
 7413SOL    HW233169   0.860   4.050   1.858  0.3157  0.4843  1.0778
 7414SOL     OW33170   2.635   1.336   4.612 -0.6408 -0.0178  0.0218
 7414SOL    HW133171   2.690   1.369   4.535 -1.4343 -0.2060 -0.6347
 7414SOL    HW233172   2.685   1.265   4.662  0.1887  0.6475  0.1429
 7415SOL     OW33173   1.484   0.571   4.553  0.1252  0.1964  0.1214
 7415SOL    HW133174   1.521   0.660   4.582  0.6022  0.5980 -1.6401
 7415SOL    HW233175   1.554   0.520   4.503 -0.4174 -0.8166  0.3776
 7416SOL     OW33176   2.448   7.704   3.234  0.2180  0.3976 -0.1172
 7416SOL    HW133177   2.397   7.780   3.274  1.0093  0.0238  1.6441
 7416SOL    HW233178   2.392   7.621   3.238 -0.0503  0.5470 -0.6401
 7417SOL     OW33179   0.922   4.145   2.479  0.7598  0.4719 -0.1220
 7417SOL    HW133180   0.887   4.177   2.567  0.3953 -0.6521  0.1496
 7417SOL    HW233181   0.914   4.045   2.474 -1.5077  0.7098 -2.4177
 7418SOL     OW33182   3.435   5.128   3.809  0.3025  0.3547  0.5324
 7418SOL    HW133183   3.409   5.166   3.720 -0.0560 -0.4342  0.2915
 7418SOL    HW233184   3.355   5.083   3.851  1.7242 -4.0334 -1.2123
 7419SOL     OW33185   2.888   1.102   2.410 -0.2930  0.3001  0.5395
 7419SOL    HW133186   2.917   1.190   2.372  0.6414 -1.2490 -2.5436
 7419SOL    HW233187   2.789   1.104   2.427 -0.1322  2.2106  1.2601
 7420SOL     OW33188   2.879   5.824   6.234  0.4449  0.1373  0.5641
 7420SOL    HW133189   2.877   5.883   6.153 -2.3080  1.7287  1.6970
 7420SOL    HW233190   2.945   5.860   6.300  1.7218 -0.4047 -0.3961
 7421SOL     OW33191   1.321   8.495   1.075  0.1360 -0.3029  0.1356
 7421SOL    HW133192   1.308   8.584   1.031  1.3854 -0.9631 -1.6104
 7421SOL    HW233193   1.232   8.457   1.098 -0.4386  1.1494  0.4061
 7422SOL     OW33194   2.551   6.211   5.803 -0.1169  0.0176 -0.4373
 7422SOL    HW133195   2.646   6.220   5.832 -0.2349 -0.2622  0.0522
 7422SOL    HW233196   2.534   6.268   5.723  0.5457 -0.1919 -0.7210
 7423SOL     OW33197   5.849   2.137   3.335  0.0220 -0.1236 -0.0692
 7423SOL    HW133198   5.836   2.069   3.262 -1.5155 -1.7909  1.6947
 7423SOL    HW233199   5.777   2.207   3.328 -1.0986 -1.1647  0.7715
 7424SOL     OW33200   3.858   4.226   2.082  0.3970 -0.2131 -0.0301
 7424SOL    HW133201   3.888   4.265   2.169  0.8806 -0.5793 -0.0289
 7424SOL    HW233202   3.782   4.163   2.097 -1.2459  1.6797 -0.1742
 7425SOL     OW33203   9.003   8.044   2.845 -0.1105 -0.5077  0.2911
 7425SOL    HW133204   8.905   8.025   2.851 -0.3911  1.5934  4.8351
 7425SOL    HW233205   9.017   8.133   2.800 -0.1853 -1.2543 -1.2411
 7426SOL     OW33206   5.456   0.220   1.099 -0.1983  0.1041  0.7210
 7426SOL    HW133207   5.367   0.265   1.109 -0.0974  0.3095  0.7018
 7426SOL    HW233208   5.480   0.214   1.002 -0.4037 -0.3708  0.6973
 7427SOL     OW33209   2.058   6.821   5.612 -0.1685 -0.6284 -0.4606
 7427SOL    HW133210   1.998   6.787   5.685  2.1486 -4.1128 -0.0418
 7427SOL    HW233211   2.072   6.749   5.544  4.4144 -0.4022  0.0815
 7428SOL     OW33212   3.446   9.686   2.229 -0.0535  0.1816  0.4767
 7428SOL    HW133213   3.381   9.716   2.159  0.5366  1.0078  0.2742
 7428SOL    HW233214   3.398   9.637   2.301 -0.6876 -0.6288 -0.4698
 7429SOL     OW33215   2.610   0.098   3.869 -0.0911 -0.1682 -0.6699
 7429SOL    HW133216   2.688   0.069   3.924  0.3946  0.7978 -0.8252
 7429SOL    HW233217   2.641   0.165   3.801 -0.9136 -0.3901 -1.2683
 7430SOL     OW33218   9.007   5.471   3.848  0.0143  0.5036 -0.1464
 7430SOL    HW133219   8.999   5.384   3.799  1.0959  1.7589 -2.6262
 7430SOL    HW233220   9.102   5.484   3.876 -0.1487  0.8936  0.2238
 7431SOL     OW33221   5.059   7.467   3.965 -0.1241  0.4244 -0.3995
 7431SOL    HW133222   5.046   7.551   4.017 -2.9100 -1.1916  1.6419
 7431SOL    HW233223   5.156   7.441   3.967  0.3745  2.3207  0.9304
 7432SOL     OW33224   8.667   8.398   4.163 -0.0495  0.3362  0.1706
 7432SOL    HW133225   8.587   8.458   4.168 -0.5301 -0.1678 -1.1529
 7432SOL    HW233226   8.640   8.310   4.124  0.8477 -0.4012  1.1833
 7433SOL     OW33227   8.812   3.036   2.678 -0.2183 -0.0970  0.2777
 7433SOL    HW133228   8.854   2.991   2.756 -1.9717 -1.1201  0.6810
 7433SOL    HW233229   8.770   3.122   2.707  1.5656  0.9339 -0.1286
 7434SOL     OW33230   5.192   1.358   3.810  1.1058 -0.0175 -0.7182
 7434SOL    HW133231   5.168   1.265   3.837 -0.0314  0.5857  0.4139
 7434SOL    HW233232   5.240   1.356   3.722 -0.3958 -1.5340 -1.5274
 7435SOL     OW33233   0.287   3.456   2.032  0.1367 -0.4713 -0.1795
 7435SOL    HW133234   0.261   3.413   2.118 -0.0806 -1.4896 -0.7505
 7435SOL    HW233235   0.251   3.550   2.029 -1.0546 -0.9049  0.2389
 7436SOL     OW33236   9.235   8.856   4.370 -0.2225  0.3835 -0.6830
 7436SOL    HW133237   9.236   8.894   4.278 -0.1173  0.7093 -0.5493
 7436SOL    HW233238   9.141   8.838   4.398 -0.1584 -1.3626 -1.5256
 7437SOL     OW33239   1.008   1.111   2.116  0.0210  0.0181 -0.6545
 7437SOL    HW133240   1.047   1.033   2.165 -1.7057 -0.4620  0.0149
 7437SOL    HW233241   1.054   1.195   2.144  1.8518 -0.7385 -1.3294
 7438SOL     OW33242   3.910   3.150   4.974  0.4600  0.8494 -0.1562
 7438SOL    HW133243   3.882   3.096   4.895  1.1306  2.9502 -1.8866
 7438SOL    HW233244   3.964   3.093   5.036 -3.1729 -1.8604  0.7074
 7439SOL     OW33245   8.940   5.469   0.738 -0.1172  0.6505  0.1569
 7439SOL    HW133246   9.013   5.467   0.807  0.1317  0.3401 -0.1114
 7439SOL    HW233247   8.854   5.442   0.780  0.3473 -1.1405 -0.0110
 7440SOL     OW33248   0.189   1.570   4.449  0.0067  0.3573 -0.3211
 7440SOL    HW133249   0.096   1.601   4.467 -0.6076 -0.2136 -2.4513
 7440SOL    HW233250   0.210   1.493   4.509 -0.8130  0.6123  0.3052
 7441SOL     OW33251   5.043   3.597   4.199 -0.1087 -0.1956  0.1969
 7441SOL    HW133252   5.012   3.690   4.218 -0.7811 -0.6847  1.5102
 7441SOL    HW233253   5.133   3.583   4.241  0.3181  0.0759 -0.6046
 7442SOL     OW33254   2.493   4.870   3.120  0.0464  0.2283  0.2306
 7442SOL    HW133255   2.499   4.802   3.047  1.0987  1.2135 -0.6144
 7442SOL    HW233256   2.437   4.834   3.195 -0.5266 -1.0295 -0.7908
 7443SOL     OW33257   0.667   5.188   2.020  0.8180 -0.6795 -0.3669
 7443SOL    HW133258   0.572   5.162   2.035  0.7633  0.1347  0.7285
 7443SOL    HW233259   0.698   5.152   1.932 -0.1628 -1.8882 -0.2280
 7444SOL     OW33260   9.148   6.677   3.110  0.7144  0.3488 -0.1910
 7444SOL    HW133261   9.106   6.766   3.092  1.9808  0.9774 -0.0869
 7444SOL    HW233262   9.129   6.615   3.034  1.0410  1.1599 -0.9408
 7445SOL     OW33263   2.329   3.462   1.722  0.0321  0.3489 -0.2737
 7445SOL    HW133264   2.351   3.376   1.676  1.2865  0.4130  0.1871
 7445SOL    HW233265   2.380   3.537   1.679 -0.3267  0.7150 -0.0648
 7446SOL     OW33266   4.409   8.405   0.856  0.6848  0.0192  0.6154
 7446SOL    HW133267   4.457   8.493   0.849  2.6012 -1.0897 -0.9487
 7446SOL    HW233268   4.311   8.421   0.859  1.0726  2.3262  2.6019
 7447SOL     OW33269   9.881   5.288   1.307 -0.6568 -0.1529  0.3474
 7447SOL    HW133270   9.888   5.378   1.264 -0.6386  0.2787  1.2441
 7447SOL    HW233271   9.788   5.254   1.297 -0.9739  0.4867  1.0171
 7448SOL     OW33272   7.624   8.598   5.901 -0.0692 -0.2120  0.1814
 7448SOL    HW133273   7.658   8.688   5.876  0.1926 -0.2853  0.2781
 7448SOL    HW233274   7.693   8.528   5.881  0.0545 -0.2961  0.8958
 7449SOL     OW33275   7.946   0.769   3.820  0.1965 -0.2025 -0.7101
 7449SOL    HW133276   7.849   0.753   3.835  0.4086 -1.6429 -0.8206
 7449SOL    HW233277   7.989   0.794   3.907  0.1011 -1.5470 -0.2729
 7450SOL     OW33278   2.419   9.720   2.039 -0.2734 -0.0767 -0.0418
 7450SOL    HW133279   2.438   9.756   2.130  0.9380  2.2643 -1.1923
 7450SOL    HW233280   2.334   9.759   2.005 -0.5717 -0.7272 -0.0653
 7451SOL     OW33281   9.313   4.739   5.583 -0.3685 -0.2361 -0.2262
 7451SOL    HW133282   9.269   4.819   5.623 -0.9446 -0.5359 -0.2432
 7451SOL    HW233283   9.370   4.767   5.506  0.0054  0.2357  0.2232
 7452SOL     OW33284   0.335   5.294   2.058  0.8284  0.2183 -0.1008
 7452SOL    HW133285   0.301   5.276   2.150  0.1765  0.7358 -0.2359
 7452SOL    HW233286   0.402   5.367   2.061 -0.0912  1.0800 -0.1890
 7453SOL     OW33287   4.971   0.720   1.336 -0.3989  0.0571  0.2413
 7453SOL    HW133288   5.067   0.697   1.321  0.3682  1.8399  2.1029
 7453SOL    HW233289   4.944   0.794   1.274 -0.0702  0.6899  0.8419
 7454SOL     OW33290   5.455   2.811   3.500 -0.0915 -0.1759  0.2634
 7454SOL    HW133291   5.363   2.820   3.539  0.4876 -1.8347  2.0919
 7454SOL    HW233292   5.523   2.847   3.564  0.5611  1.2692 -1.1799
 7455SOL     OW33293   3.415   0.828   2.140 -0.5390 -0.4109  0.0563
 7455SOL    HW133294   3.465   0.877   2.211 -0.2663  0.4636 -0.7249
 7455SOL    HW233295   3.445   0.733   2.138 -0.1299 -0.3023  0.7161
 7456SOL     OW33296   5.330   3.510   2.314  0.0344  0.1667 -0.1426
 7456SOL    HW133297   5.331   3.603   2.275  0.6193  0.0794 -0.3491
 7456SOL    HW233298   5.420   3.490   2.353 -0.0944 -0.3157 -0.0973
 7457SOL     OW33299   0.487   5.952   2.448 -0.3582 -0.3665  0.7742
 7457SOL    HW133300   0.470   6.046   2.478 -2.1185 -0.5717  0.4810
 7457SOL    HW233301   0.436   5.934   2.364 -0.5584 -1.7709  1.1721
 7458SOL     OW33302   1.688   4.415   4.208  0.5021 -0.0654  0.4732
 7458SOL    HW133303   1.634   4.486   4.253 -0.8788 -1.1866  0.5828
 7458SOL    HW233304   1.774   4.456   4.175 -0.9811  2.0258 -0.9192
 7459SOL     OW33305   6.170   1.474   4.393  0.4569  0.0832 -0.4096
 7459SOL    HW133306   6.126   1.531   4.324 -0.8638  0.0246  0.3641
 7459SOL    HW233307   6.106   1.403   4.423  0.8277  0.3941  1.1919
 7460SOL     OW33308   2.004   5.970   3.131  0.1190  0.5160  0.0275
 7460SOL    HW133309   2.023   6.066   3.112  2.1024  0.1507  0.0630
 7460SOL    HW233310   2.062   5.913   3.072 -0.3325 -0.6436  0.6945
 7461SOL     OW33311   4.138   1.912   2.953  0.1739  0.0394 -0.3388
 7461SOL    HW133312   4.218   1.871   2.910  0.8258  0.2488  0.6388
 7461SOL    HW233313   4.058   1.901   2.894  0.8546 -0.4635 -1.1748
 7462SOL     OW33314   9.608   8.853   4.861 -0.1777  0.3708 -0.0034
 7462SOL    HW133315   9.689   8.801   4.891 -0.7546 -0.5566 -0.0097
 7462SOL    HW233316   9.615   8.871   4.763  0.4351  1.0441  0.1661
 7463SOL     OW33317   5.439   0.500   1.933 -0.0480  0.1589 -0.5105
 7463SOL    HW133318   5.432   0.566   1.858 -2.0646  0.3901 -0.1303
 7463SOL    HW233319   5.402   0.412   1.903  0.0982 -0.0357 -0.1197
 7464SOL     OW33320   3.649   4.508   2.200 -0.0017  0.2130 -0.2257
 7464SOL    HW133321   3.605   4.558   2.275 -0.0369 -0.1024 -0.0336
 7464SOL    HW233322   3.599   4.523   2.115 -0.5934 -0.2885  0.0266
 7465SOL     OW33323   6.385   8.358   4.130 -0.0116 -0.1284 -0.2375
 7465SOL    HW133324   6.311   8.422   4.109 -1.2725 -1.4769 -0.0382
 7465SOL    HW233325   6.352   8.291   4.197  1.2588 -0.9874 -0.4589
 7466SOL     OW33326   0.516   8.091   2.110  0.0330 -0.1888  0.1881
 7466SOL    HW133327   0.451   8.114   2.037  0.4098 -0.4135 -0.2206
 7466SOL    HW233328   0.513   7.993   2.128  0.2345 -0.1955  0.1910
 7467SOL     OW33329   3.429   7.100   2.407  0.2310 -0.2681 -0.1043
 7467SOL    HW133330   3.465   7.103   2.500 -1.0438  2.2114  0.3543
 7467SOL    HW233331   3.357   7.031   2.401  1.2964 -1.4491  0.3428
 7468SOL     OW33332   0.807   7.419   2.822  0.2539 -0.0117 -0.0695
 7468SOL    HW133333   0.859   7.384   2.901  0.3374  1.1660  0.4100
 7468SOL    HW233334   0.730   7.473   2.855  0.2986  0.4994 -0.7961
 7469SOL     OW33335   1.313   5.729   1.328  0.3963  0.4342 -0.4753
 7469SOL    HW133336   1.411   5.713   1.340  0.4570 -0.8512 -2.4958
 7469SOL    HW233337   1.275   5.662   1.265 -2.0329  0.2525  1.1024
 7470SOL     OW33338   3.665   9.730   2.394  0.3491  0.6183  0.3885
 7470SOL    HW133339   3.638   9.819   2.429  0.1780  0.1107  1.5855
 7470SOL    HW233340   3.597   9.697   2.328 -0.6542  0.4777  1.4760
 7471SOL     OW33341   7.317   9.403   5.337  0.4924 -0.1539 -0.0258
 7471SOL    HW133342   7.264   9.417   5.420  0.4916  1.0470 -0.2116
 7471SOL    HW233343   7.364   9.314   5.341 -0.5753 -0.6906  0.6513
 7472SOL     OW33344   0.177   5.472   5.951 -0.2206  0.6924  0.0109
 7472SOL    HW133345   0.163   5.556   6.004 -0.2417 -0.8118  2.4846
 7472SOL    HW233346   0.110   5.403   5.980 -0.8826  0.1348 -2.7354
 7473SOL     OW33347   2.750   7.155   4.433  0.0454 -0.3271  0.3869
 7473SOL    HW133348   2.803   7.235   4.460  2.2776 -1.2430 -1.0786
 7473SOL    HW233349   2.781   7.076   4.486  0.4243 -0.9385 -0.7260
 7474SOL     OW33350   9.767   5.129   3.151 -0.4137  0.3945  0.1725
 7474SOL    HW133351   9.806   5.189   3.080 -2.7461  0.5807 -0.9922
 7474SOL    HW233352   9.777   5.034   3.123  1.4537  0.3099  1.0682
 7475SOL     OW33353   8.028   0.536   5.281  0.2066  0.1829 -0.4364
 7475SOL    HW133354   8.085   0.595   5.338 -0.8726  0.5364  0.2976
 7475SOL    HW233355   8.081   0.458   5.250  0.8876  0.1285  0.8302
 7476SOL     OW33356   8.277   9.992   3.764  0.2939 -0.5493  0.6587
 7476SOL    HW133357   8.357   9.953   3.810  0.8490  0.0544  0.2183
 7476SOL    HW233358   8.303  10.078   3.719 -0.2287 -1.1407 -0.8107
 7477SOL     OW33359   9.178   3.023   0.911  0.8107  0.2552 -0.4232
 7477SOL    HW133360   9.199   2.928   0.889 -2.1640 -0.2083 -1.6058
 7477SOL    HW233361   9.131   3.065   0.833 -1.0430  1.6323  1.3896
 7478SOL     OW33362   3.540   6.286   1.172  0.1569 -0.2331 -0.2150
 7478SOL    HW133363   3.530   6.362   1.236  0.9542 -1.2149  1.1097
 7478SOL    HW233364   3.637   6.265   1.162  0.1521  0.7533 -2.7881
 7479SOL     OW33365   2.082   6.001   1.389  0.3021 -0.7196 -0.5782
 7479SOL    HW133366   2.004   5.942   1.410 -0.4192  0.7929  1.0064
 7479SOL    HW233367   2.159   5.944   1.359 -0.7729 -2.3710 -0.2620
 7480SOL     OW33368   8.697   8.377   4.730 -0.1588  0.4305  0.6859
 7480SOL    HW133369   8.681   8.473   4.752 -1.8742  0.5693 -1.0389
 7480SOL    HW233370   8.777   8.369   4.671 -0.7107  0.9172 -0.1274
 7481SOL     OW33371   7.190   8.764   4.605  0.4883 -0.0535 -0.2696
 7481SOL    HW133372   7.119   8.832   4.621  0.4399  0.0991 -1.0982
 7481SOL    HW233373   7.277   8.797   4.643 -0.2268 -0.9999  2.2719
 7482SOL     OW33374   9.158   0.556   3.013  0.2305  0.7178  0.0687
 7482SOL    HW133375   9.145   0.575   2.915  0.1508 -0.1698 -0.0990
 7482SOL    HW233376   9.071   0.560   3.060  0.0037 -0.6328 -0.2222
 7483SOL     OW33377   2.574   3.402   3.362  0.0637  0.1389  0.0877
 7483SOL    HW133378   2.541   3.453   3.283 -1.8096 -0.6488  0.3365
 7483SOL    HW233379   2.575   3.462   3.443  1.8403  0.9016 -0.4709
 7484SOL     OW33380   9.334   7.374   2.274 -0.9411 -0.4889 -0.1489
 7484SOL    HW133381   9.319   7.460   2.224  1.5738 -0.8718 -1.6575
 7484SOL    HW233382   9.286   7.300   2.228 -1.6577 -0.2131  0.1433
 7485SOL     OW33383   6.010   0.735   0.623  0.2388 -0.4991  0.0117
 7485SOL    HW133384   6.037   0.824   0.586 -1.6035  0.8580  1.8253
 7485SOL    HW233385   6.078   0.704   0.689  0.9142 -0.4927 -0.6654
 7486SOL     OW33386   1.969   3.255   2.678  0.3079  0.2905  0.3307
 7486SOL    HW133387   1.902   3.212   2.739 -0.5020 -0.0193 -0.7586
 7486SOL    HW233388   2.035   3.186   2.649 -0.7534 -0.1686 -1.0906
 7487SOL     OW33389   1.151   3.102   4.243  0.1121  0.1532  1.1552
 7487SOL    HW133390   1.129   3.196   4.218  1.1770 -0.0574 -0.6562
 7487SOL    HW233391   1.075   3.042   4.218 -0.5044  0.4916  2.1741
 7488SOL     OW33392   9.943   1.514   3.793  0.1099 -0.6799  0.6233
 7488SOL    HW133393   9.977   1.584   3.857  0.6598 -0.6602  0.3162
 7488SOL    HW233394   9.862   1.470   3.832 -0.4499  0.3675  0.6638
 7489SOL     OW33395   1.475   8.330   3.264  0.4504 -0.0650 -0.5340
 7489SOL    HW133396   1.527   8.378   3.335  0.4595  0.9043 -1.1900
 7489SOL    HW233397   1.533   8.260   3.223  0.5683 -0.3781  0.1538
 7490SOL     OW33398   7.331   7.631   2.819  0.1936  0.2067  0.0444
 7490SOL    HW133399   7.268   7.622   2.895 -0.0868  1.5425 -0.0114
 7490SOL    HW233400   7.395   7.705   2.837  1.9841 -1.3592  0.2531
 7491SOL     OW33401   8.385   8.078   4.317 -1.0636 -0.1889  0.0287
 7491SOL    HW133402   8.340   8.066   4.229  0.1345 -0.4448 -0.5507
 7491SOL    HW233403   8.384   8.175   4.342  1.4492  0.3727 -1.8214
 7492SOL     OW33404   5.853   2.034   1.700  0.6042  0.0064  0.1052
 7492SOL    HW133405   5.837   2.053   1.604 -1.6068  0.2810  0.5016
 7492SOL    HW233406   5.949   2.009   1.714  1.0085  0.2651 -2.0988
 7493SOL     OW33407   2.971   6.914   6.217  0.1705  0.4169 -0.3990
 7493SOL    HW133408   2.897   6.861   6.258  0.3178  1.4297  1.2090
 7493SOL    HW233409   3.057   6.863   6.225 -0.1289 -0.2078 -1.1415
 7494SOL     OW33410   2.173   6.809   4.254 -0.3215  0.0002  0.0011
 7494SOL    HW133411   2.193   6.770   4.344 -0.1686 -1.1534 -0.5293
 7494SOL    HW233412   2.256   6.811   4.199 -0.1192  1.9622  0.3424
 7495SOL     OW33413   2.612   4.389   0.136  0.5676 -0.2280 -0.8617
 7495SOL    HW133414   2.684   4.408   0.202 -1.5524 -1.0490  1.7536
 7495SOL    HW233415   2.613   4.292   0.113 -0.0706 -0.3435 -0.3948
 7496SOL     OW33416   1.784   3.130   4.757  0.9058 -0.1731  0.3011
 7496SOL    HW133417   1.730   3.197   4.808  0.9887 -1.9369  2.7907
 7496SOL    HW233418   1.864   3.103   4.811  0.7778 -2.4033 -0.5470
 7497SOL     OW33419   2.992   8.524   4.795 -0.4969 -0.6464  0.1030
 7497SOL    HW133420   3.007   8.589   4.720 -0.0569 -0.3945  0.4067
 7497SOL    HW233421   2.945   8.443   4.760  0.4112 -0.8822 -0.6165
 7498SOL     OW33422   4.084   4.571   2.887 -0.6538 -0.0088 -0.3534
 7498SOL    HW133423   4.144   4.553   2.810 -0.1939 -0.6431  0.1451
 7498SOL    HW233424   4.069   4.670   2.897  0.6130  0.1722 -0.2414
 7499SOL     OW33425   3.553   9.270   1.584  0.3614  0.2412 -0.0297
 7499SOL    HW133426   3.559   9.339   1.513 -0.3886  0.7916  0.4330
 7499SOL    HW233427   3.525   9.182   1.544  0.4621  0.4178 -0.4851
 7500SOL     OW33428   6.566   8.022   5.122 -0.0940 -0.3039 -0.0527
 7500SOL    HW133429   6.581   7.960   5.198 -0.6137 -1.6984 -1.0556
 7500SOL    HW233430   6.639   8.011   5.055  0.6986  1.3623  0.5185
 7501SOL     OW33431   0.185   4.895   1.975  0.0146  0.0604  0.3550
 7501SOL    HW133432   0.256   4.957   1.944  0.9569 -1.4185 -0.5237
 7501SOL    HW233433   0.125   4.870   1.899 -0.9736  0.6660  0.9163
 7502SOL     OW33434   7.073   2.607   3.206  0.1626  0.5454 -0.3535
 7502SOL    HW133435   7.162   2.653   3.211  0.1325  0.5282  0.3829
 7502SOL    HW233436   7.068   2.537   3.277 -0.3339  0.3556 -0.5757
 7503SOL     OW33437   1.849   9.439   1.225 -0.6714 -0.3680 -0.1029
 7503SOL    HW133438   1.871   9.351   1.184  0.8936  0.4415 -1.0090
 7503SOL    HW233439   1.812   9.423   1.317  0.0234 -1.9311 -0.0701
 7504SOL     OW33440   2.449   3.950   2.564  0.5241  0.4609 -0.9121
 7504SOL    HW133441   2.408   3.876   2.616  0.1523 -0.1344 -2.0237
 7504SOL    HW233442   2.472   3.917   2.472  1.4584  1.3924 -1.0297
 7505SOL     OW33443   5.661   0.941   1.145  0.1982 -0.0079 -0.3804
 7505SOL    HW133444   5.632   0.864   1.089 -0.3782 -0.4793  0.5593
 7505SOL    HW233445   5.756   0.965   1.123 -0.0910 -0.0561 -1.6931
 7506SOL     OW33446   8.990   6.103   6.463  0.7297  0.5860  0.4730
 7506SOL    HW133447   9.086   6.120   6.485  1.3874 -2.7972  0.4654
 7506SOL    HW233448   8.975   6.117   6.365  2.0618 -2.1153 -0.1796
 7507SOL     OW33449   1.838   7.311   1.034  0.2865  0.3528 -0.1855
 7507SOL    HW133450   1.761   7.302   0.971  1.7576 -1.4725 -1.7884
 7507SOL    HW233451   1.804   7.313   1.128 -1.7009 -0.3860 -0.8628
 7508SOL     OW33452   8.804   6.737   0.314  0.4127 -0.3713  0.0162
 7508SOL    HW133453   8.827   6.784   0.399 -0.3422  1.1954 -0.6163
 7508SOL    HW233454   8.710   6.705   0.318  0.2176  0.1369 -0.4059
 7509SOL     OW33455   9.073   6.586   2.788  0.4648 -0.0071 -0.1015
 7509SOL    HW133456   8.976   6.561   2.781  0.2977  0.6032 -0.0002
 7509SOL    HW233457   9.127   6.526   2.730  0.0187 -0.3404 -0.1721
 7510SOL     OW33458   0.021   7.653   2.561 -0.1680 -0.1062 -0.0108
 7510SOL    HW133459   0.005   7.710   2.481 -2.5404  0.8695  1.1323
 7510SOL    HW233460   0.004   7.557   2.538 -0.8634  0.1738 -0.6699
 7511SOL     OW33461   9.171   6.610   2.123 -0.8583 -0.4668  0.4846
 7511SOL    HW133462   9.202   6.671   2.050  1.1620 -0.4501  1.3469
 7511SOL    HW233463   9.229   6.529   2.127 -0.8272 -0.3774  2.2032
 7512SOL     OW33464   9.328   6.775   6.348  0.2719 -0.1230  0.4300
 7512SOL    HW133465   9.395   6.845   6.322 -0.7181  0.7771  0.2374
 7512SOL    HW233466   9.349   6.741   6.440  1.0763  0.0371  0.3112
 7513SOL     OW33467   6.255   7.573   3.580  0.6869  0.0326 -0.0523
 7513SOL    HW133468   6.157   7.587   3.569  0.8723  1.2354 -0.2287
 7513SOL    HW233469   6.301   7.591   3.493  1.2887  1.5476  0.5827
 7514SOL     OW33470   0.088   7.055   5.911 -0.2187  0.0547  0.0437
 7514SOL    HW133471   0.036   7.108   5.978 -1.8071 -0.1917 -0.9452
 7514SOL    HW233472   0.103   7.111   5.830  2.1847  0.5431  0.7991
 7515SOL     OW33473   1.552   7.970   3.764 -0.2721  0.1060 -0.5010
 7515SOL    HW133474   1.568   8.068   3.754  0.2062  0.0853  0.0161
 7515SOL    HW233475   1.509   7.952   3.853  1.2959 -0.3215  0.1915
 7516SOL     OW33476   9.569   7.049   0.232  0.4134 -0.5425 -0.3779
 7516SOL    HW133477   9.621   7.027   0.315 -1.1757 -1.9690  0.2633
 7516SOL    HW233478   9.568   6.969   0.172 -0.0486 -0.1350 -0.9137
 7517SOL     OW33479   7.564   2.254   0.036  0.3115 -0.1145  0.3134
 7517SOL    HW133480   7.517   2.328   0.083  0.0647  0.0673 -0.2158
 7517SOL    HW233481   7.649   2.288  -0.003  0.1300 -0.0752 -0.0496
 7518SOL     OW33482   8.561   0.763   2.437  0.6970 -0.3348  0.2573
 7518SOL    HW133483   8.547   0.688   2.372 -1.9828 -0.4745  0.9248
 7518SOL    HW233484   8.582   0.726   2.527 -0.3307 -0.3029  0.5192
 7519SOL     OW33485   0.320   1.424   4.886 -0.1990 -0.3318 -0.6224
 7519SOL    HW133486   0.414   1.412   4.852  0.9199  0.7769  1.9056
 7519SOL    HW233487   0.296   1.521   4.882 -0.7477 -0.4453 -0.0566
 7520SOL     OW33488   0.454   6.760   1.892  0.4609  0.3518 -0.4508
 7520SOL    HW133489   0.485   6.854   1.880  0.5110  0.3290 -0.4981
 7520SOL    HW233490   0.506   6.700   1.831  3.5615 -0.3254  2.7146
 7521SOL     OW33491   4.307   0.214   3.240 -0.2762  0.2584  0.0959
 7521SOL    HW133492   4.343   0.222   3.147 -1.2889 -0.6563 -0.3797
 7521SOL    HW233493   4.324   0.299   3.289  1.2800  0.3573 -0.5601
 7522SOL     OW33494   1.456   0.774   4.040 -0.2475 -0.2175 -0.2636
 7522SOL    HW133495   1.432   0.869   4.023 -0.7597 -0.5787 -1.6462
 7522SOL    HW233496   1.496   0.734   3.957  1.5086 -0.7400  0.8003
 7523SOL     OW33497   1.811   5.537   3.824 -0.5660  0.0767  0.1445
 7523SOL    HW133498   1.814   5.560   3.922 -2.2370  2.8239 -0.3831
 7523SOL    HW233499   1.809   5.438   3.813  1.4992 -0.3124  2.8157
 7524SOL     OW33500   8.102   1.556   2.803 -0.1784  0.1971  0.0491
 7524SOL    HW133501   8.119   1.598   2.893 -0.1516 -1.6512  0.9415
 7524SOL    HW233502   8.036   1.611   2.753  2.0657  2.9277 -0.0598
 7525SOL     OW33503   6.972   9.001   2.196 -0.2917 -0.4336  0.3046
 7525SOL    HW133504   7.044   8.964   2.138 -0.0338  1.2374 -0.4602
 7525SOL    HW233505   6.888   8.947   2.183 -0.3229  0.0749 -1.8500
 7526SOL     OW33506   6.577   8.439   3.223 -0.1233 -0.4462  0.2734
 7526SOL    HW133507   6.524   8.423   3.307  0.3026 -2.1588  0.2395
 7526SOL    HW233508   6.655   8.497   3.244  1.0219 -2.3687  1.4875
 7527SOL     OW33509   1.612   6.298   1.772 -0.1636  0.1344 -0.2409
 7527SOL    HW133510   1.627   6.241   1.691  0.3229 -0.2162  0.0990
 7527SOL    HW233511   1.659   6.385   1.760 -1.4326  0.7278 -1.0364
 7528SOL     OW33512   2.719   1.196   1.473  0.1910 -0.1257  0.7562
 7528SOL    HW133513   2.751   1.287   1.447 -0.6118 -0.5874 -2.0869
 7528SOL    HW233514   2.619   1.196   1.481  0.1995 -0.7093  0.9338
 7529SOL     OW33515   2.462   2.618   3.330 -0.5461 -0.4405  0.0550
 7529SOL    HW133516   2.447   2.659   3.421  1.8376 -1.1751  0.8048
 7529SOL    HW233517   2.557   2.629   3.304 -0.7867 -1.9939 -1.5164
 7530SOL     OW33518   9.323   1.668   3.864 -0.1876  0.0697 -0.4759
 7530SOL    HW133519   9.401   1.617   3.829 -0.8743  0.0417 -2.0349
 7530SOL    HW233520   9.354   1.751   3.910  0.7280  0.2770 -1.4627
 7531SOL     OW33521   1.360   2.121   3.223  0.1308 -0.3734  0.5293
 7531SOL    HW133522   1.296   2.149   3.151 -0.7246 -3.3601  0.0796
 7531SOL    HW233523   1.319   2.139   3.313 -0.4761 -0.3649  0.2529
 7532SOL     OW33524   1.984   6.105   0.712  0.4949  0.5874 -0.7521
 7532SOL    HW133525   1.890   6.135   0.694  0.6908  1.2407 -0.7204
 7532SOL    HW233526   1.998   6.096   0.811  0.7180  1.3541 -0.7076
 7533SOL     OW33527   4.782   1.179   0.966 -0.0661 -0.1156 -0.0815
 7533SOL    HW133528   4.878   1.160   0.946 -0.1492 -0.7169  0.0865
 7533SOL    HW233529   4.773   1.275   0.994  0.2173  0.4190 -1.7504
 7534SOL     OW33530   3.701   5.881   6.669 -0.2743  0.0894 -0.1644
 7534SOL    HW133531   3.668   5.975   6.664  0.4973  0.2573 -2.7241
 7534SOL    HW233532   3.695   5.838   6.578  2.2735 -1.3192  0.2737
 7535SOL     OW33533   8.883   2.350   0.465  0.1983 -0.3017  0.7106
 7535SOL    HW133534   8.828   2.268   0.446  0.5094 -0.3639  0.0848
 7535SOL    HW233535   8.980   2.327   0.457  0.2884  0.0907  0.6942
 7536SOL     OW33536   5.215   9.439   3.080 -0.3339  0.0874 -0.1564
 7536SOL    HW133537   5.313   9.458   3.085 -0.4741  0.7548  0.0814
 7536SOL    HW233538   5.184   9.446   2.986  0.3070 -2.4623 -0.6056
 7537SOL     OW33539   1.176   2.203   3.030  0.1223 -0.2465  0.6975
 7537SOL    HW133540   1.173   2.194   2.930  2.4988 -1.3390  0.6930
 7537SOL    HW233541   1.085   2.185   3.067 -0.3881 -1.7158 -1.1440
 7538SOL     OW33542   3.135   6.225   6.439  0.2667 -0.2369 -0.2477
 7538SOL    HW133543   3.070   6.168   6.389  1.0733 -2.5613  1.3157
 7538SOL    HW233544   3.112   6.225   6.536  1.1571  0.9568 -0.0223
 7539SOL     OW33545   9.000   7.345   0.070 -0.1638  0.2584 -0.8453
 7539SOL    HW133546   8.973   7.344  -0.026 -0.6827 -0.6503 -0.6950
 7539SOL    HW233547   9.050   7.261   0.092 -0.2492  0.3570 -0.2639
 7540SOL     OW33548   4.100   8.012   4.515 -0.2114  0.0829  0.1162
 7540SOL    HW133549   4.168   8.081   4.541 -0.6786  0.6121 -0.0496
 7540SOL    HW233550   4.014   8.058   4.493 -0.3623 -0.5152 -0.5391
 7541SOL     OW33551   4.755   4.640   0.297  0.6666  0.3273 -1.1474
 7541SOL    HW133552   4.789   4.581   0.371  0.6214 -0.0550 -1.4276
 7541SOL    HW233553   4.664   4.675   0.321  0.8392  0.5613 -0.8288
 7542SOL     OW33554   9.695   4.103   4.450  0.7230 -0.6033 -0.0872
 7542SOL    HW133555   9.754   4.041   4.398  3.0137  0.0887  1.6001
 7542SOL    HW233556   9.749   4.149   4.521 -1.7272  0.5398  1.1071
 7543SOL     OW33557   6.192   0.071   3.534  0.2077 -0.6387  0.0021
 7543SOL    HW133558   6.125   0.093   3.605  0.7692  0.0574  0.3281
 7543SOL    HW233559   6.185  -0.026   3.510  0.4525 -1.0406  1.4802
 7544SOL     OW33560   4.472   3.078   1.112  0.2293 -0.1713 -0.6993
 7544SOL    HW133561   4.537   3.084   1.188 -1.7358 -0.0337  0.9963
 7544SOL    HW233562   4.440   3.169   1.088 -0.7116 -0.3980 -0.3138
 7545SOL     OW33563   9.580   5.963   4.854 -0.3002  0.5198 -0.0243
 7545SOL    HW133564   9.640   5.938   4.778 -1.1780  1.3436 -1.0214
 7545SOL    HW233565   9.618   6.041   4.903  0.3360 -0.0951  0.4609
 7546SOL     OW33566   0.651   6.376   3.500  0.0416 -0.3119 -0.3159
 7546SOL    HW133567   0.571   6.432   3.519  0.1729  0.4954 -2.1128
 7546SOL    HW233568   0.626   6.302   3.437  0.6460 -0.2486 -0.6307
 7547SOL     OW33569   7.901   1.619   6.352 -0.3242 -0.2485 -0.2138
 7547SOL    HW133570   7.994   1.582   6.363 -0.0606 -0.1185 -1.8654
 7547SOL    HW233571   7.839   1.573   6.416  0.7148 -0.9192  0.3293
 7548SOL     OW33572   1.988   9.199   1.996  0.0492 -0.5797 -0.0503
 7548SOL    HW133573   1.955   9.236   1.910  0.9536  1.4077  0.4175
 7548SOL    HW233574   2.081   9.164   1.984 -0.1303 -1.0467 -0.0753
 7549SOL     OW33575   3.719   4.711   3.888 -0.5068 -0.0244 -0.4035
 7549SOL    HW133576   3.624   4.725   3.916 -0.0302 -0.3268  1.3696
 7549SOL    HW233577   3.757   4.631   3.933  1.2124  1.2461  0.5005
 7550SOL     OW33578   1.379   3.557   1.178 -0.0703 -0.1147  0.3682
 7550SOL    HW133579   1.401   3.513   1.091  0.3158 -1.8490  1.2961
 7550SOL    HW233580   1.407   3.653   1.176  0.1274 -0.1980 -1.3327
 7551SOL     OW33581   8.281   1.727   1.471 -0.3917  0.5428  0.4816
 7551SOL    HW133582   8.379   1.733   1.454 -0.4259  0.8051  0.3796
 7551SOL    HW233583   8.241   1.657   1.413 -0.6223  1.8867 -0.9966
 7552SOL     OW33584   4.369   5.870   0.278  0.1679  0.0122 -0.5170
 7552SOL    HW133585   4.278   5.837   0.252  0.3326 -0.4586 -0.5047
 7552SOL    HW233586   4.384   5.961   0.240 -0.2711  0.0463 -0.6055
 7553SOL     OW33587   5.240   2.885   4.697 -0.3119  0.2987  0.6605
 7553SOL    HW133588   5.260   2.789   4.719  2.0114 -0.3030 -3.5382
 7553SOL    HW233589   5.143   2.894   4.674 -0.4359 -1.1864  0.5347
 7554SOL     OW33590   6.970   7.532   2.606  0.2925 -0.3268  0.1270
 7554SOL    HW133591   6.964   7.620   2.653 -0.6592 -0.4135  0.1890
 7554SOL    HW233592   6.993   7.546   2.510  0.7567 -0.0492  0.2826
 7555SOL     OW33593   8.646   9.626   3.078  0.3705  0.0140  0.2375
 7555SOL    HW133594   8.548   9.646   3.077  0.4695  0.5380  0.8623
 7555SOL    HW233595   8.660   9.527   3.074 -0.1785 -0.0514 -0.1147
 7556SOL     OW33596   0.326   0.396   0.563  0.1293  0.0837  0.5362
 7556SOL    HW133597   0.255   0.376   0.496  0.4119  1.5439 -0.2178
 7556SOL    HW233598   0.411   0.351   0.536  0.2767  0.7711 -0.1732
 7557SOL     OW33599   5.409   6.850   2.446  0.1633  0.0997  0.6541
 7557SOL    HW133600   5.496   6.828   2.491 -0.1771  2.0255  2.3484
 7557SOL    HW233601   5.407   6.948   2.423 -0.0144 -0.6517 -2.9029
 7558SOL     OW33602   9.083   3.029   3.585  0.0398  0.6464 -0.1985
 7558SOL    HW133603   9.132   2.943   3.599 -1.2858 -0.0289  0.3396
 7558SOL    HW233604   9.004   3.013   3.526  0.1716  1.6372 -0.6526
 7559SOL     OW33605   3.588   4.525   5.079 -0.3664  0.1179 -0.2118
 7559SOL    HW133606   3.628   4.507   5.169 -2.2753 -0.0222  0.6310
 7559SOL    HW233607   3.619   4.614   5.046  1.9552 -0.6952 -0.3521
 7560SOL     OW33608   2.623   6.029   5.981 -0.1737  0.5552 -0.0380
 7560SOL    HW133609   2.656   5.960   5.918 -1.1197  0.9820 -1.0230
 7560SOL    HW233610   2.564   6.094   5.932  0.4297  1.8716  0.9289
 7561SOL     OW33611   3.663   2.892   4.388 -0.1904 -0.5447  0.1595
 7561SOL    HW133612   3.669   2.944   4.303 -0.8493 -2.2510 -0.9478
 7561SOL    HW233613   3.722   2.934   4.457  0.8851  0.4601 -1.3476
 7562SOL     OW33614   3.444   1.918   3.550  0.0952 -0.5435  0.3746
 7562SOL    HW133615   3.454   2.006   3.597 -1.9476 -1.0248  1.7725
 7562SOL    HW233616   3.349   1.907   3.521 -0.1487 -3.1953  2.0773
 7563SOL     OW33617   4.848   8.003   3.949  0.1421 -0.2505  0.1137
 7563SOL    HW133618   4.915   8.025   4.021  1.8756  0.9168 -1.7796
 7563SOL    HW233619   4.866   7.912   3.913  2.5856  1.0813 -2.2783
 7564SOL     OW33620   7.660   3.016   4.748  0.0758  0.4697  0.2559
 7564SOL    HW133621   7.690   2.928   4.785 -1.3272 -0.8335 -1.5926
 7564SOL    HW233622   7.561   3.026   4.760 -0.1019  0.8638 -1.3493
 7565SOL     OW33623   8.913   5.800   3.078 -0.6702 -0.5162  0.2292
 7565SOL    HW133624   8.822   5.840   3.069 -0.7413 -0.5805  0.6595
 7565SOL    HW233625   8.917   5.715   3.025  0.3279  1.4232 -2.9687
 7566SOL     OW33626   7.182   0.178   5.292 -0.6844  0.0031  0.2022
 7566SOL    HW133627   7.166   0.121   5.211 -1.9106 -0.1684  0.5549
 7566SOL    HW233628   7.269   0.153   5.334  0.2135  0.4625 -1.3731
 7567SOL     OW33629   8.670   4.346   0.619  0.1517  0.0881  0.3620
 7567SOL    HW133630   8.627   4.331   0.531  1.2265 -0.5236 -0.0576
 7567SOL    HW233631   8.599   4.363   0.688 -0.7242 -0.2955 -0.4373
 7568SOL     OW33632   2.398   5.284   5.958 -0.1146  0.0417  0.2897
 7568SOL    HW133633   2.337   5.267   5.881  1.8567 -0.3635 -1.2291
 7568SOL    HW233634   2.346   5.284   6.043 -2.1012 -0.9515 -0.8986
 7569SOL     OW33635   8.739   1.503   4.733  0.5985  0.0996  0.0706
 7569SOL    HW133636   8.834   1.523   4.757  1.2812 -4.5884  1.8159
 7569SOL    HW233637   8.701   1.438   4.799 -2.8838 -0.4336 -2.3238
 7570SOL     OW33638   3.051   5.914   4.079 -0.0571  0.1228  0.5072
 7570SOL    HW133639   3.150   5.904   4.092 -0.0562 -0.8410 -0.2451
 7570SOL    HW233640   3.004   5.851   4.140 -0.2474  1.3896  1.6982
 7571SOL     OW33641   8.875   6.866   4.226 -0.2809 -0.5851 -0.1160
 7571SOL    HW133642   8.945   6.933   4.251  0.6239 -1.2039 -0.9910
 7571SOL    HW233643   8.916   6.792   4.173 -1.6776 -0.7490 -0.9875
 7572SOL     OW33644   3.082   8.428   1.258  0.3997  0.0920 -0.1568
 7572SOL    HW133645   3.136   8.468   1.332 -0.2535 -0.4034  0.5938
 7572SOL    HW233646   3.137   8.359   1.210  0.2358 -0.8055  0.9546
 7573SOL     OW33647   2.074   9.335   2.984 -0.5377  0.7026  0.1853
 7573SOL    HW133648   2.107   9.427   2.962 -0.3461  0.9648  1.5107
 7573SOL    HW233649   2.099   9.272   2.910  1.5227  1.2242  0.3918
 7574SOL     OW33650   1.454   1.334   4.561 -0.5217 -0.0641 -0.1818
 7574SOL    HW133651   1.361   1.337   4.597 -0.3091 -1.7578  0.5397
 7574SOL    HW233652   1.479   1.424   4.525 -2.3054  0.4893 -0.0609
 7575SOL     OW33653   8.457   5.685   1.244  1.1101 -0.2456 -0.5101
 7575SOL    HW133654   8.386   5.721   1.184  1.5336  1.1627 -0.1947
 7575SOL    HW233655   8.521   5.759   1.267  1.7052 -1.0945  0.5835
 7576SOL     OW33656   3.072   7.508   5.012  0.1949 -0.2166 -0.6601
 7576SOL    HW133657   3.026   7.587   5.053 -0.6609 -0.5562 -0.9349
 7576SOL    HW233658   3.063   7.513   4.912 -0.7072 -1.1427 -0.6422
 7577SOL     OW33659   3.571   5.604   4.536  0.0851 -0.0206  0.0985
 7577SOL    HW133660   3.601   5.700   4.538  0.1219 -0.0478  0.6916
 7577SOL    HW233661   3.608   5.560   4.454  1.8816 -0.1211  0.9357
 7578SOL     OW33662   7.737   6.632   4.063  0.0864 -0.1913  0.4314
 7578SOL    HW133663   7.775   6.562   4.124  0.5241 -0.5893 -0.3025
 7578SOL    HW233664   7.727   6.718   4.114 -2.1847 -1.2599  1.8775
 7579SOL     OW33665   0.988   6.861   6.738  0.0363  0.4319  0.5949
 7579SOL    HW133666   1.068   6.811   6.706 -0.7946 -0.8206  0.4623
 7579SOL    HW233667   0.976   6.943   6.683  0.3903 -0.1275 -0.3210
 7580SOL     OW33668   4.701   0.095   4.148  0.3184 -0.2371  0.0245
 7580SOL    HW133669   4.697   0.193   4.169 -3.6421 -0.5153  1.0158
 7580SOL    HW233670   4.705   0.083   4.049 -2.2609  0.9596 -0.2682
 7581SOL     OW33671   5.143   7.462   1.810 -0.1144  0.1453  0.0933
 7581SOL    HW133672   5.084   7.478   1.731  1.7807  0.1338 -1.3453
 7581SOL    HW233673   5.122   7.530   1.881 -1.2121  0.7065 -0.7551
 7582SOL     OW33674   5.513   1.487   3.900 -0.4817 -0.4258 -0.1622
 7582SOL    HW133675   5.537   1.418   3.831 -1.0318 -1.7806  1.0044
 7582SOL    HW233676   5.471   1.443   3.979 -0.3958  1.1955  0.8045
 7583SOL     OW33677   4.249   3.899   6.720 -0.1279  0.3627 -0.0459
 7583SOL    HW133678   4.217   3.806   6.705 -0.0241 -0.0475  2.0764
 7583SOL    HW233679   4.173   3.963   6.707 -0.4352 -0.1036 -0.5538
 7584SOL     OW33680   9.051   7.057   4.297  0.2987  0.4092  0.2640
 7584SOL    HW133681   9.002   7.103   4.371 -0.8007 -2.7919  1.5800
 7584SOL    HW233682   9.137   7.021   4.332 -0.0345 -0.7607 -0.1186
 7585SOL     OW33683   3.110   3.981   4.900 -0.4248  0.3918  0.2764
 7585SOL    HW133684   3.041   3.931   4.952  0.9696 -0.6059  1.1883
 7585SOL    HW233685   3.103   4.079   4.920 -1.9693  0.3726 -0.1203
 7586SOL     OW33686   7.956   2.364   4.185 -0.0566 -0.2892 -0.5125
 7586SOL    HW133687   7.894   2.423   4.134 -0.6105 -1.0550 -0.7306
 7586SOL    HW233688   8.045   2.409   4.195 -0.5125  0.6267 -0.5709
 7587SOL     OW33689   7.500   9.577   4.332 -0.4281 -0.8356 -0.2602
 7587SOL    HW133690   7.584   9.563   4.385  0.8577  2.3534 -1.3298
 7587SOL    HW233691   7.523   9.605   4.239 -2.5221  3.5407  0.3684
 7588SOL     OW33692   3.511   9.010   1.044 -0.1839 -0.3409  0.1799
 7588SOL    HW133693   3.558   8.960   1.117 -0.6120 -0.6973  0.2200
 7588SOL    HW233694   3.576   9.034   0.972  0.1819 -0.2511  0.5396
 7589SOL     OW33695   1.754   2.762   0.680  0.2753  0.2833  0.0514
 7589SOL    HW133696   1.806   2.731   0.759  1.9917  0.9652 -0.7984
 7589SOL    HW233697   1.662   2.788   0.709  0.7731  0.1880  1.7513
 7590SOL     OW33698   1.025   6.698   1.564 -0.6918  0.3697 -0.5018
 7590SOL    HW133699   1.045   6.635   1.489 -1.3798  0.5181 -0.8189
 7590SOL    HW233700   0.964   6.654   1.629 -0.1131  0.2512 -0.0384
 7591SOL     OW33701   2.211   0.374   3.229 -0.2870  0.2911 -0.2950
 7591SOL    HW133702   2.249   0.457   3.190  0.6966  0.4515  0.9919
 7591SOL    HW233703   2.244   0.362   3.323 -3.0902  0.2214  0.7223
 7592SOL     OW33704   0.454   2.276   4.911 -0.0985 -0.1911 -0.4220
 7592SOL    HW133705   0.476   2.179   4.903 -0.0124 -0.1398 -0.7896
 7592SOL    HW233706   0.537   2.331   4.902 -0.3583 -0.0039 -1.7192
 7593SOL     OW33707   9.205   4.406   1.054 -0.3028 -0.0757  0.3349
 7593SOL    HW133708   9.115   4.362   1.055 -0.8510  0.9964 -0.6433
 7593SOL    HW233709   9.255   4.378   0.971 -0.4449  0.7181 -0.0216
 7594SOL     OW33710   9.994   9.878   1.754 -0.3970  0.8116 -0.0082
 7594SOL    HW133711   9.911   9.900   1.703 -0.0986  2.8484  0.3110
 7594SOL    HW233712   9.972   9.870   1.851 -0.2542  1.2019  0.0576
 7595SOL     OW33713   9.772   6.532   0.763  0.1903 -0.4379 -0.5407
 7595SOL    HW133714   9.722   6.450   0.736 -0.3075 -0.7108  1.1362
 7595SOL    HW233715   9.716   6.613   0.743 -0.4392 -0.6726  0.2832
 7596SOL     OW33716   9.264   9.733   2.601  0.3216 -0.0042 -0.0285
 7596SOL    HW133717   9.290   9.820   2.642 -1.9455  0.5136  0.3831
 7596SOL    HW233718   9.177   9.703   2.639  0.6379 -2.0190 -0.8261
 7597SOL     OW33719   4.306   7.970   4.881  0.0314 -0.0642 -0.6622
 7597SOL    HW133720   4.268   7.923   4.801  0.6925  1.4543 -1.8965
 7597SOL    HW233721   4.406   7.958   4.882  0.6574  4.0458 -2.9147
 7598SOL     OW33722   5.002   9.221   1.313  0.4739 -0.2953 -0.0978
 7598SOL    HW133723   4.930   9.238   1.381  0.9885 -0.2529  0.4377
 7598SOL    HW233724   4.966   9.162   1.241  0.3002 -1.3707  0.8585
 7599SOL     OW33725   1.711   8.551   3.047 -0.4126  0.7998 -0.3202
 7599SOL    HW133726   1.667   8.590   2.966 -0.9846  0.5086 -0.1515
 7599SOL    HW233727   1.676   8.459   3.063  0.7390  0.3070 -0.5635
 7600SOL     OW33728   4.755   7.251   4.268  0.0192 -0.5097 -0.3988
 7600SOL    HW133729   4.657   7.240   4.285  0.1292  0.2679  0.7872
 7600SOL    HW233730   4.782   7.194   4.190 -1.2131 -1.3503 -0.2251
 7601SOL     OW33731   8.688   7.029   4.378  0.2420 -0.0517  0.7664
 7601SOL    HW133732   8.645   7.099   4.321 -2.9243 -1.2853  1.5284
 7601SOL    HW233733   8.762   6.986   4.328  0.0308  1.5231 -0.9521
 7602SOL     OW33734   6.711   1.581   1.224 -0.4535 -0.2302  0.7793
 7602SOL    HW133735   6.716   1.574   1.124  0.4782 -0.6179  0.8488
 7602SOL    HW233736   6.616   1.586   1.252 -0.7619 -1.3815 -0.0475
 7603SOL     OW33737   8.732   4.010   5.352 -0.0380  0.2937 -0.5638
 7603SOL    HW133738   8.734   4.069   5.433  2.6458 -0.3219 -0.1446
 7603SOL    HW233739   8.735   3.914   5.381  0.2499  0.0596 -1.3629
 7604SOL     OW33740   7.935   9.581   0.686  0.2265  0.3737 -0.2911
 7604SOL    HW133741   7.903   9.514   0.619  0.9148 -0.5992  0.3342
 7604SOL    HW233742   7.869   9.655   0.693 -0.9689 -0.6671 -0.3751
 7605SOL     OW33743   3.685   8.172   2.164  0.0352 -0.5534 -0.2331
 7605SOL    HW133744   3.721   8.241   2.227 -0.6113  0.3035 -0.7764
 7605SOL    HW233745   3.747   8.094   2.160 -0.4798 -1.1442  2.3421
 7606SOL     OW33746   0.268   6.851   5.785  0.4043 -0.2662 -0.5998
 7606SOL    HW133747   0.205   6.925   5.809  0.0985 -1.0519  1.0770
 7606SOL    HW233748   0.339   6.844   5.855  0.0296 -2.0022 -0.3819
 7607SOL     OW33749   4.985   2.074   3.884  0.1999 -0.0755  0.3739
 7607SOL    HW133750   4.890   2.070   3.916  0.5629 -0.3304  1.4325
 7607SOL    HW233751   4.989   2.043   3.789 -0.7506 -0.2628  0.3864
 7608SOL     OW33752   8.539   5.030   1.397  0.1311  0.4724  0.2794
 7608SOL    HW133753   8.601   5.046   1.474  0.8267 -0.4830 -0.0771
 7608SOL    HW233754   8.464   5.097   1.400  0.0327  0.2986  1.9039
 7609SOL     OW33755   1.724   4.743   5.520  0.3593  0.3417 -0.0812
 7609SOL    HW133756   1.679   4.654   5.532  0.4736  0.0472 -1.7834
 7609SOL    HW233757   1.819   4.729   5.494  0.2951  0.9643 -0.6545
 7610SOL     OW33758   4.309   2.307   1.218 -0.5883 -0.0607 -0.3316
 7610SOL    HW133759   4.236   2.281   1.280 -0.4737  0.2320 -0.0730
 7610SOL    HW233760   4.374   2.367   1.266 -0.6798  0.4394 -0.8272
 7611SOL     OW33761   0.153   4.767   4.350 -0.0389  0.3465 -0.8974
 7611SOL    HW133762   0.100   4.683   4.338  1.6304 -0.8569 -0.0479
 7611SOL    HW233763   0.250   4.748   4.336  0.4100  2.0468 -0.2598
 7612SOL     OW33764   1.859   8.994   1.331  0.5092  0.0276 -0.3752
 7612SOL    HW133765   1.842   8.897   1.347  0.6928  0.1136  0.3552
 7612SOL    HW233766   1.956   9.008   1.310  0.8260  0.2507  1.1662
 7613SOL     OW33767   1.403   8.197   5.778 -0.0198 -0.3320 -0.5921
 7613SOL    HW133768   1.429   8.107   5.742 -1.9843 -1.7547  1.4250
 7613SOL    HW233769   1.318   8.189   5.829  0.5809  2.3966  0.9226
 7614SOL     OW33770   4.400   6.777   3.066 -1.0345 -0.1799 -0.0484
 7614SOL    HW133771   4.305   6.806   3.077 -1.0036  0.1990 -0.7975
 7614SOL    HW233772   4.445   6.777   3.156 -1.9859 -1.2460  0.4510
 7615SOL     OW33773   8.849   3.418   4.787  0.0904  0.0986  0.3132
 7615SOL    HW133774   8.862   3.336   4.731 -0.1777 -0.2030  0.6915
 7615SOL    HW233775   8.754   3.449   4.781  0.0584  0.0561  0.6163
 7616SOL     OW33776   6.684   1.137   2.502 -0.3483  0.1023  0.2182
 7616SOL    HW133777   6.718   1.054   2.545 -0.0742  0.0611 -0.0791
 7616SOL    HW233778   6.584   1.134   2.497 -0.5910  1.3272  3.3825
 7617SOL     OW33779   3.441   0.971   3.940 -0.1401  0.5867 -0.4225
 7617SOL    HW133780   3.528   0.921   3.940  0.8879  2.2744  1.5789
 7617SOL    HW233781   3.446   1.046   3.874 -0.0075  0.7658 -0.2117
 7618SOL     OW33782   9.574   1.186   1.993 -0.7089 -0.1587  0.1235
 7618SOL    HW133783   9.663   1.201   2.037 -0.4669 -2.2837  0.4077
 7618SOL    HW233784   9.535   1.274   1.966  0.8690  0.8939  1.1970
 7619SOL     OW33785   8.005   0.092   5.893 -0.0487  0.5144  0.2080
 7619SOL    HW133786   8.063   0.022   5.851 -0.4655  0.8121 -0.8791
 7619SOL    HW233787   7.938   0.048   5.952 -0.8568 -0.0929 -1.1240
 7620SOL     OW33788   3.438   8.775   2.567 -0.1496  0.1657  0.3234
 7620SOL    HW133789   3.369   8.715   2.608 -0.5603  0.9995  0.8701
 7620SOL    HW233790   3.397   8.826   2.491  0.7323 -1.7256 -1.4771
 7621SOL     OW33791   8.465   3.369   4.403 -0.0860 -0.9410  0.0124
 7621SOL    HW133792   8.411   3.442   4.362  0.3529 -0.0102  1.0796
 7621SOL    HW233793   8.416   3.329   4.480  0.2438 -0.8772  0.2580
 7622SOL     OW33794   0.810   3.475   5.793  0.6360 -0.4590  0.3809
 7622SOL    HW133795   0.870   3.430   5.726 -1.4024 -3.6427  0.5852
 7622SOL    HW233796   0.747   3.537   5.745  1.6335  0.0994 -0.2234
 7623SOL     OW33797   7.556   1.975   2.808  0.0267 -0.5990  0.0532
 7623SOL    HW133798   7.561   2.068   2.772  1.4014 -0.8399 -0.4049
 7623SOL    HW233799   7.590   1.911   2.740  0.3557 -1.3023  0.8714
 7624SOL     OW33800   2.739   3.315   2.812  0.1255  0.5214 -0.1729
 7624SOL    HW133801   2.720   3.410   2.838 -0.9750  0.4061 -0.5062
 7624SOL    HW233802   2.806   3.313   2.738 -2.2507  1.2218 -2.4220
 7625SOL     OW33803   0.749   3.674   4.719 -0.6378 -0.2485 -0.3755
 7625SOL    HW133804   0.683   3.685   4.793  0.2191  1.2128  0.1860
 7625SOL    HW233805   0.737   3.746   4.651  1.2767  0.8823  0.4400
 7626SOL     OW33806   7.403   9.853   1.011 -0.0035 -0.3133  0.0603
 7626SOL    HW133807   7.476   9.915   1.040 -0.9213 -0.3043  2.4723
 7626SOL    HW233808   7.382   9.789   1.085 -1.9240 -0.8001 -0.8671
 7627SOL     OW33809   9.268   8.829   2.309  0.6265  0.6429  0.0483
 7627SOL    HW133810   9.354   8.875   2.287  1.2202 -0.7336 -0.5717
 7627SOL    HW233811   9.269   8.800   2.405  2.3039 -2.3842 -0.8280
 7628SOL     OW33812   3.039   5.004   3.266  0.0271 -0.0036  0.2570
 7628SOL    HW133813   3.045   5.028   3.363 -0.3496  1.8452 -0.1572
 7628SOL    HW233814   2.989   5.076   3.217 -0.7545 -1.4527 -1.1211
 7629SOL     OW33815   2.515   3.653   0.912  0.2634  0.5189 -0.5378
 7629SOL    HW133816   2.592   3.688   0.966  0.1370 -0.3740  0.2220
 7629SOL    HW233817   2.525   3.555   0.899  0.3642  0.7434 -2.2754
 7630SOL     OW33818   0.190   0.999   3.775  0.6429 -0.3115 -0.2960
 7630SOL    HW133819   0.100   0.957   3.776  0.6663 -0.4084 -2.0048
 7630SOL    HW233820   0.253   0.943   3.722  1.1793  0.8114 -0.8662
 7631SOL     OW33821   6.687   0.705   3.792  0.1135  0.6243 -0.1046
 7631SOL    HW133822   6.782   0.673   3.799  0.1678  0.1693 -2.2778
 7631SOL    HW233823   6.629   0.650   3.851  0.8108 -0.9723 -0.8537
 7632SOL     OW33824   9.653   5.085   5.209  0.3765 -0.3622 -0.2625
 7632SOL    HW133825   9.668   5.174   5.252 -1.0001  0.2266 -0.9963
 7632SOL    HW233826   9.737   5.031   5.216  0.9475  0.6453  0.9734
 7633SOL     OW33827   0.921   7.802   1.886 -0.7329  0.5287 -0.5784
 7633SOL    HW133828   0.838   7.807   1.831  0.1294 -0.2507 -2.0034
 7633SOL    HW233829   0.996   7.764   1.830 -0.1242 -1.4320  1.4708
 7634SOL     OW33830   1.085   6.702   0.405  0.2282  0.0063  0.2739
 7634SOL    HW133831   1.018   6.715   0.478 -0.2395 -0.2846 -0.1019
 7634SOL    HW233832   1.062   6.620   0.352 -0.3222  1.0789 -1.1673
 7635SOL     OW33833   8.628   0.547   4.958 -0.6414 -0.6193  0.1989
 7635SOL    HW133834   8.559   0.529   4.887 -2.7647  0.7572  1.8523
 7635SOL    HW233835   8.629   0.471   5.023 -0.4024 -0.7590  0.0332
 7636SOL     OW33836   1.095   1.021   3.756  0.3009  0.5048 -0.2673
 7636SOL    HW133837   1.038   1.095   3.791  1.5062  1.4951 -0.3672
 7636SOL    HW233838   1.092   0.943   3.819  0.9854  1.5726  1.1036
 7637SOL     OW33839   5.338   1.254   2.427  0.1168  0.3752  0.1976
 7637SOL    HW133840   5.277   1.203   2.488 -0.3862 -0.8114 -1.2563
 7637SOL    HW233841   5.299   1.255   2.335  1.1483  1.6312 -0.2338
 7638SOL     OW33842   6.910   0.039   1.597  0.2311 -0.0220 -0.3570
 7638SOL    HW133843   7.007   0.060   1.610  0.1736  1.3125 -2.0078
 7638SOL    HW233844   6.857   0.125   1.596 -0.5974 -0.5286 -2.3636
 7639SOL     OW33845   7.335   0.494   3.051  0.0874 -0.4384 -0.5601
 7639SOL    HW133846   7.393   0.454   3.122 -1.2445 -1.5042 -0.0599
 7639SOL    HW233847   7.273   0.560   3.091 -0.3307 -0.6804 -0.8035
 7640SOL     OW33848   4.455   0.235   0.889  0.1862 -0.4975 -0.2410
 7640SOL    HW133849   4.367   0.195   0.916 -0.1885  1.0762  0.9704
 7640SOL    HW233850   4.440   0.305   0.818 -0.0310  2.2365  2.3697
 7641SOL     OW33851   8.562   6.174   1.785  0.0196 -0.0797 -0.0220
 7641SOL    HW133852   8.521   6.262   1.808 -1.0129 -0.8025  0.9348
 7641SOL    HW233853   8.543   6.151   1.690  1.3570  1.3092 -0.6400
 7642SOL     OW33854   9.375   0.055   4.165 -0.1248 -0.4195  0.2349
 7642SOL    HW133855   9.461   0.053   4.113 -0.1010 -0.9981  0.2842
 7642SOL    HW233856   9.298   0.055   4.101 -0.0821  0.4300  0.1885
 7643SOL     OW33857   2.467   7.165   0.593 -0.1127 -0.4377  0.6473
 7643SOL    HW133858   2.496   7.129   0.682  0.4404 -2.0215 -0.1581
 7643SOL    HW233859   2.544   7.209   0.547  0.4164 -2.4098 -0.3970
 7644SOL     OW33860   4.529   6.256   1.824 -0.0257 -0.5207 -0.0478
 7644SOL    HW133861   4.452   6.257   1.760  1.4180 -0.1760 -1.8254
 7644SOL    HW233862   4.533   6.342   1.873 -0.9269 -0.6434  0.2471
 7645SOL     OW33863   0.351   4.027   0.367  0.4444  0.1998  0.0620
 7645SOL    HW133864   0.324   4.113   0.324 -0.1092 -0.8612 -1.7604
 7645SOL    HW233865   0.450   4.019   0.368  0.4653  0.2869 -0.9495
 7646SOL     OW33866   8.825   4.699   4.214 -0.2623 -0.1213 -0.0796
 7646SOL    HW133867   8.874   4.756   4.280 -0.7345 -0.5497  0.6443
 7646SOL    HW233868   8.736   4.740   4.195 -0.9948 -1.1062  1.1673
 7647SOL     OW33869   1.537   3.672   4.826 -0.1225  0.2312 -0.1463
 7647SOL    HW133870   1.488   3.612   4.889 -1.5321  0.9986 -0.4731
 7647SOL    HW233871   1.512   3.767   4.846  0.9284  0.6008 -0.5924
 7648SOL     OW33872   4.659   9.350   2.351 -0.4474  0.0866 -0.4085
 7648SOL    HW133873   4.662   9.312   2.259  0.7303  0.3654 -0.4937
 7648SOL    HW233874   4.568   9.334   2.391 -1.2192  0.6391 -1.8968
 7649SOL     OW33875   9.657   0.043   1.387 -0.3027 -0.2822  0.1260
 7649SOL    HW133876   9.574   0.053   1.333  1.0821 -0.2361 -2.0157
 7649SOL    HW233877   9.732   0.094   1.345  0.4677  0.9948  2.8796
 7650SOL     OW33878   3.724   6.292   0.294 -0.1643 -0.4577 -0.0086
 7650SOL    HW133879   3.709   6.196   0.318  1.5265 -0.5578  0.7234
 7650SOL    HW233880   3.816   6.302   0.255  0.1524  1.0712  1.0806
 7651SOL     OW33881   1.865   9.356   3.198 -0.5216 -0.5062 -0.4012
 7651SOL    HW133882   1.850   9.454   3.209 -1.0447 -0.4867 -1.1896
 7651SOL    HW233883   1.928   9.340   3.122 -0.9412 -0.7947 -0.6954
 7652SOL     OW33884   9.296   5.392   5.909  0.0862  0.1985  0.0543
 7652SOL    HW133885   9.266   5.487   5.915 -0.6091  0.0585 -1.1413
 7652SOL    HW233886   9.382   5.381   5.958  0.4876  1.5701 -0.3388
 7653SOL     OW33887   7.848   0.829   5.957 -0.1895 -0.0084 -0.0472
 7653SOL    HW133888   7.915   0.853   6.027  0.3984 -1.9780  0.0942
 7653SOL    HW233889   7.886   0.850   5.866  0.9577 -1.8234 -0.0102
 7654SOL     OW33890   8.351   0.979   3.755  0.5422  0.4365 -0.3244
 7654SOL    HW133891   8.267   0.949   3.710  0.6893 -3.0707  1.5205
 7654SOL    HW233892   8.334   0.992   3.853  1.8971  0.7540 -0.1137
 7655SOL     OW33893   7.017   2.441   2.622 -0.4968 -0.2489  0.2747
 7655SOL    HW133894   7.025   2.346   2.591 -0.4180 -0.0495 -0.3116
 7655SOL    HW233895   7.086   2.459   2.693  0.0130 -0.4011 -0.1794
 7656SOL     OW33896   4.386   0.730   1.794 -0.1807  0.5570 -0.1472
 7656SOL    HW133897   4.376   0.664   1.869 -0.7324  1.7879  0.8878
 7656SOL    HW233898   4.467   0.786   1.809  0.1542  0.2736 -0.8940
 7657SOL     OW33899   4.050   1.657   1.325 -0.2609  0.6088  0.6790
 7657SOL    HW133900   4.139   1.645   1.280  0.2428  2.3060  1.2019
 7657SOL    HW233901   4.024   1.572   1.371  1.1393  0.1325  0.6026
 7658SOL     OW33902   9.297   8.303   1.793  0.5798  0.9175  0.0570
 7658SOL    HW133903   9.379   8.247   1.795  0.4245  0.5858 -1.6313
 7658SOL    HW233904   9.321   8.400   1.799  1.0856  0.8167 -0.3773
 7659SOL     OW33905   7.552   9.983   0.237  0.0766  0.3797  0.1934
 7659SOL    HW133906   7.488   9.966   0.312  1.2283  0.6056  1.2400
 7659SOL    HW233907   7.599  10.070   0.252  1.0587 -0.0691 -0.2524
 7660SOL     OW33908   1.452   1.316   4.094  0.0001  0.2291  0.6446
 7660SOL    HW133909   1.506   1.394   4.125  1.9152 -1.0348  0.5592
 7660SOL    HW233910   1.426   1.259   4.173  0.5172 -0.2393  0.4821
 7661SOL     OW33911   1.756   5.488   4.903 -0.7755  0.3506  0.1658
 7661SOL    HW133912   1.838   5.482   4.846 -0.4848  0.6619  0.5486
 7661SOL    HW233913   1.706   5.571   4.881 -2.2169 -0.9769 -1.6922
 7662SOL     OW33914   2.739   8.818   2.294  0.0380 -0.1172 -0.3264
 7662SOL    HW133915   2.777   8.725   2.296 -1.4772 -0.7439  0.0202
 7662SOL    HW233916   2.813   8.884   2.284  1.1094 -1.3809 -0.8657
 7663SOL     OW33917   1.648   3.627   2.071  0.6135  0.1160 -0.4919
 7663SOL    HW133918   1.588   3.591   2.000 -0.0302  0.2842 -0.0335
 7663SOL    HW233919   1.680   3.552   2.128 -0.0162  0.1514 -0.0847
 7664SOL     OW33920   8.685   5.756   2.862 -0.7128  0.4151  0.3925
 7664SOL    HW133921   8.655   5.827   2.926 -2.9976 -0.0621 -0.0846
 7664SOL    HW233922   8.691   5.795   2.770 -0.5624  0.3460  0.3736
 7665SOL     OW33923   6.984   7.417   4.374  0.0836 -0.6228  0.0034
 7665SOL    HW133924   6.960   7.454   4.284  0.6617 -0.2153  0.0078
 7665SOL    HW233925   7.082   7.399   4.377  0.3214  0.7453  1.0289
 7666SOL     OW33926   1.207   0.292   2.656  0.0509  0.3580 -0.2182
 7666SOL    HW133927   1.129   0.236   2.631 -0.4167  0.5962  0.6749
 7666SOL    HW233928   1.185   0.389   2.642  0.1492  0.4319  0.1301
 7667SOL     OW33929   2.468   7.566   0.687  0.1332 -0.1658  0.0505
 7667SOL    HW133930   2.458   7.658   0.649 -0.7504 -1.3121 -2.5970
 7667SOL    HW233931   2.384   7.540   0.736 -0.4303 -0.3687 -1.0226
 7668SOL     OW33932   9.581   1.518   4.493  0.2773 -0.0331  0.2710
 7668SOL    HW133933   9.673   1.482   4.476 -0.1253 -1.1556  0.4102
 7668SOL    HW233934   9.529   1.518   4.408 -0.3672 -1.6838  0.6407
 7669SOL     OW33935   7.818   0.087   6.738  0.0532 -0.6013 -0.3741
 7669SOL    HW133936   7.913   0.086   6.706  0.6492 -2.1796  1.3617
 7669SOL    HW233937   7.759   0.047   6.667  0.8064 -0.4529 -1.0925
 7670SOL     OW33938   9.447   6.994   3.162  0.4041 -0.3681  0.3695
 7670SOL    HW133939   9.400   6.974   3.077 -0.3441 -0.7387  0.8619
 7670SOL    HW233940   9.387   7.044   3.223  0.9985  0.0666  0.6073
 7671SOL     OW33941   3.656   5.709   1.481 -0.2747 -0.2495  0.0551
 7671SOL    HW133942   3.578   5.657   1.518 -0.2161 -1.1162 -1.0234
 7671SOL    HW233943   3.741   5.665   1.510 -0.1923  0.3682  0.7550
 7672SOL     OW33944   3.401   6.194   5.773  0.3706  0.6279  0.1629
 7672SOL    HW133945   3.334   6.223   5.843  1.6636  1.8960  0.9182
 7672SOL    HW233946   3.486   6.167   5.818  1.3035  1.6841 -0.9176
 7673SOL     OW33947   1.995   1.667   3.629 -0.3944 -0.0681  0.7880
 7673SOL    HW133948   1.991   1.574   3.593 -1.5710  0.7872 -1.4016
 7673SOL    HW233949   2.090   1.696   3.636 -0.0791 -0.7890 -0.3079
 7674SOL     OW33950   5.928   1.799   2.245 -0.3317  0.2354 -0.2538
 7674SOL    HW133951   5.920   1.896   2.266 -1.4233 -0.1395  1.2027
 7674SOL    HW233952   5.984   1.754   2.315  0.0704 -0.2117 -0.8507
 7675SOL     OW33953   8.519   2.116   1.893  0.0915  0.1766 -0.4030
 7675SOL    HW133954   8.619   2.121   1.884  0.1098  2.0987  0.5348
 7675SOL    HW233955   8.477   2.139   1.806  0.4579 -0.6423 -0.8035
 7676SOL     OW33956   6.165   4.966   0.534 -0.4129  0.0345 -0.4710
 7676SOL    HW133957   6.244   4.930   0.484  1.0475 -0.3239  1.9835
 7676SOL    HW233958   6.111   4.891   0.571 -2.0344  0.2808 -2.3058
 7677SOL     OW33959   3.062   0.480   2.530  0.3275  0.0135 -0.0729
 7677SOL    HW133960   3.107   0.565   2.560  0.6265 -0.4372  0.7497
 7677SOL    HW233961   3.113   0.442   2.453  0.8712 -0.0438  0.3144
 7678SOL     OW33962   0.058   4.896   3.199  0.2405  0.0858 -0.0047
 7678SOL    HW133963   0.116   4.828   3.152 -1.2341 -0.5958 -0.8865
 7678SOL    HW233964   0.106   4.983   3.203  2.0756 -0.9434  0.9279
 7679SOL     OW33965   3.626   5.865   6.369  0.2848 -0.2249  0.4271
 7679SOL    HW133966   3.593   5.909   6.286  1.2799  1.4433  0.8718
 7679SOL    HW233967   3.550   5.850   6.432 -0.7778 -3.1896 -1.4843
 7680SOL     OW33968   0.562   2.838   3.979  0.2061  0.5805  0.0907
 7680SOL    HW133969   0.622   2.794   4.046  1.6624  1.1910 -0.7986
 7680SOL    HW233970   0.524   2.922   4.017 -0.4238 -0.0197  0.8024
 7681SOL     OW33971   6.549   0.657   4.621  0.0567 -0.2301  0.2902
 7681SOL    HW133972   6.484   0.727   4.651  0.6516 -0.3480  1.9227
 7681SOL    HW233973   6.642   0.695   4.626  0.2685 -0.7028 -0.1130
 7682SOL     OW33974   9.793   0.390   2.446  0.2961 -0.3620 -0.4277
 7682SOL    HW133975   9.788   0.298   2.486 -0.3858 -0.9548 -1.8608
 7682SOL    HW233976   9.889   0.415   2.433  0.4658 -1.2919 -0.9897
 7683SOL     OW33977   3.377   4.453   0.228  0.1060  0.0461 -0.0520
 7683SOL    HW133978   3.359   4.485   0.134  1.4165 -0.0243 -0.3349
 7683SOL    HW233979   3.423   4.525   0.279  3.1194 -1.3153 -0.7035
 7684SOL     OW33980   5.351   1.430   2.681 -0.7166 -0.1230  0.0193
 7684SOL    HW133981   5.338   1.392   2.589  0.8378 -0.6760  0.0097
 7684SOL    HW233982   5.394   1.361   2.740 -0.9549  0.5021  0.9352
 7685SOL     OW33983   8.503   5.115   2.556 -0.1866  0.2745  0.2626
 7685SOL    HW133984   8.465   5.149   2.642 -2.4885 -1.4238 -0.0402
 7685SOL    HW233985   8.570   5.043   2.576  0.1851  0.7316  0.6760
 7686SOL     OW33986   9.550   6.674   2.110 -0.1558 -0.0472 -0.4997
 7686SOL    HW133987   9.637   6.671   2.159  0.0243 -0.3314 -0.8376
 7686SOL    HW233988   9.512   6.766   2.116 -0.1290 -0.0738  0.1651
 7687SOL     OW33989   6.593   7.616   3.932  0.0815 -0.3224 -0.5525
 7687SOL    HW133990   6.601   7.679   4.010  1.9979 -1.1276 -0.0903
 7687SOL    HW233991   6.537   7.538   3.958  1.1372 -0.8399  0.1861
 7688SOL     OW33992   9.700   3.222   3.973  0.6353  0.5917 -0.2804
 7688SOL    HW133993   9.641   3.302   3.988 -0.6727 -0.1038 -1.5051
 7688SOL    HW233994   9.660   3.166   3.900  1.8869 -0.8417  0.1328
 7689SOL     OW33995   1.823   6.483   3.624 -0.3237 -0.0562 -0.4205
 7689SOL    HW133996   1.855   6.463   3.717 -2.6161  0.9351  0.6066
 7689SOL    HW233997   1.745   6.545   3.627  0.5067  1.2306 -3.1075
 7690SOL     OW33998   9.593   8.541   4.258  0.1713 -0.7326 -0.2717
 7690SOL    HW133999   9.666   8.608   4.274 -0.3096 -0.3930  0.5278
 7690SOL    HW234000   9.615   8.487   4.177 -0.2075  1.5019 -1.9259
 7691SOL     OW34001   9.317   5.665   1.590  0.6952  0.0424 -0.3134
 7691SOL    HW134002   9.342   5.614   1.672  1.7409  0.6968 -0.2149
 7691SOL    HW234003   9.280   5.754   1.616  1.4207  0.4190 -0.5584
 7692SOL     OW34004   2.306   7.271   1.661 -0.4927  0.3063 -0.3187
 7692SOL    HW134005   2.339   7.239   1.572 -1.2767  1.0339 -0.8720
 7692SOL    HW234006   2.242   7.204   1.699 -0.4937  0.2027 -0.5031
 7693SOL     OW34007   8.586   5.691   2.325  0.2644  0.4036 -0.1950
 7693SOL    HW134008   8.507   5.730   2.373  1.1414  0.7851  0.9571
 7693SOL    HW234009   8.653   5.658   2.392  0.4856 -1.1658 -1.1557
 7694SOL     OW34010   9.997   4.725   1.259 -0.2002  0.5877  0.0853
 7694SOL    HW134011   9.935   4.783   1.312 -0.5947  1.5596 -1.3973
 7694SOL    HW234012  10.063   4.683   1.320 -1.5767  0.4853  1.5372
 7695SOL     OW34013   9.216   4.627   5.030  0.3466  0.1813  0.1543
 7695SOL    HW134014   9.178   4.717   5.008  1.7156  0.7087 -0.1244
 7695SOL    HW234015   9.200   4.608   5.127 -1.6173 -0.1203 -0.2085
 7696SOL     OW34016   9.942   6.893   0.915  0.2371 -0.0336 -0.0512
 7696SOL    HW134017  10.008   6.925   0.847  0.3264  2.8510  1.3249
 7696SOL    HW234018   9.985   6.890   1.005 -1.0705  0.3434  0.6049
 7697SOL     OW34019   5.019   8.135   3.650 -0.0511  0.3879  0.1671
 7697SOL    HW134020   5.047   8.122   3.745  0.3487 -0.9691 -0.1296
 7697SOL    HW234021   4.976   8.051   3.616  2.1429 -0.0260 -1.6649
 7698SOL     OW34022   8.264   4.088   2.488 -0.2953 -0.2728  0.3475
 7698SOL    HW134023   8.343   4.128   2.536 -0.9966  1.8651 -0.2330
 7698SOL    HW234024   8.274   4.101   2.390 -2.3599  1.9040  0.3927
 7699SOL     OW34025   3.654   4.871   6.464 -0.2529  0.0135 -0.4482
 7699SOL    HW134026   3.698   4.861   6.553  0.5902 -0.1422 -0.8784
 7699SOL    HW234027   3.714   4.923   6.403 -2.2220  3.0292  0.0596
 7700SOL     OW34028   3.984   4.695   4.371  0.7437 -0.0765  0.0880
 7700SOL    HW134029   3.972   4.731   4.464  1.5096  0.8587 -0.1693
 7700SOL    HW234030   4.059   4.744   4.326  1.7632 -1.9433 -0.2992
 7701SOL     OW34031   0.134   4.954   5.667 -0.2468  0.4469 -0.0707
 7701SOL    HW134032   0.103   5.017   5.596 -0.8568 -2.8718 -2.8639
 7701SOL    HW234033   0.081   4.869   5.662  2.1567 -1.2539  2.0095
 7702SOL     OW34034   8.030   5.311   1.679 -0.6789 -0.6541 -0.5411
 7702SOL    HW134035   8.072   5.336   1.592 -0.1735 -1.6949 -0.6011
 7702SOL    HW234036   8.098   5.316   1.752 -1.0656  0.0731 -0.2240
 7703SOL     OW34037   8.611   6.497   5.697 -0.1850 -0.1553  0.3023
 7703SOL    HW134038   8.576   6.414   5.655  0.2227  0.1165 -0.5937
 7703SOL    HW234039   8.702   6.480   5.735 -0.6216 -0.4437  1.2293
 7704SOL     OW34040   2.742   1.110   1.731  0.0129 -0.1737 -0.5523
 7704SOL    HW134041   2.721   1.186   1.792 -2.3378 -0.2065 -1.2732
 7704SOL    HW234042   2.749   1.143   1.637 -1.4584 -0.9074 -0.9242
 7705SOL     OW34043   8.524   1.756   6.167 -0.0844 -0.8604 -0.5273
 7705SOL    HW134044   8.523   1.712   6.257  0.1375  1.6077  0.7184
 7705SOL    HW234045   8.430   1.778   6.140 -0.0966 -0.9911 -0.5888
 7706SOL     OW34046   9.344   9.257   2.509  0.4699  0.0278 -0.8000
 7706SOL    HW134047   9.326   9.184   2.574 -0.0879  0.9091  0.0399
 7706SOL    HW234048   9.258   9.295   2.476  0.7465 -0.2488 -1.8842
 7707SOL     OW34049   8.073   6.130   3.510  0.0606  0.2417  0.3146
 7707SOL    HW134050   8.001   6.189   3.474 -0.7122 -0.4681  0.6948
 7707SOL    HW234051   8.085   6.146   3.608 -1.2870 -1.3846  0.7674
 7708SOL     OW34052   0.791   9.323   2.723 -0.7834 -0.0257  0.4323
 7708SOL    HW134053   0.843   9.380   2.660 -0.9350 -1.9597 -1.5235
 7708SOL    HW234054   0.852   9.253   2.762 -1.0586  0.1140  1.1038
 7709SOL     OW34055   9.035   1.876   2.804  0.3608 -0.0538 -0.3564
 7709SOL    HW134056   9.043   1.820   2.721  2.2353 -0.9912  0.4285
 7709SOL    HW234057   9.006   1.818   2.880  0.6893  0.3780  0.1001
 7710SOL     OW34058   7.505   0.709   3.659  0.1926  0.4957  0.5099
 7710SOL    HW134059   7.552   0.711   3.748  0.7560 -0.5117  0.2362
 7710SOL    HW234060   7.507   0.801   3.619  0.8765  0.7281  1.0553
 7711SOL     OW34061   6.709   9.127   2.236 -0.0971 -0.5228  0.0186
 7711SOL    HW134062   6.805   9.124   2.209 -0.1195  0.2494 -0.1601
 7711SOL    HW234063   6.703   9.133   2.336  0.0863  1.2857 -0.0639
 7712SOL     OW34064   4.879   0.888   1.128 -0.1041 -0.7984  0.5137
 7712SOL    HW134065   4.845   0.881   1.034  1.3547 -1.4756  0.0241
 7712SOL    HW234066   4.916   0.980   1.142 -0.5766 -0.6070  0.5158
 7713SOL     OW34067   8.928   4.799   1.381  0.3831  0.0471 -0.0396
 7713SOL    HW134068   8.961   4.706   1.400 -1.5802 -0.7689 -0.4916
 7713SOL    HW234069   8.934   4.854   1.464 -0.3949 -1.1054  0.7959
 7714SOL     OW34070   2.776   5.447   6.497 -0.3231  0.2947  0.6117
 7714SOL    HW134071   2.836   5.474   6.573 -0.9635  0.0280  1.2133
 7714SOL    HW234072   2.683   5.433   6.531  0.1975 -3.8268  0.5786
 7715SOL     OW34073   2.910   8.600   0.995  0.1464  0.0386 -0.1715
 7715SOL    HW134074   2.910   8.676   1.061  1.3620 -0.0642 -0.0338
 7715SOL    HW234075   2.820   8.593   0.952  0.2814  2.1581 -0.8688
 7716SOL     OW34076   5.354   0.191   4.539  0.3768 -0.5916  0.1977
 7716SOL    HW134077   5.441   0.143   4.524  0.4411 -0.4188  0.0198
 7716SOL    HW234078   5.365   0.287   4.514  0.0286 -0.6475 -0.1638
 7717SOL     OW34079   2.333   4.939   0.627 -0.6719 -0.2720 -0.3592
 7717SOL    HW134080   2.264   4.883   0.580  0.2369 -0.1827 -1.8357
 7717SOL    HW234081   2.401   4.879   0.669 -1.0620 -0.3326  0.1916
 7718SOL     OW34082   8.676   0.166   4.519 -0.0737 -0.1756  0.3757
 7718SOL    HW134083   8.714   0.149   4.610 -2.1064 -1.7639  0.9509
 7718SOL    HW234084   8.593   0.221   4.527  0.1704  0.3501 -0.5981
 7719SOL     OW34085   4.618   0.150   4.462  0.0376  1.0155  0.2058
 7719SOL    HW134086   4.652   0.075   4.406  0.7624  1.2097  0.3853
 7719SOL    HW234087   4.518   0.150   4.460  0.0500  0.6182 -0.5459
 7720SOL     OW34088   9.696   6.775   0.996  0.0549 -0.4137  0.1286
 7720SOL    HW134089   9.781   6.817   0.964 -0.6087  1.2620  0.5163
 7720SOL    HW234090   9.636   6.758   0.918  0.4885 -1.0136 -0.0748
 7721SOL     OW34091   9.989   3.740   4.513 -0.5312 -0.0914 -0.0557
 7721SOL    HW134092   9.929   3.805   4.560  1.9589  3.0545 -0.9761
 7721SOL    HW234093   9.954   3.723   4.421  0.2400  2.2377 -0.8208
 7722SOL     OW34094   8.242   7.779   2.276  0.2747 -0.1917  0.6871
 7722SOL    HW134095   8.226   7.683   2.297  0.1103 -0.3542 -0.1842
 7722SOL    HW234096   8.333   7.805   2.308  0.6889 -0.8845  0.0839
 7723SOL     OW34097   8.433   9.250   5.155  0.4440 -0.2362 -0.3668
 7723SOL    HW134098   8.523   9.293   5.157  0.5650 -0.4603 -1.0767
 7723SOL    HW234099   8.373   9.301   5.093  0.4133 -0.7484 -0.7614
 7724SOL     OW34100   1.663   8.351   1.712 -0.8217  0.5039 -0.5321
 7724SOL    HW134101   1.728   8.291   1.759 -2.8704 -1.3816 -0.0138
 7724SOL    HW234102   1.712   8.409   1.648  1.6065  0.5550  1.2854
 7725SOL     OW34103   3.426   5.753   2.727 -0.2193 -0.4134  0.1320
 7725SOL    HW134104   3.446   5.850   2.718  1.7977 -0.7732  0.4256
 7725SOL    HW234105   3.411   5.731   2.823 -0.7174 -0.3892  0.0613
 7726SOL     OW34106   9.300   3.877   0.669 -0.1912  0.4388  0.3155
 7726SOL    HW134107   9.300   3.977   0.666 -1.4615  0.4437  0.3608
 7726SOL    HW234108   9.207   3.844   0.686  0.1480 -0.7610 -0.1225
 7727SOL     OW34109   5.615   7.031   2.493 -0.0912 -0.1723 -0.1592
 7727SOL    HW134110   5.712   7.020   2.474 -0.1446 -0.3932 -0.2960
 7727SOL    HW234111   5.589   7.127   2.479  0.3710  0.1503  1.0978
 7728SOL     OW34112   8.999   3.696   0.992 -0.0614 -0.3643  0.2510
 7728SOL    HW134113   8.960   3.629   0.929  1.4380 -2.0271  1.0691
 7728SOL    HW234114   8.961   3.681   1.083 -0.6009  0.6615  0.1980
 7729SOL     OW34115   0.192   4.869   4.620 -0.1314 -0.2898  0.1811
 7729SOL    HW134116   0.179   4.968   4.626  0.5213 -0.1114 -1.1304
 7729SOL    HW234117   0.181   4.840   4.525 -2.3372 -1.7919  0.8682
 7730SOL     OW34118   1.282   2.123   1.862 -0.0668 -0.6156 -0.5487
 7730SOL    HW134119   1.281   2.159   1.956 -1.9076 -2.5630  0.2316
 7730SOL    HW234120   1.269   2.199   1.797  0.1582  0.6258  0.8194
 7731SOL     OW34121   2.875   6.736   3.915 -0.4971  0.3600  0.0655
 7731SOL    HW134122   2.932   6.815   3.935 -0.4063 -0.3946  2.9909
 7731SOL    HW234123   2.924   6.674   3.854  1.0477  0.6645  0.9642
 7732SOL     OW34124   5.078   1.760   1.215 -0.1266  0.1716 -0.3273
 7732SOL    HW134125   5.085   1.780   1.117 -0.3036 -0.7112 -0.5266
 7732SOL    HW234126   5.143   1.688   1.239  0.0196  0.4920  0.2336
 7733SOL     OW34127   2.411   2.100   1.722 -0.8147  0.1930  0.0062
 7733SOL    HW134128   2.382   2.006   1.708 -0.4150 -0.2647  1.9880
 7733SOL    HW234129   2.511   2.103   1.730 -0.9220  0.5397  1.4567
 7734SOL     OW34130   8.196   9.095   3.688  0.0058  0.3810  0.2668
 7734SOL    HW134131   8.257   9.110   3.610 -2.8978  0.5416 -2.0806
 7734SOL    HW234132   8.141   9.014   3.671 -1.1933  0.8574  1.8301
 7735SOL     OW34133   9.312   1.120   1.719 -0.3097  0.1601 -0.2291
 7735SOL    HW134134   9.277   1.214   1.722  0.0657  0.2862  0.1206
 7735SOL    HW234135   9.368   1.102   1.799 -0.7592 -0.5139 -0.0653
 7736SOL     OW34136   1.957   5.769   6.496  0.0455  0.5432  0.1522
 7736SOL    HW134137   2.005   5.758   6.409  3.1210  0.2644  1.8158
 7736SOL    HW234138   1.994   5.849   6.544 -0.9731  0.1642  1.5968
 7737SOL     OW34139   2.469   4.936   4.840 -0.3051 -0.1069 -0.0923
 7737SOL    HW134140   2.449   5.020   4.789  0.3511 -1.0499 -1.9503
 7737SOL    HW234141   2.528   4.958   4.918 -0.5291  1.2301 -0.2923
 7738SOL     OW34142   6.199   1.284   1.948 -0.0475  0.0321  0.4458
 7738SOL    HW134143   6.153   1.251   1.866  1.0851 -0.2614 -0.0728
 7738SOL    HW234144   6.207   1.209   2.014  1.0887 -0.3251 -0.0924
 7739SOL     OW34145   0.465   3.237   5.396 -0.3856  0.3889 -0.0713
 7739SOL    HW134146   0.382   3.182   5.397 -0.5784  0.6898  0.6931
 7739SOL    HW234147   0.543   3.178   5.373 -0.9136  0.2720 -1.6389
 7740SOL     OW34148   6.479   0.329   0.688  0.5744 -0.5837 -0.1844
 7740SOL    HW134149   6.509   0.371   0.602 -0.3171 -1.0161 -0.7211
 7740SOL    HW234150   6.556   0.281   0.730  0.6967 -1.5390 -1.4553
 7741SOL     OW34151   3.959   1.442   1.495  0.5320  0.5132 -0.3124
 7741SOL    HW134152   4.004   1.436   1.584  1.3754 -0.0041 -0.7689
 7741SOL    HW234153   3.861   1.423   1.506  0.6098  0.5861  0.5247
 7742SOL     OW34154   7.318   8.281   2.212 -0.4298  0.1157 -0.1819
 7742SOL    HW134155   7.252   8.227   2.264  1.1540 -1.2109  0.5035
 7742SOL    HW234156   7.398   8.300   2.269 -0.2746  1.8429 -0.9442
 7743SOL     OW34157   4.723   4.045   1.626 -0.2975  0.2574  0.1327
 7743SOL    HW134158   4.696   3.989   1.704 -0.4171 -0.0042 -0.0959
 7743SOL    HW234159   4.808   4.093   1.647 -0.0556 -0.2093  0.2340
 7744SOL     OW34160   9.358   5.045   1.714 -0.5053 -0.5414 -0.1556
 7744SOL    HW134161   9.413   5.126   1.737 -0.7907 -0.1106 -0.9665
 7744SOL    HW234162   9.341   4.991   1.797  1.8630 -1.1373 -0.0366
 7745SOL     OW34163   9.154   5.967   5.467 -0.1069 -0.1812  0.1495
 7745SOL    HW134164   9.158   5.943   5.370 -0.4671 -5.5674  1.2718
 7745SOL    HW234165   9.245   5.957   5.508 -0.6734 -1.7150  1.0818
 7746SOL     OW34166   2.571   3.455   5.995  0.3402 -0.0757 -0.5139
 7746SOL    HW134167   2.557   3.522   5.923  0.4606 -0.6793 -1.1011
 7746SOL    HW234168   2.603   3.369   5.955  0.6698 -0.3301  0.2788
 7747SOL     OW34169   3.464   3.751   1.170  0.4308  0.7354 -0.0839
 7747SOL    HW134170   3.399   3.709   1.106  0.2876  0.2778  0.3592
 7747SOL    HW234171   3.445   3.719   1.263  1.9720 -0.2369 -0.0866
 7748SOL     OW34172   8.737   3.516   4.392  0.0685 -0.6381 -0.0264
 7748SOL    HW134173   8.652   3.467   4.371  0.3298 -0.7305 -0.8835
 7748SOL    HW234174   8.740   3.602   4.342  0.5480 -0.7098 -0.1285
 7749SOL     OW34175   0.942   1.462   1.742 -0.3979  0.4085  0.2612
 7749SOL    HW134176   0.905   1.484   1.651 -0.1950 -0.6380 -0.0733
 7749SOL    HW234177   0.875   1.409   1.794  0.0890 -0.3013  0.1635
 7750SOL     OW34178   0.521   0.866   4.787 -0.5629 -0.1088  0.3022
 7750SOL    HW134179   0.481   0.853   4.696 -0.5444  0.1761  0.2520
 7750SOL    HW234180   0.501   0.787   4.844 -0.8276 -0.1598  0.1394
 7751SOL     OW34181   5.763   7.693   4.615  0.0503 -0.2090 -0.0923
 7751SOL    HW134182   5.750   7.690   4.714 -0.3551 -2.2398 -0.1836
 7751SOL    HW234183   5.683   7.734   4.572 -0.3669 -0.5570  0.3366
 7752SOL     OW34184   2.104   1.971   1.264  0.1275 -0.0613  0.1174
 7752SOL    HW134185   2.117   2.016   1.176 -0.7959 -1.3724 -0.7089
 7752SOL    HW234186   2.190   1.928   1.293  0.2298 -0.3025 -0.5338
 7753SOL     OW34187   6.784   9.849   4.893 -0.0044 -0.3556  0.0791
 7753SOL    HW134188   6.816   9.814   4.982 -0.8386 -2.5239 -0.4280
 7753SOL    HW234189   6.742   9.774   4.842  1.5631  0.5931 -2.6790
 7754SOL     OW34190   3.176   5.676   1.966  0.0324 -0.3163  0.1132
 7754SOL    HW134191   3.093   5.716   2.006  0.0184 -0.7076  0.4825
 7754SOL    HW234192   3.151   5.620   1.887 -0.0045 -0.0287 -0.0776
 7755SOL     OW34193   7.812   2.161   4.811 -0.2206 -0.4525 -0.0374
 7755SOL    HW134194   7.882   2.141   4.880 -0.7399 -0.2584  0.5547
 7755SOL    HW234195   7.844   2.234   4.751  0.1692 -0.5087  0.1002
 7756SOL     OW34196   7.884   2.120   1.364 -0.0256 -0.0834  0.4336
 7756SOL    HW134197   7.938   2.048   1.407 -1.1734 -1.1272  0.1543
 7756SOL    HW234198   7.789   2.089   1.353 -0.4536  1.3294 -0.0215
 7757SOL     OW34199   0.716   0.117   2.719  0.5959  0.2428  0.0542
 7757SOL    HW134200   0.654   0.056   2.669  2.2743 -0.4546 -1.2152
 7757SOL    HW234201   0.716   0.207   2.675  0.7483  0.1394 -0.1592
 7758SOL     OW34202   0.607   1.338   3.015 -0.3777  0.5203 -0.2071
 7758SOL    HW134203   0.702   1.307   3.014 -0.5200  0.0644 -1.2925
 7758SOL    HW234204   0.563   1.311   3.101  0.5315  0.9171  0.3810
 7759SOL     OW34205   8.696   7.382   6.727 -0.1734 -0.1365 -0.2352
 7759SOL    HW134206   8.666   7.291   6.755 -0.1641 -0.1204 -0.1773
 7759SOL    HW234207   8.776   7.374   6.668  0.2083 -0.1297  0.2806
 7760SOL     OW34208   9.237   5.294   4.498  0.1095  0.1777  0.8354
 7760SOL    HW134209   9.206   5.202   4.522  1.6151 -0.0243  2.0643
 7760SOL    HW234210   9.187   5.360   4.554 -1.2000  0.1418 -0.2711
 7761SOL     OW34211   8.161   1.023   5.196 -0.1692 -0.4279  0.1134
 7761SOL    HW134212   8.174   0.977   5.283 -1.6082 -0.0500  0.5535
 7761SOL    HW234213   8.064   1.047   5.185  0.3764  1.6420 -0.5115
 7762SOL     OW34214   9.657   6.436   2.555 -0.0969 -0.3443  0.3187
 7762SOL    HW134215   9.718   6.437   2.477 -0.8808 -0.5445 -0.3030
 7762SOL    HW234216   9.562   6.429   2.524 -0.2107 -4.7882  1.3842
 7763SOL     OW34217   9.335   6.828   0.456  0.1451 -0.0573 -0.3209
 7763SOL    HW134218   9.323   6.814   0.358  0.5814 -0.6316 -0.2915
 7763SOL    HW234219   9.248   6.815   0.503 -0.2420  1.0024 -0.7160
 7764SOL     OW34220   3.554   7.762   2.694 -0.1237  0.2174 -0.0939
 7764SOL    HW134221   3.483   7.810   2.642 -0.7082 -0.4759  0.0599
 7764SOL    HW234222   3.517   7.677   2.730  1.7134 -1.8505 -2.8847
 7765SOL     OW34223   2.238   5.387   0.758  0.1476  0.1416 -0.1331
 7765SOL    HW134224   2.154   5.417   0.802  0.1589 -1.0470  0.7306
 7765SOL    HW234225   2.282   5.318   0.815  1.4072  0.3217 -0.8636
 7766SOL     OW34226   0.421   3.872   2.720  0.2875  0.0045 -0.5102
 7766SOL    HW134227   0.424   3.972   2.721  0.4902  0.0028  0.4579
 7766SOL    HW234228   0.417   3.839   2.815  0.0910 -0.8970 -0.8333
 7767SOL     OW34229   9.595   4.846   0.352  0.7358 -0.2588  0.2945
 7767SOL    HW134230   9.610   4.788   0.432 -1.3060 -0.6592  0.3994
 7767SOL    HW234231   9.546   4.795   0.282  0.0805  0.9257 -0.1351
 7768SOL     OW34232   8.313   0.697   2.948  0.4710 -0.1040  0.4296
 7768SOL    HW134233   8.245   0.626   2.966 -0.6058  0.6724 -0.5058
 7768SOL    HW234234   8.403   0.664   2.977 -0.1224 -1.5669  0.6879
 7769SOL     OW34235   9.339   7.583   4.928 -0.7624  0.2709 -0.4318
 7769SOL    HW134236   9.337   7.579   5.028 -0.5420 -1.0762 -0.4788
 7769SOL    HW234237   9.297   7.669   4.898  1.2429  1.7493  0.8830
 7770SOL     OW34238   1.765   3.222   5.524 -0.1273  0.0631  0.6386
 7770SOL    HW134239   1.822   3.303   5.533 -0.5714  0.2371  1.9934
 7770SOL    HW234240   1.716   3.225   5.437 -0.9100  1.7536  1.1211
 7771SOL     OW34241   5.524   7.285   4.668  0.4725  0.1325 -0.2444
 7771SOL    HW134242   5.494   7.267   4.761  1.9477  0.1913  0.2600
 7771SOL    HW234243   5.467   7.234   4.603  0.3537 -1.0442  0.7730
 7772SOL     OW34244   6.466   8.772   4.074 -0.1233  0.0174  0.5015
 7772SOL    HW134245   6.557   8.761   4.035 -0.4774  1.0356 -0.6456
 7772SOL    HW234246   6.400   8.718   4.021 -0.3150 -0.0540  0.8137
 7773SOL     OW34247   7.553   8.977   5.231 -0.0472  0.2892 -0.1683
 7773SOL    HW134248   7.480   8.939   5.175 -1.1649  1.1393  0.6943
 7773SOL    HW234249   7.627   9.010   5.172 -0.1509 -0.9795 -1.0195
 7774SOL     OW34250   0.781   9.446   1.543 -0.7175 -0.0813  0.3220
 7774SOL    HW134251   0.871   9.407   1.564 -1.1915 -1.2478  0.2135
 7774SOL    HW234252   0.786   9.545   1.547  0.9900 -0.0786 -1.3073
 7775SOL     OW34253   0.959   5.188   2.632  0.6025  0.3425  0.0238
 7775SOL    HW134254   0.967   5.286   2.649 -1.8219  0.4755  0.5313
 7775SOL    HW234255   0.933   5.141   2.717 -1.4685 -0.3130 -0.9430
 7776SOL     OW34256   8.685   3.064   1.431 -0.0167 -0.0535 -0.3279
 7776SOL    HW134257   8.587   3.077   1.446 -0.2441  0.2705 -1.9973
 7776SOL    HW234258   8.700   3.029   1.338  1.4050 -0.6792  0.1337
 7777SOL     OW34259   9.587   9.354   1.511  0.8374  0.2666 -0.3309
 7777SOL    HW134260   9.567   9.267   1.465 -1.3697 -0.5724  2.1214
 7777SOL    HW234261   9.572   9.430   1.447  0.0536 -0.9738 -1.6570
 7778SOL     OW34262   2.085   5.992   2.776  0.5682 -0.1449 -0.1142
 7778SOL    HW134263   2.022   5.917   2.760 -0.1355  0.7516 -1.5855
 7778SOL    HW234264   2.178   5.963   2.752  0.5089 -0.9507  0.5769
 7779SOL     OW34265   5.460   9.617   2.569 -0.3487  0.2962 -0.3485
 7779SOL    HW134266   5.466   9.715   2.552 -2.7795  0.4467 -0.4695
 7779SOL    HW234267   5.455   9.600   2.667  0.6621  0.2396 -0.2994
 7780SOL     OW34268   1.834   3.195   2.917 -0.0790  0.1788 -0.4576
 7780SOL    HW134269   1.770   3.265   2.947 -0.2656  0.1973 -0.8979
 7780SOL    HW234270   1.876   3.152   2.997 -1.8128 -0.9269 -0.1009
 7781SOL     OW34271   1.438   6.398   2.971 -0.1482  0.3496  0.3034
 7781SOL    HW134272   1.341   6.402   2.949  0.1689 -2.1504 -1.9007
 7781SOL    HW234273   1.490   6.374   2.889  2.1952  0.3315  1.7353
 7782SOL     OW34274   3.490   9.716   0.943  0.1333 -0.5348  0.3315
 7782SOL    HW134275   3.452   9.781   1.008  0.8089  0.7152 -0.4859
 7782SOL    HW234276   3.422   9.648   0.919 -0.3559 -0.5451  1.7583
 7783SOL     OW34277   2.613   9.760   4.516  0.0188 -0.3138  0.1700
 7783SOL    HW134278   2.682   9.727   4.451  0.7113  1.7466 -0.1669
 7783SOL    HW234279   2.555   9.683   4.543  0.1112 -1.3534 -2.3826
 7784SOL     OW34280   2.784   5.161   0.135 -0.1453 -0.9196 -0.0990
 7784SOL    HW134281   2.728   5.114   0.067 -0.1528 -1.8631  0.5622
 7784SOL    HW234282   2.764   5.125   0.226 -0.3378  0.5357  0.4442
 7785SOL     OW34283   9.008   4.164   5.279  0.0808  0.6956  0.3356
 7785SOL    HW134284   8.963   4.238   5.229 -1.2248 -0.3036  0.0016
 7785SOL    HW234285   9.039   4.197   5.368  0.7709  2.0053 -0.3742
 7786SOL     OW34286   0.626   7.835   3.236  0.6812  0.0836  0.7401
 7786SOL    HW134287   0.666   7.745   3.219 -1.3830 -0.4899 -1.2635
 7786SOL    HW234288   0.666   7.901   3.174  0.0152 -0.0643  0.1562
 7787SOL     OW34289   5.091   7.259   2.333 -0.5838  0.1456 -0.4316
 7787SOL    HW134290   5.125   7.267   2.426  0.3415 -0.8536 -0.6830
 7787SOL    HW234291   5.009   7.202   2.332 -1.0970  0.8693 -0.1158
 7788SOL     OW34292   2.540   2.488   4.059  0.0510  0.1900  0.4471
 7788SOL    HW134293   2.486   2.452   3.983 -2.7444  3.0833  0.9600
 7788SOL    HW234294   2.631   2.514   4.027 -0.6470  0.1493 -1.6025
 7789SOL     OW34295   2.522   3.809   2.030  0.0071  0.3321 -0.6246
 7789SOL    HW134296   2.538   3.712   2.013  1.3225  0.2631  0.8721
 7789SOL    HW234297   2.592   3.864   1.984  0.2689  0.4674 -0.0705
 7790SOL     OW34298   1.552   6.354   0.654  0.7756 -0.4074  0.5376
 7790SOL    HW134299   1.497   6.363   0.571  1.2520  0.6528  0.3260
 7790SOL    HW234300   1.494   6.325   0.730 -0.0248  0.4564  0.2591
 7791SOL     OW34301   2.382   7.982   4.761  0.0298  0.1427 -0.7842
 7791SOL    HW134302   2.404   8.044   4.686  1.3893 -1.7105 -1.9560
 7791SOL    HW234303   2.322   7.909   4.728 -0.9158  0.3725  0.3924
 7792SOL     OW34304   4.734   3.806   3.992  0.6406  0.0849  0.2175
 7792SOL    HW134305   4.667   3.806   3.918 -0.7038 -2.3056  1.3387
 7792SOL    HW234306   4.685   3.809   4.080  2.0129 -1.0194  1.0433
 7793SOL     OW34307   0.817   6.143   0.124 -0.0492  0.0068 -0.4250
 7793SOL    HW134308   0.795   6.082   0.048  0.7768 -1.0215  0.1607
 7793SOL    HW234309   0.743   6.139   0.192  0.4260 -1.0387  0.0413
 7794SOL     OW34310   7.042   0.995   5.006 -0.4257  0.3589 -0.2756
 7794SOL    HW134311   7.023   1.042   4.920 -3.3698 -1.5431 -0.7394
 7794SOL    HW234312   7.027   0.896   4.995  1.2016 -0.1699  1.8529
 7795SOL     OW34313   3.373   0.089   3.043  0.7421 -0.2035  0.3940
 7795SOL    HW134314   3.331   0.054   3.127  0.3674  1.0101  0.7173
 7795SOL    HW234315   3.394   0.012   2.982 -0.6026 -0.9405  0.8442
 7796SOL     OW34316   0.853   8.387   2.295 -0.0242  0.0448  0.5271
 7796SOL    HW134317   0.836   8.465   2.354  0.1072  1.3163 -1.0928
 7796SOL    HW234318   0.782   8.318   2.309 -1.1868  1.2506  0.6283
 7797SOL     OW34319   3.781   4.121   3.862  0.2448  0.1709 -0.2577
 7797SOL    HW134320   3.717   4.132   3.786 -0.7614  0.2298  0.5873
 7797SOL    HW234321   3.782   4.025   3.890 -0.3094  0.3749  0.4568
 7798SOL     OW34322   1.563   6.797   6.502  0.0633  0.4911 -0.3430
 7798SOL    HW134323   1.522   6.761   6.418 -0.2029  1.1373 -0.4951
 7798SOL    HW234324   1.533   6.892   6.516  1.8881  1.1320 -0.7029
 7799SOL     OW34325   0.348   3.595   3.260  0.1449  0.0117 -0.1838
 7799SOL    HW134326   0.339   3.516   3.199  1.5509  0.4217 -0.9338
 7799SOL    HW234327   0.266   3.602   3.317 -1.4068 -0.0748 -2.3493
 7800SOL     OW34328   0.644   8.228   3.178 -0.0868  0.2265  0.3045
 7800SOL    HW134329   0.674   8.151   3.121 -0.1184  0.8000 -0.4977
 7800SOL    HW234330   0.566   8.274   3.134 -0.2795  0.5110  0.9421
 7801SOL     OW34331   8.494   6.640   3.960  0.0744  0.4196  0.4282
 7801SOL    HW134332   8.527   6.710   3.896  0.9291  1.3997  1.9278
 7801SOL    HW234333   8.501   6.674   4.054 -1.2076 -0.9995  1.0579
 7802SOL     OW34334   0.404   1.343   0.722  0.2298  0.2467  0.3245
 7802SOL    HW134335   0.358   1.257   0.743  1.7832 -0.7128 -0.1581
 7802SOL    HW234336   0.502   1.333   0.737  0.2902  2.2931  1.3998
 7803SOL     OW34337   5.201   1.277   1.527 -0.3696  0.0246 -0.3563
 7803SOL    HW134338   5.283   1.220   1.533 -0.5617 -0.6345 -2.9408
 7803SOL    HW234339   5.227   1.372   1.514  0.0157 -0.2188 -1.4475
 7804SOL     OW34340   0.841   0.526   1.501 -0.3187  0.1220 -0.4549
 7804SOL    HW134341   0.811   0.621   1.488  0.0553  0.1947 -0.7921
 7804SOL    HW234342   0.811   0.494   1.591  0.8901  1.0786  0.3125
 7805SOL     OW34343   3.937   8.277   0.521 -0.3359 -0.1626 -0.0777
 7805SOL    HW134344   3.884   8.343   0.574 -0.4554  0.1892 -0.6245
 7805SOL    HW234345   3.876   8.209   0.481 -0.2322 -0.5020  0.3399
 7806SOL     OW34346   1.401   7.830   4.054 -0.0409 -0.1378 -0.4270
 7806SOL    HW134347   1.473   7.766   4.026  0.9059  0.5131  0.5001
 7806SOL    HW234348   1.416   7.860   4.148 -1.3422  0.2697 -0.3272
 7807SOL     OW34349   1.653   2.800   2.152  0.1214 -0.3960  0.8338
 7807SOL    HW134350   1.589   2.783   2.077 -1.9677  0.9467  2.2266
 7807SOL    HW234351   1.695   2.890   2.139 -0.4955 -0.0178  1.4271
 7808SOL     OW34352   7.887   9.886   4.116  0.3259 -0.0122  0.1566
 7808SOL    HW134353   7.969   9.846   4.075 -0.3608 -0.6157 -0.6494
 7808SOL    HW234354   7.806   9.837   4.083 -0.3048  0.1082  1.5221
 7809SOL     OW34355   7.167   1.537   5.135 -0.1487 -0.0731  0.0464
 7809SOL    HW134356   7.186   1.593   5.054 -0.7214 -1.5010 -1.1199
 7809SOL    HW234357   7.068   1.526   5.145 -0.0353 -3.1000 -1.3810
 7810SOL     OW34358   3.961   9.596   1.742  0.6505  0.5542 -0.4375
 7810SOL    HW134359   4.017   9.663   1.693  2.1399 -0.6251 -0.3520
 7810SOL    HW234360   4.000   9.579   1.833 -0.6166  0.7379  0.1623
 7811SOL     OW34361   3.363   1.354   2.570  0.3919  0.5410 -0.0961
 7811SOL    HW134362   3.381   1.290   2.495 -0.8536  0.5895 -0.4445
 7811SOL    HW234363   3.361   1.447   2.534 -2.2688  0.3955 -0.3772
 7812SOL     OW34364   8.964   5.002   1.185  0.8238  0.3038 -0.1383
 7812SOL    HW134365   8.916   5.001   1.098 -1.8769 -0.2098  1.3047
 7812SOL    HW234366   8.962   4.910   1.225 -0.5614  1.1349  1.8080
 7813SOL     OW34367   1.459   4.935   6.187 -0.3452  0.5390  0.3429
 7813SOL    HW134368   1.513   4.877   6.127 -1.2391 -0.1144  0.1636
 7813SOL    HW234369   1.369   4.894   6.201  0.2787  0.0323  3.1315
 7814SOL     OW34370   0.683   2.113   0.767  0.7494 -0.5312  0.4108
 7814SOL    HW134371   0.588   2.088   0.746  1.4906 -2.1687 -1.1043
 7814SOL    HW234372   0.743   2.037   0.743  2.5910  0.9939  0.1150
 7815SOL     OW34373   2.635   3.188   1.281 -0.0209 -0.0184 -0.0933
 7815SOL    HW134374   2.672   3.234   1.201  0.3140  0.8957  0.5734
 7815SOL    HW234375   2.704   3.127   1.320  1.0165  2.0821  1.4573
 7816SOL     OW34376   6.802   0.081   3.763  0.3803  0.5329 -0.8920
 7816SOL    HW134377   6.837   0.171   3.738  1.1594  0.1422 -1.2181
 7816SOL    HW234378   6.703   0.085   3.768  0.3331  1.1297 -2.0135
 7817SOL     OW34379   2.992   9.879   3.735  0.0235  0.7317  0.4222
 7817SOL    HW134380   3.067   9.936   3.699 -0.5458  2.8667  2.4395
 7817SOL    HW234381   3.030   9.795   3.774  0.9006 -0.2745 -2.4954
 7818SOL     OW34382   8.045   9.843   5.009  0.2394 -0.4861  0.0982
 7818SOL    HW134383   7.995   9.818   5.092 -0.4980  0.9634  0.1121
 7818SOL    HW234384   7.983   9.841   4.931  0.5958 -0.4949 -0.1818
 7819SOL     OW34385   3.687   5.681   5.029  0.2285 -0.0040 -0.3584
 7819SOL    HW134386   3.762   5.615   5.032 -0.6006 -0.9089  1.7383
 7819SOL    HW234387   3.632   5.664   4.947  0.5145 -1.3873 -0.2876
 7820SOL     OW34388   2.837   8.643   1.585 -0.0901  0.0161  0.2141
 7820SOL    HW134389   2.836   8.743   1.579  0.5864 -0.0215 -0.7154
 7820SOL    HW234390   2.752   8.611   1.625 -0.9977  0.8821 -0.9805
 7821SOL     OW34391   6.755   7.013   4.895 -0.8031  0.5234  0.3580
 7821SOL    HW134392   6.777   6.919   4.923 -0.4826  0.4529 -0.1355
 7821SOL    HW234393   6.798   7.033   4.808 -1.3132  0.9542  0.2027
 7822SOL     OW34394   0.489   6.553   2.235  0.0838  0.6070 -0.1417
 7822SOL    HW134395   0.462   6.484   2.168  1.4477 -1.3453  1.2968
 7822SOL    HW234396   0.446   6.534   2.323  0.0670  1.8790  0.1354
 7823SOL     OW34397   3.160   7.919   1.000  0.1796 -0.4408 -0.3841
 7823SOL    HW134398   3.148   7.829   1.041  1.0340 -0.4118 -0.0662
 7823SOL    HW234399   3.071   7.956   0.974 -0.2377 -1.0537  0.1729
 7824SOL     OW34400   0.103   2.856   2.598 -0.4094 -0.2568 -0.2770
 7824SOL    HW134401   0.072   2.882   2.690  0.4900  1.5407 -0.4459
 7824SOL    HW234402   0.035   2.886   2.531 -0.4227 -0.3429 -0.3016
 7825SOL     OW34403   8.518   6.609   1.564  0.4348  0.4058 -0.5615
 7825SOL    HW134404   8.563   6.631   1.650 -0.6188  1.8663 -0.3752
 7825SOL    HW234405   8.425   6.577   1.582  0.5462 -0.2510 -1.1019
 7826SOL     OW34406   5.896   1.899   2.783  0.0446  0.2693 -0.3546
 7826SOL    HW134407   5.947   1.817   2.808  0.2709  0.6724  0.5310
 7826SOL    HW234408   5.843   1.881   2.700 -1.0341 -1.2430  0.6247
 7827SOL     OW34409   4.711   3.634   4.418  0.1328 -0.1658  0.0951
 7827SOL    HW134410   4.776   3.703   4.449 -0.5187  1.2783 -1.6746
 7827SOL    HW234411   4.760   3.549   4.398  0.9191 -0.3233  2.4398
 7828SOL     OW34412   0.823   9.458   0.881  0.3029  0.3742  0.4458
 7828SOL    HW134413   0.844   9.549   0.847 -2.3824  1.2109  0.8640
 7828SOL    HW234414   0.750   9.464   0.950 -0.2945 -2.1416  0.0989
 7829SOL     OW34415   0.526   5.238   2.612 -0.0001  0.4564 -0.6652
 7829SOL    HW134416   0.597   5.221   2.543  1.7727 -0.4164  1.3112
 7829SOL    HW234417   0.569   5.262   2.699 -2.0476 -1.9179  1.0920
 7830SOL     OW34418   8.982   9.106   4.298 -0.7593 -0.1887  0.2170
 7830SOL    HW134419   9.004   9.137   4.391  0.3200  0.1904 -0.1627
 7830SOL    HW234420   8.883   9.094   4.290 -0.9288  0.4845  1.1936
 7831SOL     OW34421   0.046   3.519   4.911 -0.3148 -0.6778  0.2152
 7831SOL    HW134422   0.035   3.615   4.935  0.3039 -1.2757  3.1233
 7831SOL    HW234423   0.070   3.511   4.814  0.9607  2.1676  0.2487
 7832SOL     OW34424   1.879   1.700   1.563 -0.1054  0.2057 -0.0270
 7832SOL    HW134425   1.816   1.651   1.502 -0.3926  0.7183 -0.1448
 7832SOL    HW234426   1.882   1.796   1.537  1.3400  0.0443 -0.5378
 7833SOL     OW34427   2.595   4.029   0.669  0.0952  0.6961  0.3246
 7833SOL    HW134428   2.555   4.120   0.686 -0.0751  0.7412 -0.3004
 7833SOL    HW234429   2.541   3.960   0.717  1.5002  1.1325  2.6155
 7834SOL     OW34430   0.485   4.217   2.462 -0.3639  0.6272 -0.0096
 7834SOL    HW134431   0.498   4.168   2.375  0.6074  0.1089  0.4166
 7834SOL    HW234432   0.571   4.259   2.490 -0.6510  0.7318  0.7320
 7835SOL     OW34433   4.332   3.514   3.511  0.0683 -0.2278  0.1690
 7835SOL    HW134434   4.309   3.602   3.468 -0.0051 -0.4592 -0.2763
 7835SOL    HW234435   4.414   3.524   3.566  0.0759  0.1178  0.0957
 7836SOL     OW34436   6.294   9.425   3.809  0.1199 -0.1455 -0.2356
 7836SOL    HW134437   6.270   9.328   3.816  2.4647 -0.7930 -0.9431
 7836SOL    HW234438   6.274   9.458   3.717  0.8938 -0.3867 -0.4878
 7837SOL     OW34439   4.064   0.467   1.566 -0.1167 -0.0439  0.2130
 7837SOL    HW134440   4.107   0.524   1.635  0.4818  0.2661 -0.4180
 7837SOL    HW234441   4.015   0.525   1.501  0.0072 -0.2896 -0.0976
 7838SOL     OW34442   3.846   7.473   0.686  0.2322  0.6966 -0.1379
 7838SOL    HW134443   3.899   7.510   0.763 -1.8019  1.7920  0.7839
 7838SOL    HW234444   3.778   7.540   0.657 -2.0839 -1.4306  0.1368
 7839SOL     OW34445   0.470   7.359   3.042  0.6495 -0.0966  0.3002
 7839SOL    HW134446   0.453   7.307   2.958  0.7458  1.7797 -0.9065
 7839SOL    HW234447   0.430   7.311   3.119 -0.7787 -1.1091 -1.0428
 7840SOL     OW34448   0.178   2.095   2.607 -0.4234  0.4245 -0.0511
 7840SOL    HW134449   0.240   2.022   2.635  0.3753 -0.1379 -3.1399
 7840SOL    HW234450   0.227   2.182   2.606  0.0516  0.1434 -1.5033
 7841SOL     OW34451   9.904   0.447   1.113  0.8980 -0.4605 -0.2107
 7841SOL    HW134452   9.849   0.375   1.071  1.2300 -0.1820 -1.1315
 7841SOL    HW234453   9.849   0.497   1.180  0.5953 -1.4067  0.2555
 7842SOL     OW34454   1.791   5.508   0.766  0.0726  0.3050 -0.3870
 7842SOL    HW134455   1.883   5.541   0.785 -0.0371 -0.0361  0.8188
 7842SOL    HW234456   1.794   5.409   0.751 -0.0615  0.3260 -0.5428
 7843SOL     OW34457   1.932   7.068   0.942  0.3481 -0.2059  0.0168
 7843SOL    HW134458   1.906   7.164   0.951  3.0260  0.7226 -1.4259
 7843SOL    HW234459   1.894   7.031   0.857 -0.3251 -0.3183  0.3613
 7844SOL     OW34460   9.941   4.306   0.175 -0.2792  0.1322  0.1328
 7844SOL    HW134461   9.852   4.260   0.171 -0.2495 -0.0863  1.6416
 7844SOL    HW234462   9.935   4.386   0.235  0.7875 -0.4523  1.0428
 7845SOL     OW34463   2.189   2.997   1.808  0.0121 -0.1362 -0.1706
 7845SOL    HW134464   2.198   2.962   1.715  0.5754  0.0772 -0.1948
 7845SOL    HW234465   2.092   3.006   1.831 -0.1459 -1.6073 -0.2093
 7846SOL     OW34466   2.278   4.666   3.773  0.0544  0.2468  0.0631
 7846SOL    HW134467   2.334   4.738   3.733  1.1897 -0.5824  0.1328
 7846SOL    HW234468   2.331   4.581   3.778 -1.3846 -0.6978 -0.3826
 7847SOL     OW34469   5.304   7.786   3.904  0.2787  0.1784 -0.5514
 7847SOL    HW134470   5.258   7.808   3.818 -0.1848  0.7783 -0.1605
 7847SOL    HW234471   5.397   7.756   3.885  0.0308 -0.1365 -1.2923
 7848SOL     OW34472   0.788   6.106   3.912  0.0526  0.5849 -0.3569
 7848SOL    HW134473   0.773   6.167   3.989  0.3040  0.5942 -0.3139
 7848SOL    HW234474   0.875   6.128   3.868  0.1322  0.2780 -0.3569
 7849SOL     OW34475   6.970   9.899   4.441  0.1107 -0.4432  0.1359
 7849SOL    HW134476   7.034   9.969   4.409  0.8245 -0.1353  2.1465
 7849SOL    HW234477   7.018   9.811   4.449  0.3895 -0.1479  1.9225
 7850SOL     OW34478   7.800   0.153   1.413  0.6279 -0.8896 -0.1493
 7850SOL    HW134479   7.826   0.224   1.347  3.8248 -1.8118  0.0233
 7850SOL    HW234480   7.812   0.189   1.506 -0.9002 -0.6205 -0.0361
 7851SOL     OW34481   9.010   7.586   1.353 -0.0440 -0.3267  0.4075
 7851SOL    HW134482   8.990   7.636   1.269  0.7549 -0.6175  0.0382
 7851SOL    HW234483   9.109   7.570   1.360  0.0859  1.1397  2.2284
 7852SOL     OW34484   1.084   5.257   0.906  0.2259 -0.6910  0.4170
 7852SOL    HW134485   1.169   5.302   0.876 -1.7834  2.2506 -1.0940
 7852SOL    HW234486   1.076   5.263   1.005  0.8633  0.6995  0.3910
 7853SOL     OW34487   5.225   7.231   3.284  0.4116 -0.3981 -0.7959
 7853SOL    HW134488   5.303   7.169   3.289 -0.0909 -0.9773  0.1231
 7853SOL    HW234489   5.142   7.181   3.310 -0.2072  0.2958 -1.4438
 7854SOL     OW34490   3.077   6.197   4.174 -0.7825  0.1283 -0.0174
 7854SOL    HW134491   3.142   6.221   4.102  2.0747 -1.2775  1.9730
 7854SOL    HW234492   3.029   6.113   4.149  0.1523 -0.3214 -0.3228
 7855SOL     OW34493   1.148   2.113   4.700 -0.2087 -0.1556  0.2436
 7855SOL    HW134494   1.179   2.208   4.711  0.9936 -0.4263 -0.7319
 7855SOL    HW234495   1.157   2.065   4.787 -0.5576  0.5394  0.6710
 7856SOL     OW34496   3.204   4.314   0.412  0.6538 -0.6376  0.2123
 7856SOL    HW134497   3.233   4.363   0.329 -0.7153  0.5400  0.4100
 7856SOL    HW234498   3.259   4.345   0.489  1.0984 -0.8403 -0.0166
 7857SOL     OW34499   5.194   1.972   2.569  0.3928 -0.0291  0.3728
 7857SOL    HW134500   5.243   2.057   2.585 -0.2457  0.5608 -0.7534
 7857SOL    HW234501   5.226   1.930   2.484 -1.3369  0.5813 -0.6036
 7858SOL     OW34502   6.269   1.478   0.979 -0.1866 -0.2220  0.1731
 7858SOL    HW134503   6.274   1.494   0.880  1.9624  0.0699  0.2957
 7858SOL    HW234504   6.250   1.381   0.995  0.5511 -0.4995 -0.5476
 7859SOL     OW34505   3.988   2.636   4.435  0.2401  0.1102  0.1425
 7859SOL    HW134506   3.899   2.632   4.388  0.9685 -1.4487 -1.1316
 7859SOL    HW234507   4.016   2.732   4.445 -0.8471  0.5442 -0.8412
 7860SOL     OW34508   9.213   7.115   0.359  0.0658  0.3174  0.5260
 7860SOL    HW134509   9.136   7.155   0.410 -0.1610  0.8593 -0.2285
 7860SOL    HW234510   9.259   7.047   0.416 -0.7575  0.2457  1.1156
 7861SOL     OW34511   7.975   7.758   4.810 -0.3214 -0.1267  0.0266
 7861SOL    HW134512   7.959   7.849   4.772 -2.1591 -0.6943 -0.6071
 7861SOL    HW234513   7.958   7.689   4.740  1.8891 -0.9468  0.2564
 7862SOL     OW34514   8.719   7.044   5.158  0.0371 -0.3200  0.6168
 7862SOL    HW134515   8.665   7.025   5.076 -0.9462  0.9985  0.9379
 7862SOL    HW234516   8.816   7.024   5.140 -0.0827  0.5107 -1.0582
 7863SOL     OW34517   1.671   3.854   5.586 -0.5163 -0.3837 -0.4859
 7863SOL    HW134518   1.660   3.809   5.498  0.2764  1.4723 -1.5621
 7863SOL    HW234519   1.745   3.921   5.580 -0.0558 -0.6373  1.7597
 7864SOL     OW34520   7.741   1.569   2.884  0.0374 -0.3962  0.2790
 7864SOL    HW134521   7.723   1.654   2.934 -0.0950 -0.2694  0.0150
 7864SOL    HW234522   7.715   1.580   2.788  0.6529 -0.5107  0.0939
 7865SOL     OW34523   2.815   5.005   0.896 -0.1605 -0.2873  0.5206
 7865SOL    HW134524   2.749   5.080   0.895 -2.0714 -1.9143  1.2809
 7865SOL    HW234525   2.802   4.949   0.978  2.7820 -0.1321  1.1499
 7866SOL     OW34526   1.577   0.464   3.707  0.1513  0.2257 -0.5342
 7866SOL    HW134527   1.515   0.389   3.730 -0.1941  0.7382  0.2047
 7866SOL    HW234528   1.614   0.449   3.616 -0.2643 -0.6165 -0.5702
 7867SOL     OW34529   2.646   5.464   0.475  0.0018  0.4295  0.6060
 7867SOL    HW134530   2.579   5.394   0.451  0.2035  0.1177  0.9366
 7867SOL    HW234531   2.633   5.491   0.570 -2.6262  3.7133 -0.6296
 7868SOL     OW34532   8.035   2.309   2.390  0.2542  0.3032  0.2632
 7868SOL    HW134533   8.003   2.326   2.297 -0.8490  0.3249  0.6382
 7868SOL    HW234534   8.001   2.381   2.451  2.1918  1.1164  0.4312
 7869SOL     OW34535   9.546   8.881   2.021  0.5518  0.4964  0.1145
 7869SOL    HW134536   9.622   8.936   1.988  1.2487 -0.6721 -0.2757
 7869SOL    HW234537   9.517   8.915   2.111  2.4948  0.0723  0.9398
 7870SOL     OW34538   7.805   8.474   2.567 -0.3457 -0.0506  0.1791
 7870SOL    HW134539   7.891   8.521   2.547 -0.9307  0.7654 -0.4471
 7870SOL    HW234540   7.745   8.479   2.487 -1.4812  0.5113  1.0539
 7871SOL     OW34541   1.898   3.316   1.219  0.3455  0.3480  0.1505
 7871SOL    HW134542   1.880   3.392   1.157  1.6562 -0.1387 -0.8362
 7871SOL    HW234543   1.827   3.246   1.207  0.1199  0.6328 -0.1823
 7872SOL     OW34544   1.356   2.394   1.229 -0.1124  0.8399  0.0312
 7872SOL    HW134545   1.443   2.377   1.276  0.5596 -0.1119 -1.5239
 7872SOL    HW234546   1.328   2.488   1.245  0.0756  0.5369  2.3725
 7873SOL     OW34547   4.609   1.074   1.720 -1.1788 -0.2059  0.0991
 7873SOL    HW134548   4.549   1.152   1.703 -1.2868 -0.3046  0.0274
 7873SOL    HW234549   4.665   1.057   1.639  0.6005  1.3298  0.9593
 7874SOL     OW34550   4.667   9.286   1.235  0.2502 -0.4507  0.3086
 7874SOL    HW134551   4.678   9.367   1.293 -0.9160  0.5819 -0.8776
 7874SOL    HW234552   4.577   9.245   1.252  0.3132 -0.7393 -0.0464
 7875SOL     OW34553   8.392   5.518   0.415  0.2431  0.0131 -0.3033
 7875SOL    HW134554   8.387   5.440   0.478 -0.4994  0.8912  0.7271
 7875SOL    HW234555   8.366   5.602   0.463  1.3102  0.9453 -1.3412
 7876SOL     OW34556   1.287   5.589   1.873  0.5104  0.1560  0.0911
 7876SOL    HW134557   1.382   5.557   1.881  0.4337 -0.4090 -1.1919
 7876SOL    HW234558   1.260   5.591   1.777 -1.3845 -1.4606  0.5630
 7877SOL     OW34559   8.717   6.458   3.345 -0.0239  0.0779 -0.0020
 7877SOL    HW134560   8.685   6.449   3.251  1.3431  1.1521 -0.5872
 7877SOL    HW234561   8.730   6.367   3.384 -1.5536 -0.3745 -0.5030
 7878SOL     OW34562   2.227   3.531   5.647 -0.2414  0.2992 -0.0640
 7878SOL    HW134563   2.137   3.551   5.608 -0.6147  0.4562  0.8826
 7878SOL    HW234564   2.218   3.458   5.715  0.4357 -0.0619 -0.3590
 7879SOL     OW34565   8.750   0.790   0.752 -0.6395  0.3080  0.0930
 7879SOL    HW134566   8.698   0.876   0.756  1.1974  1.4755 -0.5856
 7879SOL    HW234567   8.751   0.756   0.658  0.4298  0.6815 -0.0375
 7880SOL     OW34568   0.711   3.193   5.248 -0.3271  0.1534  0.5942
 7880SOL    HW134569   0.642   3.198   5.176 -0.3949  0.4416  0.6789
 7880SOL    HW234570   0.786   3.134   5.219 -0.3490  0.2801  0.2866
 7881SOL     OW34571   5.231   2.211   3.463  0.2669 -0.0294  0.4627
 7881SOL    HW134572   5.200   2.306   3.455  1.4538  0.5246  2.2563
 7881SOL    HW234573   5.317   2.208   3.513  0.2358 -2.0647  0.4250
 7882SOL     OW34574   6.566   1.523   2.614 -0.4010  0.1546  0.1423
 7882SOL    HW134575   6.620   1.603   2.641 -1.6240  1.2078 -0.4722
 7882SOL    HW234576   6.583   1.448   2.678 -0.4147  1.4098  1.6423
 7883SOL     OW34577   2.391   7.802   2.805 -0.0825  0.2443 -0.2125
 7883SOL    HW134578   2.454   7.846   2.869 -0.5332 -0.2307  0.5640
 7883SOL    HW234579   2.442   7.739   2.747  0.0663 -0.6168  0.8381
 7884SOL     OW34580   4.595   3.000   3.555 -0.2632  0.0098 -0.2391
 7884SOL    HW134581   4.639   3.021   3.467 -0.3724  1.0432 -0.0550
 7884SOL    HW234582   4.570   3.085   3.601  1.1802 -0.4745  1.5089
 7885SOL     OW34583   9.359   0.871   2.073 -0.1076  0.2560  0.0139
 7885SOL    HW134584   9.406   0.887   2.160 -0.3051 -3.3781  0.8817
 7885SOL    HW234585   9.419   0.898   1.997  2.0597 -1.1550  1.1782
 7886SOL     OW34586   6.297   0.246   3.875  0.2069 -0.2284  0.1649
 7886SOL    HW134587   6.318   0.293   3.789 -0.2844  0.9882  0.6982
 7886SOL    HW234588   6.373   0.258   3.939 -0.3460  0.7035  0.6552
 7887SOL     OW34589   1.317   3.702   4.157  0.2909  0.2711 -0.0272
 7887SOL    HW134590   1.244   3.665   4.098  0.8612 -0.7151 -0.1227
 7887SOL    HW234591   1.357   3.782   4.113 -0.6850  0.7815 -0.0111
 7888SOL     OW34592   7.651   0.394   4.647 -0.1735 -0.0992  0.4100
 7888SOL    HW134593   7.585   0.351   4.708 -1.2152 -0.0320 -0.6571
 7888SOL    HW234594   7.685   0.479   4.688 -0.3420 -0.4148  1.2026
 7889SOL     OW34595   0.498   7.887   4.473 -0.2741 -0.0523 -0.2247
 7889SOL    HW134596   0.453   7.976   4.471 -1.7296 -0.7610  0.5098
 7889SOL    HW234597   0.430   7.815   4.459  0.6137 -1.1558  1.0762
 7890SOL     OW34598   8.522   3.599   5.215  0.3302  0.1139  0.1476
 7890SOL    HW134599   8.576   3.548   5.148  0.4436 -0.7499  0.8832
 7890SOL    HW234600   8.466   3.535   5.268 -0.2421  0.8534  0.4400
 7891SOL     OW34601   0.597   2.165   1.715 -0.0653  0.6186 -0.1796
 7891SOL    HW134602   0.658   2.192   1.789  0.0850 -0.1032 -0.0292
 7891SOL    HW234603   0.571   2.245   1.662  0.3760  1.0447  0.2386
 7892SOL     OW34604   0.860   2.347   0.714  0.0104 -0.5149  0.4006
 7892SOL    HW134605   0.796   2.270   0.717  0.3546 -0.7701  1.4843
 7892SOL    HW234606   0.912   2.344   0.629 -0.9234 -0.7069 -0.1681
 7893SOL     OW34607   4.967   2.162   3.315 -0.1667  0.3909 -0.2580
 7893SOL    HW134608   5.058   2.193   3.341 -0.4611  2.0190 -1.0949
 7893SOL    HW234609   4.975   2.085   3.252  0.6045 -0.2304  0.5899
 7894SOL     OW34610   4.893   3.562   2.144  0.0155  0.2739 -0.1358
 7894SOL    HW134611   4.964   3.586   2.078 -0.9210  3.1288 -0.1864
 7894SOL    HW234612   4.857   3.646   2.187  1.0258 -1.4946  4.5045
 7895SOL     OW34613   5.100   0.289   2.500 -0.2771  0.2542  0.2039
 7895SOL    HW134614   5.165   0.222   2.464 -0.4545  0.6695 -0.9161
 7895SOL    HW234615   5.037   0.245   2.564  0.4387 -0.3638  0.4949
 7896SOL     OW34616   0.401   3.404   6.507 -0.8302 -0.1083 -0.0106
 7896SOL    HW134617   0.463   3.358   6.571  1.3337  1.0358 -1.2048
 7896SOL    HW234618   0.367   3.338   6.440  2.7422  0.0323 -2.0938
 7897SOL     OW34619   8.571   0.724   4.103 -0.1525  0.0066 -0.4371
 7897SOL    HW134620   8.490   0.768   4.140  1.1240  0.1783  2.2891
 7897SOL    HW234621   8.643   0.792   4.089 -0.1762 -0.2765 -2.0078
 7898SOL     OW34622   1.825   9.095   2.746  0.0927 -0.4774 -0.0950
 7898SOL    HW134623   1.810   9.120   2.841  1.0918  2.0315 -0.5629
 7898SOL    HW234624   1.738   9.088   2.698 -0.2406  2.0663  0.0917
 7899SOL     OW34625   1.048   2.205   3.635  0.0330 -0.4276 -0.4744
 7899SOL    HW134626   0.948   2.206   3.628 -0.0042 -2.5817 -0.6317
 7899SOL    HW234627   1.080   2.292   3.673 -2.0112 -0.2489  0.9279
 7900SOL     OW34628   8.154   3.215   4.171  0.1663 -0.0260  0.6441
 7900SOL    HW134629   8.250   3.191   4.183 -0.0390 -2.1355 -1.4651
 7900SOL    HW234630   8.144   3.269   4.087 -0.8556 -2.7340 -1.0539
 7901SOL     OW34631   0.909   1.898   2.502  0.1001 -0.8004  0.4831
 7901SOL    HW134632   0.942   1.837   2.430  0.0928  0.8361 -0.9387
 7901SOL    HW234633   0.981   1.911   2.570  0.0637 -2.4637  0.8759
 7902SOL     OW34634   7.824   2.515   3.075  0.6739 -0.0860 -0.2957
 7902SOL    HW134635   7.831   2.433   3.019 -0.7877 -0.8583  0.6259
 7902SOL    HW234636   7.857   2.594   3.023 -1.1212 -0.6882 -2.4309
 7903SOL     OW34637   6.621   0.621   4.149  0.1741 -0.3816 -0.3271
 7903SOL    HW134638   6.580   0.634   4.239  0.8198  1.6404 -0.2854
 7903SOL    HW234639   6.581   0.541   4.105 -3.7278  1.3790 -0.2082
 7904SOL     OW34640   9.012   8.411   3.434  0.5699 -0.2885 -0.2299
 7904SOL    HW134641   9.079   8.386   3.364 -0.1297 -0.7250 -0.7547
 7904SOL    HW234642   8.977   8.329   3.478 -1.0481 -0.2194 -1.3160
 7905SOL     OW34643   8.218   7.499   2.262  0.2287  1.0566 -0.3229
 7905SOL    HW134644   8.187   7.414   2.306  1.5919  1.0222  0.6242
 7905SOL    HW234645   8.209   7.491   2.163  0.7149 -0.3626 -0.2685
 7906SOL     OW34646   6.476   7.855   2.399  0.1867 -0.2619  0.3553
 7906SOL    HW134647   6.421   7.863   2.316 -0.2579 -1.1897  0.5528
 7906SOL    HW234648   6.419   7.819   2.473  0.3656  1.3140  1.2860
 7907SOL     OW34649   8.416   0.847   6.237  0.5606  0.1960  0.0835
 7907SOL    HW134650   8.342   0.898   6.194 -0.1821 -0.5943  0.4070
 7907SOL    HW234651   8.380   0.761   6.273  1.9154 -0.8846 -1.0662
 7908SOL     OW34652   1.053   9.505   1.883  0.3013 -0.0558  0.8638
 7908SOL    HW134653   1.049   9.567   1.805 -1.6540  0.9680  1.7359
 7908SOL    HW234654   1.042   9.411   1.852 -0.0933  0.3161 -0.1386
 7909SOL     OW34655   0.276   1.560   4.204 -1.1379 -0.4051  0.4009
 7909SOL    HW134656   0.249   1.552   4.301  1.5041  1.8294  1.3745
 7909SOL    HW234657   0.344   1.491   4.183 -1.8174 -0.9833  0.0685
 7910SOL     OW34658   3.199   4.148   2.787  0.1318 -0.5440 -0.1943
 7910SOL    HW134659   3.162   4.214   2.853 -0.7145 -1.6538  0.4662
 7910SOL    HW234660   3.269   4.092   2.832  1.6941  0.6654 -1.0758
 7911SOL     OW34661   7.097   9.203   5.429  0.8131  0.1495 -0.4396
 7911SOL    HW134662   7.076   9.290   5.384  2.2473  1.5697  1.5523
 7911SOL    HW234663   7.108   9.132   5.360 -0.6714  1.4783 -2.0860
 7912SOL     OW34664   2.204   3.097   5.089  0.2551  1.0507  0.1429
 7912SOL    HW134665   2.293   3.102   5.134  0.2610  0.1897  0.2395
 7912SOL    HW234666   2.136   3.063   5.154  0.3099 -0.3993 -0.5429
 7913SOL     OW34667   0.668   3.936   5.963  0.5424 -0.1290 -0.6030
 7913SOL    HW134668   0.707   3.847   5.989 -1.1461 -0.0880  2.3284
 7913SOL    HW234669   0.606   3.924   5.887 -1.8797 -2.0259  1.5755
 7914SOL     OW34670   2.314   6.598   4.741 -0.1968  0.0584 -0.2460
 7914SOL    HW134671   2.386   6.605   4.810  0.3180  1.2762 -0.8723
 7914SOL    HW234672   2.356   6.597   4.650 -0.8612 -1.5926 -0.5485
 7915SOL     OW34673   5.017   9.146   3.930  0.7947  0.3490  0.0456
 7915SOL    HW134674   5.029   9.053   3.894  0.9519  0.5850 -0.5179
 7915SOL    HW234675   5.096   9.202   3.903  1.1929  0.3784  1.2430
 7916SOL     OW34676   2.274   6.026   0.433  0.3352  0.2645 -0.3531
 7916SOL    HW134677   2.270   5.964   0.511  0.8367 -2.1395 -2.1785
 7916SOL    HW234678   2.366   6.065   0.426  0.2052  0.7174  0.4144
 7917SOL     OW34679   8.652   7.625   0.100  0.8108 -0.4579 -0.0882
 7917SOL    HW134680   8.652   7.543   0.043  0.5098 -0.9280  0.5820
 7917SOL    HW234681   8.747   7.648   0.124  0.9155 -0.4528 -0.4935
 7918SOL     OW34682   2.674   7.293   1.176 -0.1089  0.0590  0.4170
 7918SOL    HW134683   2.611   7.303   1.099  2.2325 -0.0239 -1.6017
 7918SOL    HW234684   2.707   7.383   1.205  1.2879 -0.0662 -0.7031
 7919SOL     OW34685   8.175   2.473   4.357 -0.1345 -0.5156  0.0018
 7919SOL    HW134686   8.122   2.557   4.372  0.4829  0.0698 -1.0416
 7919SOL    HW234687   8.238   2.487   4.281  1.5299 -1.1964  1.2373
 7920SOL     OW34688   2.092   2.498   4.042  0.3966 -0.0025 -0.2829
 7920SOL    HW134689   2.007   2.479   4.091  1.4710 -1.4605  1.0599
 7920SOL    HW234690   2.144   2.567   4.091  0.0678  0.7971 -1.0391
 7921SOL     OW34691   9.494   5.506   3.573  0.3958 -0.5049 -0.6941
 7921SOL    HW134692   9.503   5.420   3.523 -0.9815  0.1627 -2.1410
 7921SOL    HW234693   9.536   5.579   3.519 -0.5968  0.1249 -0.6195
 7922SOL     OW34694   9.543   0.385   0.937  0.2024  0.4841 -0.1102
 7922SOL    HW134695   9.495   0.321   0.878 -1.0236 -0.0433  1.4276
 7922SOL    HW234696   9.502   0.475   0.930  0.6680  0.6534 -0.7658
 7923SOL     OW34697   4.842   4.545   1.089 -0.2064 -0.6908  0.3068
 7923SOL    HW134698   4.894   4.512   1.168  0.7887  2.5539  1.0481
 7923SOL    HW234699   4.875   4.635   1.061 -2.0699 -0.7696 -2.4022
 7924SOL     OW34700   3.937   3.035   3.634  0.4714  0.3084 -0.0722
 7924SOL    HW134701   4.005   2.961   3.639 -0.1932 -0.3331 -0.3427
 7924SOL    HW234702   3.869   3.012   3.564 -0.3579  0.6659  0.6136
 7925SOL     OW34703   0.515   6.586   4.364 -0.0920  0.1738  0.2444
 7925SOL    HW134704   0.497   6.638   4.448 -1.0031  0.9455 -0.4132
 7925SOL    HW234705   0.450   6.613   4.293  0.0344 -1.1858 -0.4165
 7926SOL     OW34706   9.156   9.456   1.023 -0.1270  0.9702 -0.1603
 7926SOL    HW134707   9.143   9.488   0.929  0.8359  2.2076  0.1254
 7926SOL    HW234708   9.089   9.383   1.043  0.2808  0.0509 -2.0941
 7927SOL     OW34709   1.891   4.975   3.925  0.3104  0.2026  0.0407
 7927SOL    HW134710   1.876   5.010   3.832  1.4018  0.9400  0.1354
 7927SOL    HW234711   1.916   4.879   3.921  1.0462  0.4105 -0.4831
 7928SOL     OW34712   1.640   9.970   2.898 -0.0850  0.1688  0.6214
 7928SOL    HW134713   1.572   9.897   2.907 -1.3293  1.1390 -0.5954
 7928SOL    HW234714   1.606  10.039   2.834  1.6455  1.1601  0.7379
 7929SOL     OW34715   9.725   3.697   2.942  0.9138  0.5142 -0.9696
 7929SOL    HW134716   9.711   3.603   2.975  1.2913  0.4668 -0.9330
 7929SOL    HW234717   9.704   3.761   3.016 -0.6666  0.5236 -1.4203
 7930SOL     OW34718   3.166   5.034   2.057  0.3062 -0.0192  0.2273
 7930SOL    HW134719   3.078   5.042   2.105  0.6922  1.5781  0.7155
 7930SOL    HW234720   3.179   5.116   2.000  1.3394 -0.4002 -0.0830
 7931SOL     OW34721   0.982   5.464   3.350  0.2142 -0.1342  0.0898
 7931SOL    HW134722   1.014   5.444   3.442 -1.7859 -1.0501  0.6228
 7931SOL    HW234723   0.959   5.561   3.343  2.3002  0.3700 -0.0829
 7932SOL     OW34724   8.989   9.367   1.290 -0.5021 -0.4596 -0.3317
 7932SOL    HW134725   8.949   9.340   1.378  1.9064 -2.2431  0.2821
 7932SOL    HW234726   9.083   9.395   1.304 -0.3495  0.0462 -2.2531
 7933SOL     OW34727   3.398   8.461   2.601 -0.3578 -0.3979 -0.8193
 7933SOL    HW134728   3.393   8.383   2.538 -0.5890 -0.6313 -0.5148
 7933SOL    HW234729   3.306   8.494   2.620 -0.4609 -1.7424  1.1449
 7934SOL     OW34730   1.804   8.870   3.694 -0.2523 -0.1647  0.6652
 7934SOL    HW134731   1.864   8.795   3.721 -0.1023 -0.5108 -0.6067
 7934SOL    HW234732   1.745   8.840   3.619  0.0866  1.1124 -0.1236
 7935SOL     OW34733   3.430   7.942   1.544  0.3078  0.0714  0.2671
 7935SOL    HW134734   3.461   7.870   1.606 -1.2314 -0.5718  0.2993
 7935SOL    HW234735   3.352   7.990   1.584 -0.6364 -0.2934 -1.1226
 7936SOL     OW34736   4.917   0.652   2.932  0.4819 -0.1510  0.7786
 7936SOL    HW134737   4.884   0.710   3.007 -0.9154 -1.1620  0.9748
 7936SOL    HW234738   4.846   0.647   2.862  0.5687 -1.6803  0.7982
 7937SOL     OW34739   0.378   1.761   3.398  0.0523 -0.2310 -0.1334
 7937SOL    HW134740   0.307   1.709   3.350 -0.8680 -0.8245  1.7813
 7937SOL    HW234741   0.425   1.701   3.463  1.1634  0.5770 -0.1671
 7938SOL     OW34742   3.987   8.611   1.819 -0.2990  0.4602 -0.4416
 7938SOL    HW134743   3.888   8.602   1.827 -0.2094 -0.9125 -0.7757
 7938SOL    HW234744   4.030   8.522   1.829  0.9546  1.1314  0.2883
 7939SOL     OW34745   9.695   0.264   1.604  0.4588 -0.0007  0.2110
 7939SOL    HW134746   9.752   0.191   1.566  1.0347 -0.2093  1.4449
 7939SOL    HW234747   9.601   0.252   1.574  1.0301  0.3228 -1.8295
 7940SOL     OW34748   3.928   5.921   1.879  0.1060 -0.1840  0.2652
 7940SOL    HW134749   3.841   5.933   1.927  0.2798  0.5257  0.3995
 7940SOL    HW234750   3.932   5.828   1.841 -0.7660 -0.1711  0.1323
 7941SOL     OW34751   0.449   4.540   1.448  0.9871  0.2193  1.2824
 7941SOL    HW134752   0.473   4.456   1.401  0.6519  0.7021  0.2233
 7941SOL    HW234753   0.532   4.590   1.473  1.1557  0.3851  0.4085
 7942SOL     OW34754   0.932   2.871   1.466 -0.5660  0.3883  0.5136
 7942SOL    HW134755   0.848   2.920   1.442 -1.4776 -1.3976 -0.0433
 7942SOL    HW234756   0.910   2.791   1.521  0.7986 -0.0296  0.4792
 7943SOL     OW34757   9.617   6.172   6.086  0.3759  0.0673  0.0168
 7943SOL    HW134758   9.657   6.172   6.178 -0.0827 -0.0596  0.2202
 7943SOL    HW234759   9.528   6.127   6.089  0.7021 -0.6426 -0.6407
 7944SOL     OW34760   3.889   6.752   3.593 -0.3172 -0.2653  0.0130
 7944SOL    HW134761   3.819   6.730   3.662 -1.3585  0.1987 -0.8867
 7944SOL    HW234762   3.977   6.715   3.623 -1.0743 -1.4458  0.8461
 7945SOL     OW34763   9.715   8.045   5.527  0.2023 -0.0314 -0.1165
 7945SOL    HW134764   9.723   8.032   5.428  0.2498 -0.0864 -0.1053
 7945SOL    HW234765   9.641   8.110   5.546  0.5914  0.4431 -0.2114
 7946SOL     OW34766   8.760   5.934   5.023  0.4390  0.9186 -0.0974
 7946SOL    HW134767   8.731   6.007   5.085 -0.3987  0.8491 -0.4049
 7946SOL    HW234768   8.816   5.869   5.073 -1.0239  0.3524  0.8338
 7947SOL     OW34769   7.518   0.808   1.071 -0.3503  0.2395 -0.0478
 7947SOL    HW134770   7.548   0.739   1.136  0.7729  0.9148  0.1685
 7947SOL    HW234771   7.430   0.781   1.032 -0.2510 -0.9715  0.5324
 7948SOL     OW34772   0.398   8.736   2.560  0.2476 -0.4385  0.2539
 7948SOL    HW134773   0.308   8.740   2.516  1.4774  1.2262 -2.1759
 7948SOL    HW234774   0.443   8.650   2.536  0.3356 -0.1579 -0.5705
 7949SOL     OW34775   0.559   6.088   1.234  0.5305  0.0549  0.4505
 7949SOL    HW134776   0.478   6.140   1.261 -0.6672 -1.5093 -0.0581
 7949SOL    HW234777   0.532   5.994   1.214  2.3697 -0.2880 -0.4332
 7950SOL     OW34778   2.104   3.708   4.904  0.0098 -0.1332  0.2482
 7950SOL    HW134779   2.051   3.696   4.820  1.5335  3.1759 -1.2748
 7950SOL    HW234780   2.201   3.697   4.884  0.3182 -0.3915  1.8041
 7951SOL     OW34781   0.587   7.653   0.833  0.4838  0.1475 -1.0056
 7951SOL    HW134782   0.616   7.583   0.898 -0.3836 -1.0383 -1.8605
 7951SOL    HW234783   0.621   7.742   0.862  1.2462 -0.5644  0.3332
 7952SOL     OW34784   0.901   8.466   4.611  0.0640 -0.0809 -0.3177
 7952SOL    HW134785   0.976   8.401   4.617  1.1088  1.3090  2.5413
 7952SOL    HW234786   0.815   8.419   4.632  0.5646 -0.9196 -0.1053
 7953SOL     OW34787   8.719   8.233   2.866  0.3760  0.5839 -0.3549
 7953SOL    HW134788   8.728   8.142   2.826  0.3462  0.5881 -0.3693
 7953SOL    HW234789   8.636   8.238   2.920  0.4794  0.5414 -0.1936
 7954SOL     OW34790   6.899   1.035   4.738  0.0972  0.6615  0.5044
 7954SOL    HW134791   6.924   1.012   4.644 -2.1011  0.0216  0.0392
 7954SOL    HW234792   6.804   1.008   4.754 -0.7820  4.2240  1.7423
 7955SOL     OW34793   0.077   3.754   0.613 -0.0568 -0.4136  0.1689
 7955SOL    HW134794   0.027   3.733   0.529 -1.4844  1.2602  0.5532
 7955SOL    HW234795   0.172   3.775   0.591 -0.3550 -0.2336 -1.0112
 7956SOL     OW34796   2.744   7.479   5.164  0.3969 -0.4403 -0.5659
 7956SOL    HW134797   2.799   7.553   5.126  0.7326  0.0873  0.9168
 7956SOL    HW234798   2.797   7.431   5.235 -1.1628  0.3106  1.1491
 7957SOL     OW34799   4.096   2.226   1.359  0.3780  0.3279  0.0170
 7957SOL    HW134800   4.018   2.286   1.343 -0.3813 -0.0837  2.0075
 7957SOL    HW234801   4.074   2.133   1.327 -0.5698 -0.1512  1.9891
 7958SOL     OW34802   2.477   9.440   2.593  0.0776 -0.1639 -0.1773
 7958SOL    HW134803   2.571   9.409   2.589 -0.5586 -2.3049  1.0123
 7958SOL    HW234804   2.453   9.464   2.687 -1.1206 -1.4665 -0.1346
 7959SOL     OW34805   8.834   9.298   2.879 -0.1823  0.2423 -0.1175
 7959SOL    HW134806   8.768   9.322   2.950  0.0765  1.7805 -0.3658
 7959SOL    HW234807   8.789   9.299   2.790 -0.0686  0.1976 -0.1749
 7960SOL     OW34808   8.720   3.322   5.348 -0.1693  0.6853  0.1764
 7960SOL    HW134809   8.816   3.297   5.332  0.3576  0.0106  3.9040
 7960SOL    HW234810   8.685   3.372   5.269  3.5371  1.7414 -0.9038
 7961SOL     OW34811   0.488   4.400   6.531 -0.4496  0.0895  0.0624
 7961SOL    HW134812   0.389   4.406   6.514 -1.0120 -1.2668  2.5275
 7961SOL    HW234813   0.505   4.404   6.629  1.8406 -1.0483 -0.2544
 7962SOL     OW34814   8.888   1.958   2.107  0.1929 -0.1989  0.2972
 7962SOL    HW134815   8.851   1.883   2.051 -1.6422  0.4473  0.6189
 7962SOL    HW234816   8.874   2.045   2.059  0.8287  0.1053  0.6609
 7963SOL     OW34817   1.924   7.584   5.305 -0.3362  0.4744 -0.1558
 7963SOL    HW134818   1.922   7.533   5.391  0.1197 -1.4028 -1.2435
 7963SOL    HW234819   2.011   7.569   5.259 -1.0076  0.6073 -1.4823
 7964SOL     OW34820   6.582   9.154   5.568 -0.6392  0.1883 -0.2286
 7964SOL    HW134821   6.593   9.071   5.513  2.5141  1.9420 -2.4383
 7964SOL    HW234822   6.509   9.210   5.529  0.9313  0.9682 -2.1521
 7965SOL     OW34823   3.914   6.950   3.841  0.0237  0.4725 -0.1155
 7965SOL    HW134824   3.880   6.997   3.759 -0.9977  0.8540  0.5176
 7965SOL    HW234825   3.967   7.013   3.897  0.4317  0.3046 -0.3122
 7966SOL     OW34826   4.783   1.075   2.504 -0.2250  0.3336  0.1235
 7966SOL    HW134827   4.741   1.165   2.509 -1.6384 -0.3349  0.6169
 7966SOL    HW234828   4.874   1.082   2.463  0.7797  2.3300  2.6054
 7967SOL     OW34829   0.830   2.330   2.110 -0.2697 -0.1268 -0.0325
 7967SOL    HW134830   0.738   2.353   2.142 -0.4356 -0.9161  0.0603
 7967SOL    HW234831   0.829   2.241   2.065  0.2391  0.3511 -1.0002
 7968SOL     OW34832   6.676   7.313   4.124  0.3598  0.2516 -0.0733
 7968SOL    HW134833   6.697   7.410   4.139  1.3200 -0.0520  0.6325
 7968SOL    HW234834   6.592   7.289   4.171  1.0350  0.3420  1.1951
 7969SOL     OW34835   8.519   8.831   3.350  0.7245  0.1272 -1.2190
 7969SOL    HW134836   8.545   8.758   3.287 -0.4824  0.3028 -1.9295
 7969SOL    HW234837   8.523   8.919   3.301 -0.1028  0.2753 -1.0265
 7970SOL     OW34838   1.269   4.031   1.768 -0.7426  0.4738 -0.2843
 7970SOL    HW134839   1.210   3.950   1.779  0.8438 -0.7609 -0.6663
 7970SOL    HW234840   1.324   4.043   1.850  1.0139 -0.4812 -1.2947
 7971SOL     OW34841   6.284   8.031   5.039  0.0532  0.3478  0.3857
 7971SOL    HW134842   6.378   8.045   5.070  0.8565 -0.3044 -1.6416
 7971SOL    HW234843   6.274   7.937   5.004 -1.3442  0.4174  0.5787
 7972SOL     OW34844   8.715   4.907   2.695  0.3752 -0.1907  0.2012
 7972SOL    HW134845   8.713   4.939   2.790  2.9164  2.7798 -0.6796
 7972SOL    HW234846   8.803   4.931   2.654 -0.0822 -2.8378 -2.4785
 7973SOL     OW34847   0.352   4.791   1.277 -0.0483 -0.0252  0.3670
 7973SOL    HW134848   0.290   4.731   1.328 -1.1762  0.1202 -0.8412
 7973SOL    HW234849   0.444   4.783   1.317 -0.4639 -1.5315  1.0804
 7974SOL     OW34850   3.946   0.764   2.299  0.0963  0.7233 -0.1370
 7974SOL    HW134851   3.927   0.667   2.302  1.3489  0.4882  0.7775
 7974SOL    HW234852   4.004   0.784   2.219 -1.2705  0.9320 -1.0806
 7975SOL     OW34853   2.030   3.131   3.936 -0.2858 -0.4301 -0.6122
 7975SOL    HW134854   2.115   3.183   3.927  0.1949 -0.8303  1.3992
 7975SOL    HW234855   1.954   3.193   3.954 -0.1706 -0.1986 -0.9200
 7976SOL     OW34856   2.941   3.285   2.631 -0.4856 -0.4643 -0.9318
 7976SOL    HW134857   3.026   3.231   2.627  0.0541  0.3998 -1.5351
 7976SOL    HW234858   2.962   3.380   2.606 -1.3012  0.1737  0.7384
 7977SOL     OW34859   9.015   1.045   1.971  0.7694 -0.0726  0.1806
 7977SOL    HW134860   9.012   1.133   1.924  1.3086 -1.2002 -2.0420
 7977SOL    HW234861   9.049   1.058   2.064  2.4592  1.8522 -0.6771
 7978SOL     OW34862   9.708   2.662   4.475  0.5950  0.1124  0.4049
 7978SOL    HW134863   9.784   2.620   4.426 -0.4471 -2.3449  0.8467
 7978SOL    HW234864   9.723   2.653   4.573  0.1976  0.4625  0.4979
 7979SOL     OW34865   9.468   4.319   6.014 -0.2410  0.7396 -0.3804
 7979SOL    HW134866   9.526   4.251   5.970 -2.0172  0.5086 -2.4560
 7979SOL    HW234867   9.468   4.403   5.959  0.6268  1.8416  1.2824
 7980SOL     OW34868   2.655   7.730   0.393 -0.0575  0.3532 -0.2578
 7980SOL    HW134869   2.663   7.815   0.445  2.1196 -0.8390  1.4451
 7980SOL    HW234870   2.716   7.734   0.313 -2.0998  1.4929 -1.7993
 7981SOL     OW34871   7.338   2.774   0.968 -0.8156  0.3435  0.1639
 7981SOL    HW134872   7.248   2.758   0.927 -0.0856 -2.5708 -0.4187
 7981SOL    HW234873   7.344   2.725   1.055  0.3886  0.0319 -0.0857
 7982SOL     OW34874   3.728   5.696   2.180  0.2018  0.5774 -0.1473
 7982SOL    HW134875   3.666   5.620   2.198 -0.2634  1.1160  0.5477
 7982SOL    HW234876   3.683   5.782   2.202  0.9610  1.0159 -0.2829
 7983SOL     OW34877   1.895   2.694   2.526  0.0425  0.5004  0.1411
 7983SOL    HW134878   1.875   2.596   2.524 -0.4122  0.5926 -0.2175
 7983SOL    HW234879   1.819   2.743   2.570  0.0241  0.7422 -0.1540
 7984SOL     OW34880   2.176   2.927   4.676  0.2176 -0.9745  0.3519
 7984SOL    HW134881   2.118   2.989   4.729  0.1247 -1.0535  0.3432
 7984SOL    HW234882   2.186   2.962   4.583 -0.2650 -1.2469  0.1973
 7985SOL     OW34883   1.917   5.970   6.253  0.1410  0.1916 -0.2953
 7985SOL    HW134884   1.978   5.892   6.272 -0.2325 -0.5564 -2.1029
 7985SOL    HW234885   1.972   6.049   6.226  0.4234  0.1210  0.0563
 7986SOL     OW34886   3.890   4.788   4.617 -0.1611 -0.0481 -0.1627
 7986SOL    HW134887   3.908   4.733   4.698  2.7868  0.7005 -0.2341
 7986SOL    HW234888   3.831   4.865   4.642  1.2191  0.5259  1.4276
 7987SOL     OW34889   3.458   0.656   2.851 -0.0263 -0.6994 -0.1858
 7987SOL    HW134890   3.376   0.600   2.842  0.4363 -1.6888  1.3260
 7987SOL    HW234891   3.438   0.751   2.827 -1.4143 -1.0710 -0.5270
 7988SOL     OW34892   1.413   2.132   1.087 -0.1311 -0.4235  0.5440
 7988SOL    HW134893   1.435   2.227   1.112 -0.3345 -0.3243  0.3468
 7988SOL    HW234894   1.343   2.097   1.149 -2.2407  0.5499 -1.1998
 7989SOL     OW34895   8.950   5.884   4.651  0.0951 -0.1975  0.2028
 7989SOL    HW134896   9.033   5.932   4.621  1.1957 -1.5339  1.0548
 7989SOL    HW234897   8.946   5.885   4.751 -2.3230  2.1803  0.1349
 7990SOL     OW34898   2.142   5.732   5.981  0.1778  0.3229 -0.3613
 7990SOL    HW134899   2.121   5.671   5.905  0.6554  0.5164 -0.6441
 7990SOL    HW234900   2.206   5.803   5.952  0.5161  0.2829  0.2676
 7991SOL     OW34901   0.760   2.603   0.814 -0.1734  0.9268  0.5504
 7991SOL    HW134902   0.833   2.666   0.789 -0.4738  1.2698  0.5374
 7991SOL    HW234903   0.788   2.509   0.794 -0.4340  1.1898 -1.1232
 7992SOL     OW34904   5.863   3.931   0.650  0.0064 -0.1601 -0.1180
 7992SOL    HW134905   5.930   3.983   0.597 -1.5974  1.8098 -0.3112
 7992SOL    HW234906   5.820   3.991   0.718 -2.9523 -0.8027 -1.3275
 7993SOL     OW34907   3.917   4.716   3.605 -0.3575 -0.4832  0.2097
 7993SOL    HW134908   3.975   4.738   3.526  0.8207 -0.9063  0.9490
 7993SOL    HW234909   3.832   4.769   3.600  0.7668  1.2977 -0.0606
 7994SOL     OW34910   8.627   8.608   3.814 -0.2521 -0.5840  0.2643
 7994SOL    HW134911   8.630   8.508   3.817 -0.7505 -0.5872  1.0054
 7994SOL    HW234912   8.629   8.639   3.719 -0.5348 -1.3122  0.0168
 7995SOL     OW34913   8.407   4.415   0.976 -0.2983  0.0855 -0.2698
 7995SOL    HW134914   8.309   4.398   0.982 -0.0468 -1.3925  0.0024
 7995SOL    HW234915   8.429   4.455   0.887 -1.1574  0.4431 -0.3147
 7996SOL     OW34916   4.417   5.905   2.860 -0.0967 -0.0114  0.3445
 7996SOL    HW134917   4.371   5.854   2.934  0.8872 -0.8369  0.3937
 7996SOL    HW234918   4.356   5.978   2.828 -0.6078  0.2450  1.8468
 7997SOL     OW34919   0.949   3.843   6.272 -0.3812  0.2710 -0.3439
 7997SOL    HW134920   1.013   3.919   6.279 -1.4874  1.1887 -0.2340
 7997SOL    HW234921   0.857   3.874   6.294 -0.9606 -0.9239 -1.0381
 7998SOL     OW34922   3.211   5.992   3.814  0.0703 -0.0181 -0.1762
 7998SOL    HW134923   3.242   5.953   3.901  0.6973  1.3454  0.2303
 7998SOL    HW234924   3.289   5.997   3.750 -0.4252 -1.1789 -0.8904
 7999SOL     OW34925   0.276   4.054   6.266  0.0874 -0.4286 -0.0198
 7999SOL    HW134926   0.349   4.052   6.197 -0.5633  0.0623 -0.7357
 7999SOL    HW234927   0.316   4.056   6.357  0.9842  0.2377 -0.4214
 8000SOL     OW34928   5.795   4.390   0.546 -0.2612 -0.6042  0.2341
 8000SOL    HW134929   5.821   4.462   0.611 -0.1913  0.0140 -0.4752
 8000SOL    HW234930   5.701   4.361   0.564 -0.1939 -0.5405  0.7021
 8001SOL     OW34931   2.038   8.266   5.467  0.1974  0.1087 -0.1720
 8001SOL    HW134932   2.038   8.329   5.390 -0.9710  0.0066 -0.2667
 8001SOL    HW234933   1.947   8.224   5.476  1.0099 -1.7227 -0.2540
 8002SOL     OW34934   1.129   4.486   1.428 -0.6957 -0.3378 -0.4285
 8002SOL    HW134935   1.101   4.390   1.422 -0.7751 -0.2818 -1.0386
 8002SOL    HW234936   1.078   4.532   1.501 -0.8691 -0.6883 -0.3298
 8003SOL     OW34937   1.010   3.359   0.230  0.0860  0.1013  0.1426
 8003SOL    HW134938   0.982   3.423   0.158 -1.5919 -0.7503  0.0215
 8003SOL    HW234939   0.948   3.368   0.308 -0.6364 -1.9153 -0.1829
 8004SOL     OW34940   0.995   4.899   3.933 -0.2411 -0.0190  0.5836
 8004SOL    HW134941   1.008   4.997   3.917  0.4207 -0.4285 -1.6631
 8004SOL    HW234942   0.909   4.883   3.981  0.1510  1.7263  1.8973
 8005SOL     OW34943   6.747   4.314   0.720  0.5159 -0.6814  0.2680
 8005SOL    HW134944   6.705   4.225   0.736  0.4057 -0.6514  0.1457
 8005SOL    HW234945   6.762   4.361   0.807 -1.1070 -0.0391  0.2204
 8006SOL     OW34946   6.394   1.218   4.048 -0.7037  0.3829 -0.3785
 8006SOL    HW134947   6.351   1.306   4.064 -0.7636  0.3325 -0.2551
 8006SOL    HW234948   6.493   1.228   4.050 -0.7107  0.5107 -0.7304
 8007SOL     OW34949   3.183   1.792   2.724  0.0755  0.2388 -0.1432
 8007SOL    HW134950   3.156   1.838   2.808  0.8097  0.4715 -0.0338
 8007SOL    HW234951   3.252   1.847   2.676 -2.8819  1.9172 -2.6927
 8008SOL     OW34952   5.985   1.801   3.284  0.9859  0.0813  0.1291
 8008SOL    HW134953   6.035   1.782   3.368 -1.4747 -0.5157  1.5324
 8008SOL    HW234954   5.887   1.802   3.304  0.2339 -2.0490 -3.0955
 8009SOL     OW34955   1.473   0.767   2.724  0.1965  0.3352  0.3059
 8009SOL    HW134956   1.516   0.853   2.752  0.0649  1.4492 -2.7098
 8009SOL    HW234957   1.399   0.744   2.788 -0.4102  2.9933  0.6053
 8010SOL     OW34958   7.435   9.364   2.374 -0.1412  0.1423 -0.2003
 8010SOL    HW134959   7.515   9.305   2.377  0.3493  0.8076 -0.0140
 8010SOL    HW234960   7.360   9.317   2.328  0.3256 -0.5216 -0.2828
 8011SOL     OW34961   1.992   4.308   5.071 -0.0190 -0.2132 -0.1373
 8011SOL    HW134962   1.893   4.306   5.058 -0.0715 -0.9140  0.3298
 8011SOL    HW234963   2.016   4.255   5.152  0.7452 -0.0622 -0.2581
 8012SOL     OW34964   8.958   4.296   1.060 -0.4683 -0.9042  0.1923
 8012SOL    HW134965   8.881   4.330   1.114 -0.3084  2.7374 -1.6858
 8012SOL    HW234966   8.949   4.329   0.966  2.3307 -2.1542 -0.5486
 8013SOL     OW34967   6.448   0.892   3.737  0.3974 -0.0655 -0.0176
 8013SOL    HW134968   6.514   0.882   3.662  0.6824 -0.6309  0.3056
 8013SOL    HW234969   6.439   0.805   3.785  0.4678  0.3800  0.8154
 8014SOL     OW34970   1.183   6.428   1.618  0.1090 -0.2580  0.0422
 8014SOL    HW134971   1.215   6.459   1.707  0.1739  0.0610 -0.0942
 8014SOL    HW234972   1.191   6.328   1.613 -0.7975 -0.3781  0.7536
 8015SOL     OW34973   8.776   9.796   2.397  0.0649 -0.2163  0.2353
 8015SOL    HW134974   8.865   9.806   2.443  0.3031 -0.5191 -0.1522
 8015SOL    HW234975   8.739   9.705   2.416  0.8668 -0.8943 -1.3822
 8016SOL     OW34976   0.820   4.008   1.184 -0.5108  0.0850  0.2889
 8016SOL    HW134977   0.917   4.031   1.183  0.2682 -2.8869 -0.0061
 8016SOL    HW234978   0.809   3.912   1.213 -3.3429  0.3517  0.2470
 8017SOL     OW34979   8.203   9.153   1.099  0.1647  0.1699 -0.2436
 8017SOL    HW134980   8.221   9.249   1.121  2.1014  0.2503 -1.9508
 8017SOL    HW234981   8.145   9.148   1.017 -0.3754 -0.1301  0.1506
 8018SOL     OW34982   0.844   7.985   6.460 -0.0028 -0.1706 -0.0216
 8018SOL    HW134983   0.840   7.973   6.559  0.7875  0.1648  0.0523
 8018SOL    HW234984   0.814   7.900   6.415  0.8721 -0.7740  0.5076
 8019SOL     OW34985   7.759   9.584   3.587  0.4060 -0.0612 -0.2280
 8019SOL    HW134986   7.847   9.561   3.546 -0.3987 -1.5979 -1.1469
 8019SOL    HW234987   7.690   9.519   3.556 -1.3148  1.8161 -0.4336
 8020SOL     OW34988   4.198   3.472   4.170 -0.3176 -0.0926  0.3220
 8020SOL    HW134989   4.286   3.472   4.217 -0.9594  1.5368  1.5945
 8020SOL    HW234990   4.124   3.462   4.237 -1.1598 -0.2353 -0.6037
 8021SOL     OW34991   0.758   8.120   4.806 -0.5756  0.4286  0.2018
 8021SOL    HW134992   0.806   8.033   4.820  0.5567  1.0991  0.5859
 8021SOL    HW234993   0.661   8.103   4.793 -0.0790 -1.0507 -1.6855
 8022SOL     OW34994   2.786   6.840   0.039 -0.1066  0.1990  0.0465
 8022SOL    HW134995   2.725   6.778  -0.010  0.4305 -1.1957  1.1095
 8022SOL    HW234996   2.731   6.908   0.089 -0.6566  1.7550 -2.5593
 8023SOL     OW34997   1.335   3.887   2.273 -0.2976  0.4384  0.3433
 8023SOL    HW134998   1.352   3.982   2.296 -2.9118  0.9860  0.1311
 8023SOL    HW234999   1.403   3.829   2.319  1.3866  2.3779  0.3704
 8024SOL     OW35000   1.941   9.241   2.266  0.3527 -0.1520 -0.5981
 8024SOL    HW135001   1.842   9.234   2.278  0.7542 -2.4972  1.7729
 8024SOL    HW235002   1.962   9.254   2.169 -2.2315 -0.1133 -1.1902
 8025SOL     OW35003   1.040   3.572   0.914  0.4275 -0.2539  0.3042
 8025SOL    HW135004   1.049   3.616   1.003  1.2032  1.2225 -0.4799
 8025SOL    HW235005   1.068   3.476   0.920 -0.9042 -0.5640  1.9474
 8026SOL     OW35006   2.148   5.791   6.286  0.6087  0.2937 -0.7497
 8026SOL    HW135007   2.197   5.878   6.294  0.3214  0.4700 -0.8976
 8026SOL    HW235008   2.164   5.752   6.196  1.2829 -0.1374 -0.4472
 8027SOL     OW35009   3.508   3.130   2.089 -0.1686  0.3138 -0.5840
 8027SOL    HW135010   3.436   3.087   2.143 -1.0947  1.1975 -1.0811
 8027SOL    HW235011   3.595   3.084   2.105 -1.0956 -1.6395 -0.9948
 8028SOL     OW35012   8.081   3.509   4.244  0.3355 -0.0036  0.1144
 8028SOL    HW135013   8.090   3.416   4.209 -1.7006 -0.0391 -0.3682
 8028SOL    HW235014   8.059   3.507   4.341 -1.2620 -0.0949 -0.2285
 8029SOL     OW35015   0.267   9.236   1.760  0.1359 -0.1665 -0.4656
 8029SOL    HW135016   0.361   9.204   1.771 -0.1394 -0.6939  0.3825
 8029SOL    HW235017   0.266   9.336   1.762  0.9213 -0.0800 -2.5098
 8030SOL     OW35018   1.852   0.528   2.663  0.4773  0.1295 -0.0133
 8030SOL    HW135019   1.752   0.525   2.672  0.3774  0.3428 -1.0162
 8030SOL    HW235020   1.876   0.546   2.568  1.4551  2.1038  0.5854
 8031SOL     OW35021   8.363   0.789   2.126 -0.8399 -0.7869 -0.4310
 8031SOL    HW135022   8.433   0.832   2.184  1.6557 -2.5529 -2.0283
 8031SOL    HW235023   8.282   0.846   2.124  0.8321  1.7359  0.8696
 8032SOL     OW35024   1.610   6.923   2.594 -0.0061  0.0481  0.0464
 8032SOL    HW135025   1.632   6.851   2.659 -1.6243 -1.0809 -0.6294
 8032SOL    HW235026   1.523   6.967   2.620 -0.6942 -0.4460 -1.3536
 8033SOL     OW35027   4.615   4.454   2.773  0.2893 -0.3212  0.3633
 8033SOL    HW135028   4.587   4.550   2.776 -0.5978 -0.5093 -1.4434
 8033SOL    HW235029   4.691   4.439   2.837 -0.1634  1.3738  1.3243
 8034SOL     OW35030   0.926   7.280   0.754 -0.4175  0.6501 -0.1457
 8034SOL    HW135031   1.025   7.288   0.741 -0.2265  0.5557  1.1698
 8034SOL    HW235032   0.879   7.298   0.667  0.6343  2.8036 -0.2972
 8035SOL     OW35033   7.265   9.120   5.095  0.1158 -0.5408 -0.1323
 8035SOL    HW135034   7.167   9.118   5.115 -0.2749 -0.7191 -2.0099
 8035SOL    HW235035   7.291   9.212   5.066  0.7782 -0.1668  1.5729
 8036SOL     OW35036   3.666   9.336   2.946 -0.3796  0.0039  0.0741
 8036SOL    HW135037   3.726   9.415   2.958  0.6488 -0.0958 -3.6282
 8036SOL    HW235038   3.699   9.259   3.000 -0.4589  1.5813  2.4529
 8037SOL     OW35039   8.985   8.066   3.134  0.0676  0.3678 -0.1127
 8037SOL    HW135040   8.936   8.152   3.119 -1.1044 -0.2700  0.0056
 8037SOL    HW235041   8.998   8.019   3.047  1.2018  0.9123 -0.2527
 8038SOL     OW35042   3.907   3.675   0.139  0.1226 -0.0145 -0.1388
 8038SOL    HW135043   3.850   3.621   0.202  0.1823 -2.2615 -1.9649
 8038SOL    HW235044   4.002   3.646   0.147  0.0209 -0.8412 -1.7795
 8039SOL     OW35045   2.021   8.354   0.937  0.4127 -0.3222 -0.5701
 8039SOL    HW135046   2.074   8.269   0.934 -1.2501 -1.4572  0.9797
 8039SOL    HW235047   1.945   8.348   0.873 -1.2511 -1.1276  1.4070
 8040SOL     OW35048   6.415   0.477   0.958 -0.1416  0.3321 -0.4017
 8040SOL    HW135049   6.472   0.395   0.961 -0.9603 -0.2157  0.9273
 8040SOL    HW235050   6.370   0.484   0.869 -0.1029 -0.6828 -0.4985
 8041SOL     OW35051   5.203   0.956   2.821  0.1380  0.4346  0.2678
 8041SOL    HW135052   5.213   1.000   2.732  2.4367  1.6235  1.0798
 8041SOL    HW235053   5.211   0.856   2.810  0.8258  0.5932 -0.8090
 8042SOL     OW35054   8.793   4.400   0.283  0.6406 -0.1024  0.4095
 8042SOL    HW135055   8.772   4.302   0.290  0.6451 -0.2936 -1.7898
 8042SOL    HW235056   8.892   4.413   0.283  0.7050 -0.3769 -2.0680
 8043SOL     OW35057   0.023   0.239   1.433  0.0187 -0.7495 -0.3406
 8043SOL    HW135058   0.085   0.302   1.387 -1.6717  0.6973 -0.6768
 8043SOL    HW235059  -0.033   0.192   1.365 -0.5840 -0.6260  0.0681
 8044SOL     OW35060   8.466   1.506   4.377  0.5563 -0.6936 -0.5596
 8044SOL    HW135061   8.495   1.558   4.458  1.5629 -0.4278 -1.0711
 8044SOL    HW235062   8.385   1.549   4.337  1.1228  0.2481 -0.7270
 8045SOL     OW35063   1.086   3.572   2.265  0.0144  0.3112 -0.8321
 8045SOL    HW135064   1.110   3.480   2.297  2.0709  1.0787 -0.0891
 8045SOL    HW235065   1.147   3.599   2.191 -0.9265  0.8818 -1.4100
 8046SOL     OW35066   5.778   0.886   1.500  0.1287 -0.5658 -0.7440
 8046SOL    HW135067   5.875   0.876   1.479  0.5303 -0.1782  0.8785
 8046SOL    HW235068   5.767   0.937   1.585 -1.4021 -2.7991  0.4643
 8047SOL     OW35069   2.785   2.930   2.791 -0.1222  0.1427 -1.0899
 8047SOL    HW135070   2.774   2.901   2.696 -0.4356 -1.3509 -0.6004
 8047SOL    HW235071   2.718   3.001   2.812 -2.3506 -1.9054 -1.0160
 8048SOL     OW35072   5.836   7.786   2.938 -0.7860 -0.8737  0.1463
 8048SOL    HW135073   5.928   7.820   2.958 -0.5240 -0.8604 -1.0010
 8048SOL    HW235074   5.810   7.719   3.007 -0.7544  0.6330  1.6460
 8049SOL     OW35075   3.978   7.976   3.077  0.5454 -0.3656 -0.1586
 8049SOL    HW135076   3.989   8.052   3.012  0.3141  0.2044  0.4634
 8049SOL    HW235077   3.965   7.891   3.026 -1.7521  0.3792 -0.9115
 8050SOL     OW35078   1.852   4.339   1.300 -0.3157  0.4387  0.6060
 8050SOL    HW135079   1.927   4.273   1.288 -1.3171 -1.1876  3.0880
 8050SOL    HW235080   1.863   4.388   1.386 -3.1899 -1.2781  2.0047
 8051SOL     OW35081   9.426   6.200   2.847 -0.1438 -0.4583 -0.3123
 8051SOL    HW135082   9.476   6.281   2.878 -0.5783  0.2083 -1.3288
 8051SOL    HW235083   9.491   6.132   2.812  0.0100  1.0725 -3.2012
 8052SOL     OW35084   3.009   7.249   0.805 -0.7500 -0.3819  0.1320
 8052SOL    HW135085   3.035   7.339   0.841 -0.7301 -0.6537  0.8003
 8052SOL    HW235086   3.088   7.188   0.807 -0.8789 -0.5510  0.1026
 8053SOL     OW35087   9.945   6.217   0.475  0.0058 -0.2044 -0.3364
 8053SOL    HW135088   9.974   6.164   0.395  1.7350 -0.5892  0.5066
 8053SOL    HW235089   9.910   6.306   0.446 -0.4417 -0.7859 -1.5932
 8054SOL     OW35090   0.096   2.152   4.052 -0.2104 -0.1601  0.6117
 8054SOL    HW135091   0.028   2.171   3.981 -0.0259 -3.7330 -0.6537
 8054SOL    HW235092   0.052   2.152   4.141 -1.5762 -0.7858 -0.0404
 8055SOL     OW35093   1.797   7.125   4.658 -0.8510 -0.3669  0.3279
 8055SOL    HW135094   1.746   7.064   4.597 -3.1030  1.1165  0.6521
 8055SOL    HW235095   1.892   7.094   4.666 -1.8039 -3.4721  0.0506
 8056SOL     OW35096   8.128   3.349   4.762  0.3661 -0.4228  0.3854
 8056SOL    HW135097   8.192   3.425   4.751  0.6870 -0.8757 -1.0627
 8056SOL    HW235098   8.042   3.382   4.799  0.6470  0.5767  0.1494
 8057SOL     OW35099   7.549   0.412   6.080 -0.3293  0.3948  0.2303
 8057SOL    HW135100   7.527   0.484   6.146 -0.5072  0.8622 -0.3443
 8057SOL    HW235101   7.585   0.332   6.129 -0.8148  0.6025  0.9351
 8058SOL     OW35102   3.176   2.368   2.813  0.7795  0.3209  0.3957
 8058SOL    HW135103   3.076   2.365   2.807  0.8388 -2.1849  0.4042
 8058SOL    HW235104   3.212   2.421   2.736 -0.5294  0.8721  0.1484
 8059SOL     OW35105   4.606   1.885   3.973 -0.0464  0.2480  0.0152
 8059SOL    HW135106   4.582   1.978   4.000 -1.0884  0.0183 -0.0682
 8059SOL    HW235107   4.614   1.828   4.054 -0.9555  0.0629 -0.0216
 8060SOL     OW35108   2.454   9.937   2.850 -0.0546  0.6299 -0.3915
 8060SOL    HW135109   2.503  10.017   2.886  0.4657 -0.1194  0.5797
 8060SOL    HW235110   2.462   9.937   2.750 -0.7188  2.2068 -0.4652
 8061SOL     OW35111   3.803   0.052   3.067 -0.2417 -0.1767  0.5336
 8061SOL    HW135112   3.876   0.041   3.134  0.8430  2.2803 -0.1845
 8061SOL    HW235113   3.737   0.120   3.100 -0.2855  0.2397 -0.3899
 8062SOL     OW35114   9.334   1.196   1.413  0.9981 -0.0620  0.0211
 8062SOL    HW135115   9.398   1.131   1.369 -1.7982 -2.6558 -0.3577
 8062SOL    HW235116   9.311   1.163   1.504 -1.6576 -0.5040 -0.7623
 8063SOL     OW35117   6.878   7.919   2.077 -0.5415  0.4833  0.2909
 8063SOL    HW135118   6.969   7.917   2.036 -0.5423 -0.3393  0.3351
 8063SOL    HW235119   6.886   7.918   2.176 -0.6264 -1.0997  0.2981
 8064SOL     OW35120   9.342   8.264   2.576  0.2019 -0.1839 -0.8841
 8064SOL    HW135121   9.273   8.236   2.509 -1.6137 -0.1980  0.9524
 8064SOL    HW235122   9.344   8.199   2.651 -1.2214  2.3781  1.4627
 8065SOL     OW35123   5.352   4.537   0.803 -0.4744  0.0869  0.1736
 8065SOL    HW135124   5.265   4.571   0.766 -0.4298 -1.0670 -1.0565
 8065SOL    HW235125   5.393   4.606   0.862 -0.9841  1.6568 -1.2629
 8066SOL     OW35126   8.462   3.489   2.112 -0.1655 -0.1709  0.0818
 8066SOL    HW135127   8.431   3.580   2.139 -1.2291 -0.2381 -0.8690
 8066SOL    HW235128   8.454   3.479   2.012  0.2017 -1.2059  0.1475
 8067SOL     OW35129   5.322   8.080   1.242 -0.0085 -0.3155  0.1547
 8067SOL    HW135130   5.260   8.003   1.226  0.4808 -0.5396 -0.6879
 8067SOL    HW235131   5.385   8.057   1.316  0.0901 -0.7041 -0.0460
 8068SOL     OW35132   9.390   3.648   2.810 -0.3415 -0.5330  0.1814
 8068SOL    HW135133   9.415   3.565   2.860 -0.7129 -0.9997 -0.4062
 8068SOL    HW235134   9.448   3.724   2.841  1.8443 -1.5986 -1.1959
 8069SOL     OW35135   4.510   7.356   2.192  0.2115  0.1585 -0.2735
 8069SOL    HW135136   4.465   7.428   2.244  0.4019  1.1317 -1.4261
 8069SOL    HW235137   4.455   7.272   2.198  0.0069  0.3797  1.0958
 8070SOL     OW35138   3.835   0.492   2.398  0.5131  0.0655  0.0969
 8070SOL    HW135139   3.896   0.476   2.476  1.3423  0.8724 -0.3785
 8070SOL    HW235140   3.763   0.555   2.426  0.2601 -0.3924  0.4826
 8071SOL     OW35141   3.454   7.304   5.627 -0.0303 -0.4458  0.0354
 8071SOL    HW135142   3.504   7.308   5.713  1.2411 -0.8799 -0.6644
 8071SOL    HW235143   3.425   7.397   5.601  1.2805 -0.0491 -0.0379
 8072SOL     OW35144   7.705   9.308   4.610  0.4296  0.1302 -0.6075
 8072SOL    HW135145   7.611   9.272   4.610  0.5087 -0.0802 -0.0497
 8072SOL    HW235146   7.705   9.401   4.647  0.6839 -0.5446  1.1717
 8073SOL     OW35147   1.768   3.795   1.160  0.1112 -0.0584 -0.4420
 8073SOL    HW135148   1.809   3.840   1.081  0.0476  2.6290  0.9854
 8073SOL    HW235149   1.797   3.841   1.244 -1.4397 -1.5579  0.9714
 8074SOL     OW35150   8.306   1.420   2.630 -0.4979 -0.5736 -0.2769
 8074SOL    HW135151   8.212   1.449   2.645 -0.1395  0.7531 -0.6023
 8074SOL    HW235152   8.326   1.341   2.688 -1.7604 -0.7823 -0.1103
 8075SOL     OW35153   4.757   7.769   4.547 -0.2964  0.0137  0.8302
 8075SOL    HW135154   4.743   7.705   4.472 -1.2612 -0.0221  1.0327
 8075SOL    HW235155   4.682   7.761   4.613  0.8755 -0.4278  2.1399
 8076SOL     OW35156   8.241   6.754   2.953 -0.3108  0.0890  0.7561
 8076SOL    HW135157   8.160   6.811   2.938 -1.0872 -1.2971 -0.4924
 8076SOL    HW235158   8.264   6.706   2.868  0.8047 -0.8391  1.5717
 8077SOL     OW35159   9.198   9.739   1.905 -0.3276 -0.0749  0.5756
 8077SOL    HW135160   9.243   9.741   1.816 -3.4639  1.4817 -1.0827
 8077SOL    HW235161   9.141   9.658   1.912  1.0385 -0.9470  1.7947
 8078SOL     OW35162   9.692   7.167   4.314  1.1675  0.1964  0.2764
 8078SOL    HW135163   9.743   7.087   4.282  0.1553 -0.4151  0.1665
 8078SOL    HW235164   9.711   7.182   4.411 -0.8397 -1.9268  1.0428
 8079SOL     OW35165   2.952   5.463   3.985  0.0233  0.0557  0.3753
 8079SOL    HW135166   2.861   5.500   3.963 -0.3893 -0.6471  0.9040
 8079SOL    HW235167   3.021   5.514   3.934 -0.8417 -0.8656 -1.7857
 8080SOL     OW35168   4.700   1.467   1.046 -0.8095 -0.1995  0.3826
 8080SOL    HW135169   4.604   1.472   1.073 -1.3293  1.1789 -1.6212
 8080SOL    HW235170   4.750   1.543   1.087 -1.5416  1.7291 -2.1348
 8081SOL     OW35171   1.290   6.683   0.607  0.1423 -0.1443  0.9894
 8081SOL    HW135172   1.378   6.722   0.578 -0.2330  1.7056  2.2658
 8081SOL    HW235173   1.224   6.692   0.533  0.0211  1.8439  1.3070
 8082SOL     OW35174   0.136   7.049   3.980 -0.0474  0.3811  0.1744
 8082SOL    HW135175   0.075   7.111   4.029  0.2758  0.8590 -0.0254
 8082SOL    HW235176   0.231   7.070   4.003  0.0870  0.3278 -0.3240
 8083SOL     OW35177   0.728   2.337   3.359  0.2606  0.0130  0.5434
 8083SOL    HW135178   0.697   2.249   3.323 -0.1492 -0.2088  1.4404
 8083SOL    HW235179   0.828   2.337   3.365  0.2439 -0.4915  0.8023
 8084SOL     OW35180   4.137   5.394   1.531  0.0307  0.0125 -0.4622
 8084SOL    HW135181   4.225   5.349   1.549  0.5609  1.0170 -0.4859
 8084SOL    HW235182   4.115   5.387   1.434 -0.2055 -0.7599 -0.3527
 8085SOL     OW35183   3.290   0.699   3.820 -0.4109 -0.6945 -0.4117
 8085SOL    HW135184   3.348   0.773   3.856 -0.3606 -0.8890 -0.0968
 8085SOL    HW235185   3.320   0.612   3.857  0.3476 -1.0310 -1.7759
 8086SOL     OW35186   9.339   3.901   1.974 -0.7550 -0.0350  0.2807
 8086SOL    HW135187   9.310   3.900   2.070 -0.9818 -1.3609  0.2066
 8086SOL    HW235188   9.373   3.810   1.948 -2.4205 -0.2181 -1.4087
 8087SOL     OW35189   5.615   9.200   1.463  0.4386  0.0257 -0.2975
 8087SOL    HW135190   5.658   9.275   1.514 -1.5061  0.1555  1.1987
 8087SOL    HW235191   5.651   9.113   1.497 -0.8872  0.1081  1.3737
 8088SOL     OW35192   8.163   0.473   2.300  0.8964  0.3728 -0.0729
 8088SOL    HW135193   8.069   0.446   2.277  0.7208  0.3745  0.6492
 8088SOL    HW235194   8.161   0.548   2.365  1.4011  0.4158 -0.1069
 8089SOL     OW35195   7.500   7.858   2.892  0.1804  0.2745 -0.5788
 8089SOL    HW135196   7.555   7.879   2.972  0.0876 -1.9691  0.1123
 8089SOL    HW235197   7.560   7.835   2.815  0.2469 -0.2619 -0.3702
 8090SOL     OW35198   6.768   1.096   1.299  0.1358 -0.0347  0.3680
 8090SOL    HW135199   6.849   1.050   1.263  0.3144  0.8884 -0.4296
 8090SOL    HW235200   6.761   1.080   1.398  0.7914 -0.8515  0.2853
 8091SOL     OW35201   2.892   4.853   1.749  0.2698 -0.2859  0.6676
 8091SOL    HW135202   2.819   4.836   1.683  0.3016 -0.5259  0.6956
 8091SOL    HW235203   2.852   4.866   1.840  0.0684  1.9483  0.2771
 8092SOL     OW35204   6.350   0.095   2.373  0.4334 -0.2037  0.7907
 8092SOL    HW135205   6.425   0.069   2.312 -0.2608 -0.4092  0.0076
 8092SOL    HW235206   6.357   0.193   2.394  0.2837  0.0265 -0.1934
 8093SOL     OW35207   1.223   1.694   3.038 -0.5057  0.0354 -0.6171
 8093SOL    HW135208   1.128   1.668   3.057 -0.0241 -0.0795  1.7819
 8093SOL    HW235209   1.282   1.660   3.111  1.0631  2.0751 -0.8893
 8094SOL     OW35210   6.558   1.139   0.719 -0.3238 -0.0865 -0.4523
 8094SOL    HW135211   6.532   1.113   0.811 -0.5376  1.0273 -0.1896
 8094SOL    HW235212   6.478   1.172   0.669 -0.2050 -0.6611 -1.0299
 8095SOL     OW35213   2.730   5.791   0.428  0.4288 -0.1003  0.0413
 8095SOL    HW135214   2.796   5.858   0.394  2.1795 -3.2126 -2.9919
 8095SOL    HW235215   2.637   5.822   0.405  1.1489  1.6809 -0.5561
 8096SOL     OW35216   0.011   4.980   6.622 -0.2873 -0.5918  0.4586
 8096SOL    HW135217  -0.059   4.938   6.679 -0.5793  0.2343  0.7200
 8096SOL    HW235218   0.024   5.076   6.649 -0.1323 -0.3044 -0.5732
 8097SOL     OW35219   2.335   1.851   1.649 -1.0007 -0.0757  0.2087
 8097SOL    HW135220   2.240   1.838   1.676 -0.4956 -0.1053  2.0220
 8097SOL    HW235221   2.379   1.762   1.638 -1.0019 -0.0538  0.0257
 8098SOL     OW35222   0.648   9.901   4.411  0.1824  0.0959  0.3339
 8098SOL    HW135223   0.718   9.840   4.448  2.0693  2.1519  0.2901
 8098SOL    HW235224   0.628   9.876   4.316  0.1462 -1.0969  0.6523
 8099SOL     OW35225   5.861   1.369   2.845  0.2041 -0.0369  0.4188
 8099SOL    HW135226   5.871   1.427   2.926 -0.7971  0.0903  0.4568
 8099SOL    HW235227   5.834   1.426   2.767  2.4837  0.0676 -0.3541
 8100SOL     OW35228   0.245   0.516   4.410  0.2351  0.3007  0.6869
 8100SOL    HW135229   0.263   0.419   4.423 -0.1554  0.3388  1.5971
 8100SOL    HW235230   0.303   0.569   4.472  0.8141  0.6779 -0.1662
 8101SOL     OW35231   6.197   1.456   3.015 -0.4885 -0.2256  0.2986
 8101SOL    HW135232   6.179   1.544   3.059 -3.2566  0.4948 -2.0842
 8101SOL    HW235233   6.196   1.468   2.916 -1.6111 -3.0749 -0.0903
 8102SOL     OW35234   1.256   3.579   6.518 -0.1417 -0.1258  0.3668
 8102SOL    HW135235   1.305   3.663   6.544 -1.1702  0.0403  1.8553
 8102SOL    HW235236   1.258   3.515   6.595  1.0804 -1.7058 -0.9396
 8103SOL     OW35237   9.057   3.177   3.833  0.2093  0.2810 -0.2989
 8103SOL    HW135238   9.143   3.221   3.857 -0.7279  2.9108 -1.5208
 8103SOL    HW235239   9.068   3.124   3.749  1.0191 -0.7357  0.4441
 8104SOL     OW35240   9.989   5.168   5.805  0.0213 -0.8945 -0.1582
 8104SOL    HW135241  10.067   5.125   5.759  1.0493 -1.6501  2.1875
 8104SOL    HW235242   9.915   5.184   5.739  2.6175  1.0618 -2.7269
 8105SOL     OW35243   1.590   7.196   2.848 -0.2649 -0.5560 -0.1794
 8105SOL    HW135244   1.526   7.185   2.924  1.1502 -1.4815  0.9198
 8105SOL    HW235245   1.589   7.291   2.817 -1.1769 -0.2702  0.6991
 8106SOL     OW35246   6.876   7.159   4.277 -0.0523  0.0035 -0.3241
 8106SOL    HW135247   6.921   7.217   4.345 -2.6043  1.3876  0.2679
 8106SOL    HW235248   6.820   7.216   4.217 -1.4017 -1.6811 -0.7131
 8107SOL     OW35249   9.429   3.081   0.423  0.2763  0.2500 -0.3001
 8107SOL    HW135250   9.401   3.157   0.481  1.1412  0.0344  0.4045
 8107SOL    HW235251   9.456   3.003   0.480  1.6371  0.2158 -0.9698
 8108SOL     OW35252   6.349   8.126   4.291  0.1188 -0.0746  0.7934
 8108SOL    HW135253   6.290   8.052   4.257  0.3460  0.0759  0.0708
 8108SOL    HW235254   6.371   8.109   4.387  0.3162 -1.0394  0.5818
 8109SOL     OW35255   8.156   8.801   1.897  0.3459 -0.3081  0.1051
 8109SOL    HW135256   8.240   8.748   1.901  0.0724 -0.7328  0.2544
 8109SOL    HW235257   8.152   8.850   1.809  1.2071  0.4905  0.5059
 8110SOL     OW35258   7.886   1.990   4.462  0.2239 -0.1238 -0.0966
 8110SOL    HW135259   7.888   1.930   4.382  0.6735  0.6738 -0.6904
 8110SOL    HW235260   7.977   1.994   4.503 -0.3053 -1.5787  1.2489
 8111SOL     OW35261   9.858   7.028   6.190  0.0187 -0.0162 -0.6551
 8111SOL    HW135262   9.805   6.948   6.162 -0.7182 -0.2146  1.2329
 8111SOL    HW235263   9.920   7.002   6.265 -1.4071  1.5312  1.0923
 8112SOL     OW35264   7.477   0.620   1.855  0.2372  0.1704 -0.4422
 8112SOL    HW135265   7.379   0.609   1.837  0.1671  1.4544 -0.8736
 8112SOL    HW235266   7.505   0.557   1.927 -0.9858  0.0578 -0.0631
 8113SOL     OW35267   8.692   9.846   0.758  0.0343 -0.5779 -0.1493
 8113SOL    HW135268   8.684   9.837   0.659 -1.5710 -0.8067 -0.0229
 8113SOL    HW235269   8.704   9.943   0.782 -2.2696 -0.1837 -0.4431
 8114SOL     OW35270   2.660   8.711   4.600 -0.1901 -0.3058  0.2139
 8114SOL    HW135271   2.620   8.727   4.691 -0.8843 -0.6729 -0.0265
 8114SOL    HW235272   2.645   8.616   4.573 -1.5966  0.2573 -1.0687
 8115SOL     OW35273   3.285   3.343   0.775 -0.0662  0.1758 -0.2204
 8115SOL    HW135274   3.244   3.268   0.722  0.2730  0.2118 -0.5395
 8115SOL    HW235275   3.332   3.306   0.854  0.3552  0.0218 -0.5400
 8116SOL     OW35276   7.969   9.050   2.527  0.4839 -0.8611 -0.1346
 8116SOL    HW135277   7.997   9.145   2.507  0.6111 -1.1695 -1.5086
 8116SOL    HW235278   7.908   9.018   2.454  1.2862 -2.1826 -0.2316
 8117SOL     OW35279   2.043   5.038   5.290 -0.7148 -0.7877  0.8088
 8117SOL    HW135280   2.066   4.973   5.217 -1.3681 -1.6479  1.3457
 8117SOL    HW235281   2.075   5.001   5.377 -2.3860 -1.0961  1.3085
 8118SOL     OW35282   8.167   5.511   1.195 -0.2509 -0.2936  0.3318
 8118SOL    HW135283   8.082   5.494   1.145  0.7147 -2.1736 -0.7446
 8118SOL    HW235284   8.189   5.608   1.191 -1.6666  0.0072 -0.5035
 8119SOL     OW35285   0.176   2.512   0.904  0.3581 -0.3058 -0.1721
 8119SOL    HW135286   0.196   2.606   0.878 -2.3763  0.8539  1.6275
 8119SOL    HW235287   0.187   2.502   1.003  1.2850 -2.0925 -0.4305
 8120SOL     OW35288   0.285   9.580   2.216 -0.7004 -0.1489 -0.0039
 8120SOL    HW135289   0.329   9.556   2.302 -1.1351  0.3793  0.3753
 8120SOL    HW235290   0.354   9.604   2.148 -0.3821  0.1051  0.4065
 8121SOL     OW35291   4.044   8.438   2.887  0.3278 -0.2106  0.1092
 8121SOL    HW135292   4.031   8.340   2.876 -0.4850 -0.1088  0.1809
 8121SOL    HW235293   4.010   8.486   2.807 -0.5852  0.1192  0.6964
 8122SOL     OW35294   1.108   6.660   0.896  0.0171 -0.0427 -0.0447
 8122SOL    HW135295   1.133   6.647   0.800  2.8535 -0.9724  0.7761
 8122SOL    HW235296   1.084   6.755   0.912 -0.6626  0.0841 -1.6956
 8123SOL     OW35297   1.497   3.540   0.022 -0.0698 -0.1165  0.3835
 8123SOL    HW135298   1.590   3.507   0.008 -0.3933 -0.0383 -2.0639
 8123SOL    HW235299   1.488   3.632  -0.015 -0.6831  0.5357  2.1236
 8124SOL     OW35300   3.257   2.559   3.671  0.0338 -0.0831 -0.1995
 8124SOL    HW135301   3.297   2.481   3.624  2.4307  1.5722 -1.0235
 8124SOL    HW235302   3.323   2.634   3.673 -1.6351  1.3954  1.9561
 8125SOL     OW35303   2.546   5.909   2.573  0.0657 -0.2102 -0.5477
 8125SOL    HW135304   2.530   5.979   2.505  1.5517  0.7926  0.1088
 8125SOL    HW235305   2.641   5.878   2.568  0.1779 -0.1833  0.9829
 8126SOL     OW35306   9.192   0.305   3.371 -0.8047 -0.3438  0.6388
 8126SOL    HW135307   9.196   0.301   3.272 -2.8614 -0.4252  0.5415
 8126SOL    HW235308   9.248   0.382   3.404 -0.5608  0.0115 -0.5979
 8127SOL     OW35309   0.639   3.647   2.836 -0.5429  0.2508  0.3530
 8127SOL    HW135310   0.603   3.695   2.916 -0.4766  0.7007  0.1117
 8127SOL    HW235311   0.564   3.604   2.786 -0.6238  0.2923  0.4402
 8128SOL     OW35312   9.449   9.370   0.853 -0.2358 -0.0875  0.0737
 8128SOL    HW135313   9.454   9.380   0.952 -0.7217  3.4311 -0.1926
 8128SOL    HW235314   9.360   9.332   0.828 -1.0661  1.2575  0.8922
 8129SOL     OW35315   9.642   8.936   2.508  0.5153 -0.0133 -0.2339
 8129SOL    HW135316   9.580   8.890   2.572  0.6156 -0.6309 -0.5801
 8129SOL    HW235317   9.737   8.920   2.536  0.5902 -0.9835 -0.9990
 8130SOL     OW35318   0.641   3.071   5.780 -0.5975 -0.2101  0.3345
 8130SOL    HW135319   0.573   3.078   5.853 -0.9737 -3.2643  0.3506
 8130SOL    HW235320   0.617   2.995   5.720  2.8731 -1.4702  0.4308
 8131SOL     OW35321   5.032   2.391   1.018  0.4419 -0.0735 -0.1283
 8131SOL    HW135322   4.940   2.421   0.995  0.5882  0.2270 -0.3337
 8131SOL    HW235323   5.040   2.380   1.117  0.2732  0.1896 -0.0852
 8132SOL     OW35324   9.971   2.190   3.421 -0.4927 -0.0182  0.8021
 8132SOL    HW135325  10.069   2.206   3.409 -0.8673  1.2566 -0.7379
 8132SOL    HW235326   9.957   2.102   3.467  1.3337 -1.3639 -1.1030
 8133SOL     OW35327   5.775   9.229   4.485 -0.2951  0.1775 -0.4991
 8133SOL    HW135328   5.805   9.320   4.515 -0.1940 -0.4932  1.4931
 8133SOL    HW235329   5.700   9.197   4.543 -0.6982 -0.7854 -1.5308
 8134SOL     OW35330   9.870   9.802   1.996 -0.0317 -0.4691 -0.1044
 8134SOL    HW135331   9.904   9.718   2.037 -0.7353 -0.4760  0.4863
 8134SOL    HW235332   9.799   9.841   2.055 -0.9291 -0.3828 -1.2271
 8135SOL     OW35333   4.692   1.825   0.930  0.2513 -0.1206 -0.5722
 8135SOL    HW135334   4.613   1.882   0.911  1.1772  0.9384 -1.3092
 8135SOL    HW235335   4.737   1.799   0.844  1.6520  0.6650 -0.0953
 8136SOL     OW35336   1.247   0.259   2.073 -0.1398 -0.1478  1.0238
 8136SOL    HW135337   1.292   0.348   2.077 -1.5772  0.6455  0.0455
 8136SOL    HW235338   1.241   0.220   2.165 -0.7033  1.3926  1.6606
 8137SOL     OW35339   0.619   4.719   0.984 -0.7887 -0.6501  0.2700
 8137SOL    HW135340   0.600   4.811   1.018 -1.6295 -1.5427  2.3580
 8137SOL    HW235341   0.552   4.695   0.913 -0.6238  0.3110 -0.2105
 8138SOL     OW35342   8.884   2.989   3.391  1.0529 -0.1888 -0.5590
 8138SOL    HW135343   8.819   2.923   3.354 -1.0683  1.6395 -0.1949
 8138SOL    HW235344   8.923   3.043   3.316  0.9594 -0.2203 -0.6298
 8139SOL     OW35345   5.252   4.658   1.354 -0.2575 -0.2023 -0.2415
 8139SOL    HW135346   5.184   4.681   1.423 -0.5269  0.4590 -0.7104
 8139SOL    HW235347   5.216   4.681   1.263  1.2506  1.8840 -0.3676
 8140SOL     OW35348   5.997   9.189   1.343  0.1374  0.3134 -0.1039
 8140SOL    HW135349   6.045   9.186   1.430 -0.2762 -0.3305  0.1019
 8140SOL    HW235350   5.945   9.274   1.336  1.8581  1.3708 -0.6314
 8141SOL     OW35351   1.541   5.554   1.514 -0.3795 -0.3265 -0.6871
 8141SOL    HW135352   1.454   5.507   1.530  0.1890 -1.3567 -0.6081
 8141SOL    HW235353   1.568   5.603   1.596 -0.7350 -0.2623 -0.6088
 8142SOL     OW35354   5.112   1.375   4.407  0.3167 -0.0694 -0.2559
 8142SOL    HW135355   5.031   1.433   4.401  1.3754  1.4843  0.2250
 8142SOL    HW235356   5.185   1.412   4.350  1.8062  0.4788  1.9056
 8143SOL     OW35357   1.107   7.696   1.365  0.3727 -0.7301 -0.3152
 8143SOL    HW135358   1.028   7.750   1.396  1.1248  1.9875 -2.8725
 8143SOL    HW235359   1.075   7.611   1.324 -1.1027 -0.4986  0.2898
 8144SOL     OW35360   7.562   9.730   2.699 -0.3251 -0.2326  0.7708
 8144SOL    HW135361   7.603   9.754   2.787  0.1015  0.3255  0.4184
 8144SOL    HW235362   7.499   9.801   2.670 -0.3916 -0.3688  0.5745
 8145SOL     OW35363   6.178   0.936   4.847  0.1656 -0.1142  0.7097
 8145SOL    HW135364   6.167   1.019   4.901 -0.4839 -0.4541  1.1098
 8145SOL    HW235365   6.089   0.906   4.812  0.5102 -0.1956 -0.0964
 8146SOL     OW35366   2.069   8.941   0.768  0.5448  0.5764 -0.2626
 8146SOL    HW135367   2.006   8.934   0.690  0.7586 -2.2720 -0.2294
 8146SOL    HW235368   2.147   8.880   0.753  3.0732  3.6078 -0.0174
 8147SOL     OW35369   7.735   9.597   4.445  0.1587 -0.1004 -0.5876
 8147SOL    HW135370   7.820   9.617   4.397  1.2397 -2.6438  0.2238
 8147SOL    HW235371   7.750   9.602   4.544 -1.1841  1.5886 -0.4485
 8148SOL     OW35372   2.188   8.271   5.940 -0.7267  0.0211 -0.0009
 8148SOL    HW135373   2.101   8.240   5.980 -0.3373  0.8971  1.5823
 8148SOL    HW235374   2.247   8.307   6.013  0.3267  0.9289 -1.2778
 8149SOL     OW35375   7.431   1.788   2.086 -0.0588 -0.2099  0.1306
 8149SOL    HW135376   7.527   1.812   2.071  0.8765 -1.9691  2.8504
 8149SOL    HW235377   7.374   1.837   2.021  2.6149  1.4837 -1.0393
 8150SOL     OW35378   8.784   8.582   3.006  0.2725  0.9799 -0.0730
 8150SOL    HW135379   8.796   8.675   3.039  2.7220  0.8507 -0.5303
 8150SOL    HW235380   8.870   8.548   2.969 -0.7701 -1.2214 -0.5715
 8151SOL     OW35381   4.847   3.062   4.953  0.0402  0.4691 -0.3958
 8151SOL    HW135382   4.882   3.072   5.047 -0.5132 -1.0132 -0.0012
 8151SOL    HW235383   4.750   3.040   4.957  0.2297 -0.5504 -1.2777
 8152SOL     OW35384   8.221   3.308   3.273  0.2827  0.3679  0.0245
 8152SOL    HW135385   8.293   3.284   3.338 -1.3630  1.1399  2.1983
 8152SOL    HW235386   8.225   3.406   3.253  1.7353 -0.1332 -2.2651
 8153SOL     OW35387   1.464   8.788   5.168  0.2069  0.4971 -0.5002
 8153SOL    HW135388   1.433   8.857   5.103 -1.4940  0.7925  0.5977
 8153SOL    HW235389   1.392   8.771   5.235  0.3688 -2.7596 -1.0690
 8154SOL     OW35390   8.345   0.828   3.224 -0.0095  0.1213 -0.4532
 8154SOL    HW135391   8.399   0.781   3.154  0.9497  0.0841  0.2973
 8154SOL    HW235392   8.273   0.881   3.180 -0.3462 -1.0841 -1.3727
 8155SOL     OW35393   7.541   8.288   3.914  0.1392  0.2923 -0.0679
 8155SOL    HW135394   7.510   8.234   3.835  1.5057  0.5310 -0.7863
 8155SOL    HW235395   7.639   8.305   3.906 -0.0718  1.9699  0.7065
 8156SOL     OW35396   9.260   1.728   4.206  0.4259  0.0361  0.7876
 8156SOL    HW135397   9.161   1.723   4.215  0.4142  0.4874  0.9573
 8156SOL    HW235398   9.284   1.808   4.152  0.6757 -0.4016  0.2499
 8157SOL     OW35399   8.785   7.623   4.745  0.2409 -0.1401  0.3782
 8157SOL    HW135400   8.756   7.647   4.838 -0.3002  1.1482 -0.1121
 8157SOL    HW235401   8.716   7.564   4.703  0.7619 -1.2049  0.9855
 8158SOL     OW35402   8.455   3.314   3.551 -0.0948 -0.4373  0.6283
 8158SOL    HW135403   8.551   3.292   3.539 -0.5204 -1.2276 -1.5932
 8158SOL    HW235404   8.421   3.273   3.635  0.7463 -2.8002 -0.1474
 8159SOL     OW35405   1.990   0.265   2.127  0.1387 -0.4670 -0.4846
 8159SOL    HW135406   1.940   0.250   2.212 -0.2184  0.8644 -0.4438
 8159SOL    HW235407   2.059   0.336   2.141  1.6219 -1.8491 -0.7153
 8160SOL     OW35408   9.923   4.549   1.600  0.1836  0.2595  0.3613
 8160SOL    HW135409   9.994   4.543   1.670 -1.3636 -1.3530  1.8317
 8160SOL    HW235410   9.860   4.623   1.622 -0.4606 -0.4244  0.8381
 8161SOL     OW35411   4.000   7.022   1.970  0.0124 -0.4193 -0.0467
 8161SOL    HW135412   4.053   7.100   2.004 -0.9181  0.6256 -0.9408
 8161SOL    HW235413   4.040   6.989   1.885 -1.8125  1.5731 -1.7299
 8162SOL     OW35414   8.907   1.656   0.372  0.3622  0.0107 -0.7301
 8162SOL    HW135415   8.895   1.608   0.459 -0.8302  1.5291 -0.0351
 8162SOL    HW235416   8.983   1.720   0.379  2.7603 -2.5762 -2.0455
 8163SOL     OW35417   3.627   0.240   1.633  0.2101  0.8423  0.1873
 8163SOL    HW135418   3.651   0.337   1.630 -2.2080  1.4771  0.1199
 8163SOL    HW235419   3.543   0.225   1.580  0.3687 -1.2322  0.4881
 8164SOL     OW35420   0.506   2.676   1.797 -0.0757 -0.0787 -0.1498
 8164SOL    HW135421   0.475   2.749   1.857 -2.1637  0.0738 -1.3844
 8164SOL    HW235422   0.485   2.588   1.838  0.5511  0.0051  0.3668
 8165SOL     OW35423   2.684   5.132   4.522 -0.3524  0.3312 -0.2999
 8165SOL    HW135424   2.706   5.097   4.613 -0.8372 -3.1020 -1.4491
 8165SOL    HW235425   2.591   5.108   4.498  0.2292 -0.0531 -2.2711
 8166SOL     OW35426   4.611   4.171   6.507  0.2938  0.0600  0.1037
 8166SOL    HW135427   4.707   4.154   6.482  0.2070 -0.7358  0.3101
 8166SOL    HW235428   4.571   4.087   6.543 -0.8620  0.0392 -1.1969
 8167SOL     OW35429   4.823   5.177   3.297  0.5305  0.0555  1.0126
 8167SOL    HW135430   4.761   5.111   3.338  0.4163 -0.9337 -0.6805
 8167SOL    HW235431   4.788   5.205   3.207  1.9876  0.2742  0.4827
 8168SOL     OW35432   9.968   0.229   2.803  1.0910  0.2686  0.1836
 8168SOL    HW135433  10.017   0.314   2.823  3.1721 -0.3731 -1.8811
 8168SOL    HW235434  10.005   0.155   2.860 -0.0350  0.5387  1.2705
 8169SOL     OW35435   1.076   4.263   5.184  0.4927  0.7834 -0.5451
 8169SOL    HW135436   1.050   4.275   5.279 -2.8111 -1.4381 -1.0558
 8169SOL    HW235437   1.119   4.174   5.172 -1.4244 -0.0425 -1.5097
 8170SOL     OW35438   8.522   0.591   2.230  0.7704  0.6207 -0.1796
 8170SOL    HW135439   8.436   0.634   2.203  1.1738  0.3759 -1.9008
 8170SOL    HW235440   8.503   0.507   2.281 -0.0111  0.5933 -0.5103
 8171SOL     OW35441   1.195   8.454   5.288  0.0880  0.2550 -0.3402
 8171SOL    HW135442   1.139   8.406   5.221 -0.5868  2.2492 -1.2482
 8171SOL    HW235443   1.220   8.392   5.362 -0.6910 -1.4859 -1.5173
 8172SOL     OW35444   8.165   5.404   1.450 -1.0121  0.1755 -0.0218
 8172SOL    HW135445   8.170   5.451   1.362 -0.2211 -0.0271 -0.0892
 8172SOL    HW235446   8.193   5.467   1.523  0.3519 -0.2652 -0.1454
 8173SOL     OW35447   3.367   6.398   4.257  0.4553  0.3228  0.5484
 8173SOL    HW135448   3.334   6.337   4.329  1.5892  0.1246  0.9143
 8173SOL    HW235449   3.346   6.358   4.168 -0.9038  0.5397  0.7607
 8174SOL     OW35450   7.133   8.159   2.381 -0.4405  0.2240 -0.3321
 8174SOL    HW135451   7.059   8.184   2.443 -1.8893 -1.9987 -1.1022
 8174SOL    HW235452   7.184   8.082   2.419 -0.3509 -0.1265 -1.1478
 8175SOL     OW35453   4.194   4.514   0.141  0.0302 -0.0851  0.3631
 8175SOL    HW135454   4.159   4.492   0.232  0.2552 -0.6608  0.3171
 8175SOL    HW235455   4.249   4.437   0.108 -0.2779  0.0060 -0.3710
 8176SOL     OW35456   1.380   6.953   4.018 -0.0341  0.6423  0.5639
 8176SOL    HW135457   1.378   6.882   4.088  2.2989 -2.4598 -2.3246
 8176SOL    HW235458   1.287   6.969   3.985 -0.4116 -2.9115 -0.3681
 8177SOL     OW35459   9.327   3.429   4.095  0.9665 -0.4797 -0.5282
 8177SOL    HW135460   9.302   3.417   4.191 -0.0812 -0.8654 -0.8434
 8177SOL    HW235461   9.353   3.524   4.079 -3.5338  0.8240 -0.8701
 8178SOL     OW35462   3.057   5.913   6.420  0.2173 -0.3651 -0.1443
 8178SOL    HW135463   3.135   5.891   6.362  0.0391 -0.9087 -0.1786
 8178SOL    HW235464   3.057   5.854   6.500 -0.6105 -0.9280 -0.5498
 8179SOL     OW35465   5.177   8.131   3.196 -0.0670 -0.9259  0.5028
 8179SOL    HW135466   5.104   8.197   3.178  1.7690  0.6637 -1.5525
 8179SOL    HW235467   5.251   8.176   3.247  1.0848 -1.4241 -0.6770
 8180SOL     OW35468   8.075   8.827   5.289 -0.1757 -0.0895  0.0545
 8180SOL    HW135469   7.992   8.820   5.345  0.8006 -0.1057  1.5259
 8180SOL    HW235470   8.134   8.749   5.308  0.7495  0.5821 -0.0560
 8181SOL     OW35471   0.686   6.853   1.620 -0.0288  0.1440 -0.8451
 8181SOL    HW135472   0.666   6.927   1.685  1.3731  1.9130 -2.3571
 8181SOL    HW235473   0.667   6.765   1.663  0.4838  1.2730  1.8231
 8182SOL     OW35474   9.246   8.625   3.229 -0.4274  0.3211  0.2132
 8182SOL    HW135475   9.319   8.617   3.296  0.6737 -0.1236 -1.0180
 8182SOL    HW235476   9.215   8.534   3.201  1.3318  0.4052 -2.2100
 8183SOL     OW35477   3.038   5.035   0.477 -0.1147  0.3013 -0.3436
 8183SOL    HW135478   3.112   5.059   0.413 -0.6011 -0.3368 -1.1626
 8183SOL    HW235479   3.003   4.945   0.454 -1.2993  0.6973 -0.0992
 8184SOL     OW35480   1.401   1.910   3.041 -0.6305 -0.3770 -0.7811
 8184SOL    HW135481   1.313   1.865   3.023 -0.2447 -1.5858  0.2482
 8184SOL    HW235482   1.390   1.979   3.112 -0.3580 -2.0127  0.8953
 8185SOL     OW35483   8.612   4.538   1.099 -0.0440  0.5010  0.2743
 8185SOL    HW135484   8.537   4.496   1.049  1.4801 -1.0360 -0.7969
 8185SOL    HW235485   8.672   4.586   1.034 -0.0312  1.6098  1.0978
 8186SOL     OW35486   5.684   2.680   3.397 -0.0585  0.0680  0.3160
 8186SOL    HW135487   5.588   2.709   3.398  0.1935  0.8915  1.4340
 8186SOL    HW235488   5.715   2.670   3.302 -1.7084 -1.7856 -0.0648
 8187SOL     OW35489   6.663   0.555   4.853  0.1057 -0.6034 -0.4517
 8187SOL    HW135490   6.753   0.511   4.846  0.5359  0.2812 -0.6331
 8187SOL    HW235491   6.615   0.547   4.765  0.2983 -0.4762 -0.5704
 8188SOL     OW35492   9.673   0.841   3.587  0.7199  0.4097 -0.3743
 8188SOL    HW135493   9.703   0.933   3.613 -0.0871  0.1975  1.3534
 8188SOL    HW235494   9.750   0.778   3.595  0.3878  0.2585  2.0421
 8189SOL     OW35495   4.875   0.963   1.544 -0.4845  0.2136 -0.0231
 8189SOL    HW135496   4.920   0.876   1.566  0.3893  0.7340  0.2631
 8189SOL    HW235497   4.918   1.037   1.596  0.2064  1.1558 -1.8780
 8190SOL     OW35498   9.814   5.522   1.613  0.0050 -0.6499  0.0896
 8190SOL    HW135499   9.764   5.551   1.695  1.0593  2.6544 -0.3831
 8190SOL    HW235500   9.889   5.462   1.639  0.0332 -0.0242  1.4728
 8191SOL     OW35501   4.629   5.757   1.963 -0.0951  0.0789  0.0939
 8191SOL    HW135502   4.578   5.671   1.958  1.1834 -0.7560  0.9570
 8191SOL    HW235503   4.602   5.817   1.888 -1.5330 -0.7771 -0.0962
 8192SOL     OW35504   0.327   2.812   5.076 -0.0461 -0.4255  0.2149
 8192SOL    HW135505   0.234   2.844   5.059 -0.1646 -0.0327  1.4931
 8192SOL    HW235506   0.346   2.731   5.021 -0.9028 -0.0889 -0.5783
 8193SOL     OW35507   1.841   3.265   2.434 -0.3315  0.5878 -0.4775
 8193SOL    HW135508   1.901   3.280   2.513  1.8828 -1.1050 -1.7791
 8193SOL    HW235509   1.760   3.215   2.462 -0.0682  0.9229  0.9037
 8194SOL     OW35510   2.678   5.393   3.232 -0.4454  0.3045  0.3673
 8194SOL    HW135511   2.754   5.440   3.187 -0.3061  1.1366  1.4427
 8194SOL    HW235512   2.604   5.379   3.166  1.1568 -1.7466 -1.0463
 8195SOL     OW35513   2.064   8.059   0.595 -0.2692 -0.3529 -0.0284
 8195SOL    HW135514   2.118   8.052   0.512 -0.4388 -0.6273 -0.1171
 8195SOL    HW235515   2.124   8.080   0.672 -0.0776 -0.3528 -0.1758
 8196SOL     OW35516   9.418   6.893   6.722  0.6115 -0.5905  0.0718
 8196SOL    HW135517   9.401   6.946   6.638 -0.5194 -0.8549  0.1300
 8196SOL    HW235518   9.516   6.873   6.729  1.1979  2.1013  0.4011
 8197SOL     OW35519   3.575   4.738   4.177 -0.4241  0.6231 -0.2335
 8197SOL    HW135520   3.515   4.696   4.109 -1.1100 -0.0322  0.7664
 8197SOL    HW235521   3.527   4.745   4.265  1.0390 -0.1854  0.6554
 8198SOL     OW35522   2.342   6.249   4.414  0.2228 -0.0715  0.5379
 8198SOL    HW135523   2.341   6.334   4.360  1.4929 -0.3448  0.0721
 8198SOL    HW235524   2.272   6.187   4.379  0.0268  0.3512  0.1699
 8199SOL     OW35525   2.033   2.065   1.617  0.2740 -0.0496 -0.3402
 8199SOL    HW135526   1.950   2.052   1.671 -0.5765 -2.3159 -2.0914
 8199SOL    HW235527   2.108   2.094   1.676 -1.3257  0.2592  1.5580
 8200SOL     OW35528   9.123   4.339   1.947 -0.2821 -0.2903 -0.3014
 8200SOL    HW135529   9.179   4.269   1.991 -2.6889 -2.2799 -0.2796
 8200SOL    HW235530   9.177   4.386   1.878  2.4534  0.3322  2.1720
 8201SOL     OW35531   7.602   0.640   4.809 -0.5457  0.0478 -0.3387
 8201SOL    HW135532   7.643   0.675   4.893 -1.8364  1.3173 -0.2105
 8201SOL    HW235533   7.669   0.644   4.734  0.2977 -0.1702  0.3996
 8202SOL     OW35534   0.101   8.792   1.447 -0.0792 -0.0496 -0.0261
 8202SOL    HW135535   0.105   8.755   1.540 -0.8095 -1.9125 -0.7242
 8202SOL    HW235536   0.182   8.850   1.431  0.1466  0.1476  1.6866
 8203SOL     OW35537   1.994   6.433   6.158 -0.4772  0.2078 -0.0962
 8203SOL    HW135538   1.916   6.410   6.216 -0.6220  1.4325  0.2205
 8203SOL    HW235539   2.078   6.399   6.201 -0.7778 -0.6011 -0.1448
 8204SOL     OW35540   8.504   5.568   2.797 -0.2567 -0.2750  0.3787
 8204SOL    HW135541   8.459   5.510   2.865  0.4638 -0.0455  1.0530
 8204SOL    HW235542   8.550   5.643   2.843 -1.1543  0.8238 -0.4942
 8205SOL     OW35543   3.007   7.441   5.641  0.1311 -0.2984 -0.0289
 8205SOL    HW135544   2.974   7.534   5.623 -0.2869  0.0144  2.1604
 8205SOL    HW235545   2.930   7.380   5.658  0.3953 -1.1167 -1.6955
 8206SOL     OW35546   3.613   7.669   4.445 -0.2990  0.0787  0.4303
 8206SOL    HW135547   3.630   7.646   4.350 -2.8214 -3.6846  0.7845
 8206SOL    HW235548   3.535   7.731   4.452 -0.4263 -0.0483  0.0960
 8207SOL     OW35549   2.544   7.963   2.328  0.0261 -0.0691  0.3528
 8207SOL    HW135550   2.545   7.976   2.229  0.9713  0.5178  0.4363
 8207SOL    HW235551   2.472   8.018   2.368  0.5051  0.7216  0.1309
 8208SOL     OW35552   2.357   3.031   3.944  0.1066 -0.0763 -0.5515
 8208SOL    HW135553   2.363   2.932   3.955 -0.8885 -0.2857 -1.6668
 8208SOL    HW235554   2.357   3.076   4.033 -1.1588 -1.1996  0.0261
 8209SOL     OW35555   4.582   6.751   1.591 -0.5778 -0.5451  0.3969
 8209SOL    HW135556   4.585   6.850   1.572  0.9185 -0.0452  2.9978
 8209SOL    HW235557   4.543   6.704   1.512 -2.4674  2.2316 -0.4283
 8210SOL     OW35558   1.325   2.578   4.122 -0.0686  0.1679 -0.5163
 8210SOL    HW135559   1.284   2.656   4.170 -0.5853  0.8882 -2.1033
 8210SOL    HW235560   1.270   2.556   4.042  0.2366 -1.6584 -0.2401
 8211SOL     OW35561   2.344   1.161   1.972  0.0888 -0.0071  0.0023
 8211SOL    HW135562   2.258   1.124   2.006  0.4977 -0.0201  1.0440
 8211SOL    HW235563   2.411   1.088   1.964  0.8707  0.4764  1.9734
 8212SOL     OW35564   8.230   9.456   1.139  0.2855 -0.2941  0.0945
 8212SOL    HW135565   8.147   9.454   1.083  0.1662 -1.0786  0.3005
 8212SOL    HW235566   8.210   9.498   1.227  0.3647  0.5079 -0.2595
 8213SOL     OW35567   3.068   6.471   4.871  0.2823  0.0076  0.5445
 8213SOL    HW135568   3.029   6.480   4.780 -0.2466 -0.0451  0.7625
 8213SOL    HW235569   3.162   6.437   4.864  0.0210 -0.6364  0.0501
 8214SOL     OW35570   3.743   5.691   0.313  0.2089  1.0141  0.4314
 8214SOL    HW135571   3.737   5.698   0.413  1.1028 -0.9585  0.6450
 8214SOL    HW235572   3.824   5.637   0.288  0.5045  2.2538 -1.3992
 8215SOL     OW35573   4.736   9.119   3.432  0.6324  0.0105  0.3184
 8215SOL    HW135574   4.697   9.209   3.416  0.4052 -0.1549 -0.0564
 8215SOL    HW235575   4.832   9.118   3.403  0.8733  0.3674  1.0910
 8216SOL     OW35576   9.433   3.469   4.428  0.2250  0.2647  0.0324
 8216SOL    HW135577   9.467   3.436   4.516 -0.9301  0.8966  0.7171
 8216SOL    HW235578   9.335   3.487   4.434  0.3012  1.1464 -1.1381
 8217SOL     OW35579   0.876   7.074   2.237 -0.6609  0.2610  0.1686
 8217SOL    HW135580   0.861   7.161   2.191 -1.7985  0.7507  1.4311
 8217SOL    HW235581   0.802   7.011   2.215  0.1198 -0.3886 -0.6806
 8218SOL     OW35582   1.588   3.858   0.621 -0.2270 -0.3422  0.0231
 8218SOL    HW135583   1.557   3.765   0.637  0.2375 -0.3172  1.1109
 8218SOL    HW235584   1.604   3.904   0.708  1.3898  0.1302 -0.4927
 8219SOL     OW35585   4.549   1.342   2.667  1.0190  0.4693 -0.5181
 8219SOL    HW135586   4.542   1.276   2.593  0.9709 -1.2094  0.9494
 8219SOL    HW235587   4.490   1.420   2.648 -2.3287 -1.8762 -0.2846
 8220SOL     OW35588   3.098   7.140   2.936 -0.8017 -0.4828 -0.3272
 8220SOL    HW135589   3.078   7.088   3.020  0.5369  0.1701  0.4115
 8220SOL    HW235590   3.066   7.234   2.947  1.0547  0.1074  0.1976
 8221SOL     OW35591   2.255   1.719   3.610  0.1781 -0.9317  0.9880
 8221SOL    HW135592   2.236   1.813   3.640  0.9388 -0.5096  0.1724
 8221SOL    HW235593   2.289   1.666   3.688  0.0163 -0.4476  1.3912
 8222SOL     OW35594   2.143   3.363   5.022  0.0202 -0.6695  0.0889
 8222SOL    HW135595   2.176   3.275   5.055 -0.7142 -1.4563 -1.2484
 8222SOL    HW235596   2.203   3.395   4.948  0.3552  0.0280  0.6473
 8223SOL     OW35597   4.021   9.150   3.519  0.3126 -0.1301  0.6700
 8223SOL    HW135598   4.028   9.238   3.473 -0.1845 -0.1886  0.4733
 8223SOL    HW235599   3.929   9.112   3.504  0.6720 -0.8951  0.3487
 8224SOL     OW35600   8.575   2.291   2.794  0.1165 -0.0852 -0.0101
 8224SOL    HW135601   8.663   2.268   2.754  0.1186  0.1075 -0.1173
 8224SOL    HW235602   8.541   2.376   2.753  0.2741  0.2940  0.6314
 8225SOL     OW35603   4.434   1.364   1.668 -0.4023 -0.4170  0.4431
 8225SOL    HW135604   4.484   1.347   1.584 -0.1487  0.6309  0.3680
 8225SOL    HW235605   4.372   1.288   1.687  1.7082 -2.0852  0.9159
 8226SOL     OW35606   5.267   8.458   1.979 -0.1974  0.4199 -0.1319
 8226SOL    HW135607   5.320   8.378   1.950 -0.8146 -0.2259  0.5262
 8226SOL    HW235608   5.328   8.525   2.021  0.2189  0.0103 -0.0816
 8227SOL     OW35609   4.651   1.834   2.772 -0.2348 -0.2783 -0.2789
 8227SOL    HW135610   4.734   1.826   2.827  0.1013 -0.6606 -0.8342
 8227SOL    HW235611   4.581   1.884   2.824 -0.0680 -0.9887  0.6599
 8228SOL     OW35612   2.860   4.549   5.240 -0.1963 -0.6308  1.3253
 8228SOL    HW135613   2.957   4.556   5.262  0.0432  0.1384  0.0682
 8228SOL    HW235614   2.847   4.483   5.167 -0.0732  2.5302 -1.6666
 8229SOL     OW35615   1.599   4.987   2.463 -0.3304 -0.1340  0.0850
 8229SOL    HW135616   1.562   4.945   2.380  0.8593 -0.3351 -0.3486
 8229SOL    HW235617   1.698   4.978   2.464 -0.2240  0.9906  0.9123
 8230SOL     OW35618   0.358   7.142   6.465  0.2129 -0.4880 -0.0579
 8230SOL    HW135619   0.410   7.210   6.517  0.6251 -1.4098  0.7323
 8230SOL    HW235620   0.303   7.189   6.396  0.6837  0.6359  0.3151
 8231SOL     OW35621   7.406   1.294   4.691  0.3036  0.1507  0.5619
 8231SOL    HW135622   7.486   1.353   4.679 -0.8088  1.5824  0.0118
 8231SOL    HW235623   7.377   1.296   4.786  0.4991  0.1994  0.6207
 8232SOL     OW35624   8.703   2.386   4.457  0.4557  0.2261 -0.4335
 8232SOL    HW135625   8.662   2.423   4.540 -1.8310 -0.6268 -1.1446
 8232SOL    HW235626   8.739   2.295   4.475  1.8391  0.8834  0.1377
 8233SOL     OW35627   0.382   6.709   0.270 -0.9275 -0.5954  0.1209
 8233SOL    HW135628   0.403   6.614   0.249  1.1914 -0.1096 -0.0936
 8233SOL    HW235629   0.425   6.735   0.356  0.8780  0.9382 -1.2030
 8234SOL     OW35630   9.279   6.784   4.082 -0.1047 -0.1764 -0.4791
 8234SOL    HW135631   9.310   6.846   4.155 -0.9002  0.3572 -0.5904
 8234SOL    HW235632   9.321   6.694   4.095  0.4690  0.1723  0.1192
 8235SOL     OW35633   7.917   9.784   1.147 -0.1468  0.0634 -0.6525
 8235SOL    HW135634   8.007   9.788   1.189 -1.2859 -1.3066  2.0143
 8235SOL    HW235635   7.922   9.820   1.054  3.1807 -0.2040 -0.6297
 8236SOL     OW35636   0.237   2.262   1.440  0.1641  0.8901  0.2840
 8236SOL    HW135637   0.169   2.321   1.484 -0.7419  1.3809 -1.7105
 8236SOL    HW235638   0.190   2.189   1.390  1.1366  0.7343 -0.4161
 8237SOL     OW35639   2.546   8.656   4.841  0.6376  0.1046 -0.2086
 8237SOL    HW135640   2.584   8.617   4.925 -1.7331 -0.3361  0.6983
 8237SOL    HW235641   2.479   8.727   4.865  1.2222  1.2266 -1.7738
 8238SOL     OW35642   4.434   3.039   4.851 -0.0353 -0.0832 -0.2456
 8238SOL    HW135643   4.337   3.030   4.875  0.3443 -2.0752  0.6717
 8238SOL    HW235644   4.444   3.032   4.752 -0.6532 -2.1639 -0.1980
 8239SOL     OW35645   6.874   0.455   1.434  0.3603 -0.0927 -0.3030
 8239SOL    HW135646   6.916   0.501   1.511 -1.6724  3.0539 -0.9871
 8239SOL    HW235647   6.831   0.370   1.465 -0.2848  1.0429  2.0173
 8240SOL     OW35648   4.181   2.399   2.776  0.1047  0.6003  0.3017
 8240SOL    HW135649   4.214   2.469   2.839  1.7780  1.3733 -1.3735
 8240SOL    HW235650   4.213   2.309   2.805  0.2265  0.8627  0.9742
 8241SOL     OW35651   5.065   0.760   4.573  0.6624 -0.5408  0.1052
 8241SOL    HW135652   5.141   0.696   4.567  0.3212 -0.9153 -0.1799
 8241SOL    HW235653   5.005   0.734   4.649  0.1088 -1.0034 -0.4877
 8242SOL     OW35654   6.774   0.109   2.428  0.3031 -0.5330 -0.2769
 8242SOL    HW135655   6.793   0.050   2.506 -1.0937 -1.5728 -0.7008
 8242SOL    HW235656   6.695   0.168   2.448  1.5897  1.1120  0.0892
 8243SOL     OW35657   2.066   4.145   1.321 -0.2700 -0.4629 -0.0153
 8243SOL    HW135658   2.088   4.197   1.403  0.0211 -1.0115  0.2611
 8243SOL    HW235659   2.151   4.128   1.269 -0.5009  0.1849 -0.6111
 8244SOL     OW35660   0.534   3.750   2.517 -0.0232 -0.2849 -0.4906
 8244SOL    HW135661   0.475   3.779   2.593 -0.0668  0.8206 -0.9293
 8244SOL    HW235662   0.627   3.740   2.551 -0.5180 -2.4706  0.3034
 8245SOL     OW35663   4.327   4.084   0.986 -0.0294 -0.1007 -0.6927
 8245SOL    HW135664   4.345   4.035   0.900  1.3216  0.4688 -0.7447
 8245SOL    HW235665   4.409   4.133   1.014 -0.4981 -0.1846  0.8743
 8246SOL     OW35666   2.979   6.967   6.635  0.9192  0.4412  0.4075
 8246SOL    HW135667   2.896   6.919   6.661  2.6756 -2.6341  0.6075
 8246SOL    HW235668   3.030   6.993   6.717  0.5798  1.5443  0.2700
 8247SOL     OW35669   9.141   4.250   0.539 -0.2266 -0.0573  0.4938
 8247SOL    HW135670   9.146   4.238   0.440 -0.6291  0.0982  0.4535
 8247SOL    HW235671   9.065   4.196   0.575  1.4654 -2.1058  1.0462
 8248SOL     OW35672   4.869   8.241   5.088  0.0679 -0.3379  0.5077
 8248SOL    HW135673   4.955   8.192   5.099  0.4058  0.4136  1.2076
 8248SOL    HW235674   4.874   8.329   5.135 -0.5669  0.3327 -0.6599
 8249SOL     OW35675   8.029   7.879   3.969 -0.2562 -0.1145  0.8824
 8249SOL    HW135676   8.006   7.896   3.874  0.9491 -0.3353  0.5467
 8249SOL    HW235677   7.947   7.892   4.026 -0.4971  2.1453  0.0832
 8250SOL     OW35678   9.099   4.049   4.631  0.5495  0.1527  0.7805
 8250SOL    HW135679   9.188   4.035   4.675 -0.5247 -0.6184  2.7763
 8250SOL    HW235680   9.030   4.068   4.701 -0.8292  0.9432 -0.7601
 8251SOL     OW35681   8.195   9.049   0.588  0.2192  0.2528  0.0625
 8251SOL    HW135682   8.279   9.011   0.626  1.7546  0.6378 -2.7826
 8251SOL    HW235683   8.169   9.131   0.639  1.1064 -0.3389  1.4760
 8252SOL     OW35684   3.595   7.398   5.004  0.3639  0.1665  0.1045
 8252SOL    HW135685   3.641   7.315   4.973 -0.8280 -0.2621 -0.5379
 8252SOL    HW235686   3.652   7.477   4.984 -0.3024 -0.1201 -3.0546
 8253SOL     OW35687   4.126   3.125   3.086 -0.0047  0.0506  0.2453
 8253SOL    HW135688   4.142   3.030   3.110 -0.0270 -0.3291 -1.1710
 8253SOL    HW235689   4.078   3.171   3.160 -0.3471 -1.1386  0.7721
 8254SOL     OW35690   6.749   9.295   1.508  0.3723  0.8436  0.3979
 8254SOL    HW135691   6.798   9.213   1.538  0.5384  0.7407 -0.1494
 8254SOL    HW235692   6.814   9.359   1.467  0.1783  1.0759  0.4549
 8255SOL     OW35693   4.451   8.818   4.227 -0.1108 -0.2362  0.2182
 8255SOL    HW135694   4.453   8.844   4.130 -1.4242  1.0357  0.5244
 8255SOL    HW235695   4.356   8.809   4.257  0.3009 -2.1811  0.9862
 8256SOL     OW35696   2.157   2.851   2.953  0.4938 -0.2417  0.0512
 8256SOL    HW135697   2.076   2.817   2.904  0.2716  1.2385 -0.6431
 8256SOL    HW235698   2.200   2.776   3.003  0.7205 -1.8186 -2.4200
 8257SOL     OW35699   0.905   9.360   1.232 -0.5410  0.5611 -0.4359
 8257SOL    HW135700   0.973   9.355   1.159 -0.9825  2.2716 -0.9819
 8257SOL    HW235701   0.949   9.342   1.320 -0.3078 -3.1526 -1.2459
 8258SOL     OW35702   3.726   9.146   2.335  1.0292  0.1077  0.0351
 8258SOL    HW135703   3.815   9.188   2.316  0.8130  0.6627  0.2280
 8258SOL    HW235704   3.730   9.098   2.423  0.9487  0.6934  0.3625
 8259SOL     OW35705   6.951   8.666   3.022  0.1936  0.0098  0.1664
 8259SOL    HW135706   7.030   8.724   3.002 -0.9172  0.9348 -1.7285
 8259SOL    HW235707   6.982   8.576   3.053  2.0225  0.0380 -1.4566
 8260SOL     OW35708   9.161   9.854   1.453 -0.3871  0.0388  0.4113
 8260SOL    HW135709   9.199   9.806   1.374 -2.1406  1.2765 -1.2319
 8260SOL    HW235710   9.206   9.944   1.461  0.2537 -0.3473  1.2380
 8261SOL     OW35711   3.726   2.177   3.176 -0.1364 -0.3528  0.0444
 8261SOL    HW135712   3.785   2.112   3.223  0.1843 -0.9374 -1.1511
 8261SOL    HW235713   3.649   2.127   3.134  0.2204  0.0086 -1.0472
 8262SOL     OW35714   9.638   3.060   0.210  0.2883  0.3913  0.2246
 8262SOL    HW135715   9.560   3.067   0.272  1.3908  1.8262  1.4918
 8262SOL    HW235716   9.721   3.040   0.262  1.1766  1.2720 -0.8105
 8263SOL     OW35717   5.599   0.107   2.759  0.2231  0.3591 -0.2091
 8263SOL    HW135718   5.691   0.080   2.787  0.2279  0.4330 -0.1527
 8263SOL    HW235719   5.605   0.188   2.700  0.2567 -0.1529 -0.9220
 8264SOL     OW35720   2.114   3.351   5.892  0.0402  0.5252 -0.0572
 8264SOL    HW135721   2.050   3.428   5.897 -0.7982 -0.2255  0.8317
 8264SOL    HW235722   2.145   3.327   5.984 -0.1778 -0.6017 -0.2739
 8265SOL     OW35723   0.848   5.872   6.521  0.4040  0.1780  0.2620
 8265SOL    HW135724   0.945   5.859   6.541  0.9604 -0.3095 -2.5026
 8265SOL    HW235725   0.823   5.817   6.441 -1.9596  0.9203  0.4541
 8266SOL     OW35726   8.116   6.443   2.841  0.4254  0.3633 -0.3067
 8266SOL    HW135727   8.079   6.446   2.934 -0.3410 -1.4482 -0.5289
 8266SOL    HW235728   8.195   6.381   2.839 -0.8013 -1.1823 -1.2734
 8267SOL     OW35729   7.595   0.043   1.108 -0.5656  0.3597 -0.2424
 8267SOL    HW135730   7.679   0.096   1.109 -0.5395  0.3048  0.1753
 8267SOL    HW235731   7.536   0.071   1.184 -0.1793 -0.8189  0.5049
 8268SOL     OW35732   9.208   9.379   4.969 -0.1754  0.1340  0.8932
 8268SOL    HW135733   9.160   9.305   5.015 -0.6810  0.0180  0.1988
 8268SOL    HW235734   9.260   9.343   4.891  2.1765  0.0618  2.4566
 8269SOL     OW35735   5.265   7.888   5.519  0.3860 -0.7890  0.3183
 8269SOL    HW135736   5.238   7.850   5.607  0.9644 -1.4797  0.2009
 8269SOL    HW235737   5.184   7.906   5.464  0.0796 -1.3247  0.5947
 8270SOL     OW35738   5.948   0.115   1.199  0.6409 -0.3318 -0.0648
 8270SOL    HW135739   5.863   0.139   1.245  0.9524 -1.7191  1.2668
 8270SOL    HW235740   5.941   0.136   1.101 -1.7567 -1.8137 -0.2355
 8271SOL     OW35741   3.062   6.660   2.376  0.2592  0.1230 -0.4099
 8271SOL    HW135742   3.071   6.597   2.299  2.6435  1.3274 -1.1723
 8271SOL    HW235743   3.047   6.753   2.341  2.2132  0.8161  0.5409
 8272SOL     OW35744   7.241   8.776   4.310 -0.2033 -0.8020 -0.8229
 8272SOL    HW135745   7.188   8.699   4.275 -0.2886 -1.4458  0.6353
 8272SOL    HW235746   7.247   8.768   4.410 -0.5709  1.3331 -0.6211
 8273SOL     OW35747   9.157   0.817   1.910  0.1500 -0.1838  0.1633
 8273SOL    HW135748   9.230   0.835   1.976 -0.5678 -1.0438  1.1962
 8273SOL    HW235749   9.102   0.900   1.898  0.8579  0.2574 -0.0893
 8274SOL     OW35750   7.827   6.667   3.826  0.1625  0.5779 -0.1361
 8274SOL    HW135751   7.918   6.627   3.834  0.1364  0.3403 -0.9764
 8274SOL    HW235752   7.779   6.658   3.913  1.6332  2.4149  0.9031
 8275SOL     OW35753   0.362   4.593   5.551  0.2296  0.3299 -0.1497
 8275SOL    HW135754   0.423   4.532   5.501 -2.3870 -0.3638 -2.6012
 8275SOL    HW235755   0.326   4.545   5.631  1.8941  0.3216  0.6107
 8276SOL     OW35756   1.615   1.404   1.804  0.2107  0.5059 -0.2462
 8276SOL    HW135757   1.599   1.305   1.810  1.6404  0.3171  0.6739
 8276SOL    HW235758   1.554   1.443   1.735 -0.6632 -0.9491 -0.3257
 8277SOL     OW35759   6.013   7.044   4.185  0.1973  0.0339  0.4989
 8277SOL    HW135760   6.040   7.111   4.115  0.6369  1.2948  1.8457
 8277SOL    HW235761   5.932   6.994   4.154  0.8515  0.0291 -1.2427
 8278SOL     OW35762   7.969   6.971   4.325  0.5350 -0.6632  0.1937
 8278SOL    HW135763   8.061   6.975   4.287 -0.0344  1.1286 -1.0544
 8278SOL    HW235764   7.969   6.914   4.407  3.1890  1.0476  1.4404
 8279SOL     OW35765   8.197   5.704   1.938 -0.5875 -0.3135  0.5439
 8279SOL    HW135766   8.282   5.723   1.987 -0.7781  3.0317 -0.2972
 8279SOL    HW235767   8.120   5.740   1.992 -1.3226 -1.7649  0.4765
 8280SOL     OW35768   8.581   3.776   0.512 -0.4827  0.4256  0.4375
 8280SOL    HW135769   8.493   3.728   0.514  0.6657 -1.6995  0.2744
 8280SOL    HW235770   8.643   3.730   0.449  0.0747  3.1733 -1.1168
 8281SOL     OW35771   8.934   3.473   1.218  0.4082 -0.5664  0.5313
 8281SOL    HW135772   8.847   3.426   1.202 -0.3530  0.9023  0.2891
 8281SOL    HW235773   9.009   3.407   1.213 -0.6100 -1.6814 -0.2153
 8282SOL     OW35774   1.707   3.339   6.671  0.9677  0.0696 -0.1621
 8282SOL    HW135775   1.626   3.286   6.647  2.7970 -2.2085 -1.4801
 8282SOL    HW235776   1.766   3.285   6.730  1.7157  1.5860  0.5113
 8283SOL     OW35777   1.342   2.932   1.177  0.8434 -0.6723 -0.0010
 8283SOL    HW135778   1.305   2.938   1.270  0.1407 -1.8513 -0.1861
 8283SOL    HW235779   1.421   2.992   1.168 -0.2935  0.9679  0.7732
 8284SOL     OW35780   9.522   5.372   3.996 -0.2019 -0.2485  0.3666
 8284SOL    HW135781   9.423   5.384   4.001 -0.2866 -0.3729 -0.8817
 8284SOL    HW235782   9.565   5.460   3.979 -0.1964 -0.4122 -0.4509
 8285SOL     OW35783   2.103   3.661   4.422 -0.1563  0.6775 -0.7278
 8285SOL    HW135784   2.054   3.730   4.370 -1.6693  0.9420  0.9903
 8285SOL    HW235785   2.046   3.580   4.433  0.6936  0.0770 -0.7071
 8286SOL     OW35786   6.775   1.063   0.033 -0.1236  0.1826  0.1309
 8286SOL    HW135787   6.711   0.995  -0.003  0.1159 -0.3454  0.6963
 8286SOL    HW235788   6.818   1.111  -0.044 -1.9714  1.2891 -0.2363
 8287SOL     OW35789   1.630   6.546   5.529 -0.3666 -0.0619  0.5639
 8287SOL    HW135790   1.662   6.463   5.574 -0.7890  0.3615  1.6580
 8287SOL    HW235791   1.637   6.535   5.430 -0.3768 -1.3816  0.7015
 8288SOL     OW35792   3.043   1.813   2.444 -0.0056  0.0347 -0.2292
 8288SOL    HW135793   3.060   1.824   2.542  0.3658  0.0222 -0.2931
 8288SOL    HW235794   3.003   1.897   2.408 -0.7116 -0.1702  0.0530
 8289SOL     OW35795   2.795   3.602   1.091 -0.4326  0.1557  0.1642
 8289SOL    HW135796   2.767   3.685   1.044 -0.9724  0.4788  1.0431
 8289SOL    HW235797   2.823   3.624   1.185 -1.7423 -0.8055  0.7931
 8290SOL     OW35798   9.462   1.590   1.350 -0.4419  0.2548 -0.0124
 8290SOL    HW135799   9.454   1.552   1.442 -3.9647 -1.3161 -0.8974
 8290SOL    HW235800   9.441   1.519   1.283 -3.7491  2.7931 -1.8209
 8291SOL     OW35801   8.201   2.873   5.638  0.3759 -0.2649 -0.1308
 8291SOL    HW135802   8.197   2.881   5.738  1.1970 -0.0532 -0.1127
 8291SOL    HW235803   8.223   2.962   5.599 -1.3779 -0.0129 -0.5959
 8292SOL     OW35804   4.716   6.973   3.310 -0.7300 -0.1820  0.3648
 8292SOL    HW135805   4.692   7.021   3.226  4.8969  0.3587 -1.1598
 8292SOL    HW235806   4.694   6.876   3.301  0.0075 -0.1663 -1.9010
 8293SOL     OW35807   9.115   8.966   0.226  0.2299 -0.2071 -0.3973
 8293SOL    HW135808   9.097   8.966   0.128 -1.3639 -0.2156 -0.1242
 8293SOL    HW235809   9.096   9.057   0.263  2.2544  0.2053 -0.3291
 8294SOL     OW35810   3.382   2.168   1.731  0.2790 -0.2810 -0.3238
 8294SOL    HW135811   3.411   2.261   1.752  0.4935 -0.3188 -0.4541
 8294SOL    HW235812   3.339   2.167   1.641 -0.2459 -0.2007 -0.0744
 8295SOL     OW35813   3.269   7.345   1.181 -0.6235  0.4184  0.1616
 8295SOL    HW135814   3.222   7.257   1.192 -0.7130  0.1857 -1.8624
 8295SOL    HW235815   3.367   7.331   1.190 -0.6629  0.1605  0.2149
 8296SOL     OW35816   3.695   5.148   0.919  0.4377 -0.2722 -0.1025
 8296SOL    HW135817   3.704   5.225   0.855  1.7883  0.2347  0.6862
 8296SOL    HW235818   3.748   5.167   1.002 -1.2342 -0.9580  1.1530
 8297SOL     OW35819   1.375   1.904   3.596 -0.4309  0.0070  0.0812
 8297SOL    HW135820   1.341   1.814   3.569 -1.7511  0.5098  0.0215
 8297SOL    HW235821   1.453   1.893   3.658  0.6608 -1.1688 -1.4657
 8298SOL     OW35822   7.435   9.528   4.049 -0.2298 -0.1555  0.6994
 8298SOL    HW135823   7.343   9.555   4.021  0.6664 -0.5607 -2.8775
 8298SOL    HW235824   7.430   9.470   4.130 -3.0327  0.4975  1.0457
 8299SOL     OW35825   1.652   4.918   5.030 -0.2108 -0.0936 -0.1757
 8299SOL    HW135826   1.641   4.979   5.109 -0.4490  0.0330 -0.3050
 8299SOL    HW235827   1.568   4.867   5.015 -0.8696  1.3435 -1.5557
 8300SOL     OW35828   4.874   3.086   5.262 -0.2033 -0.6163  0.2177
 8300SOL    HW135829   4.966   3.102   5.227 -0.1478  0.3084  0.7591
 8300SOL    HW235830   4.842   3.168   5.311 -2.2148 -0.0568 -1.9286
 8301SOL     OW35831   0.828   1.121   2.388  0.0101 -0.4023 -0.2089
 8301SOL    HW135832   0.777   1.065   2.323 -0.1704  0.2826 -0.6709
 8301SOL    HW235833   0.896   1.175   2.339 -0.3809  0.4005  0.1100
 8302SOL     OW35834   0.492   7.569   5.313 -0.6865  0.0938 -0.0382
 8302SOL    HW135835   0.572   7.622   5.338 -1.4864  1.6089 -0.6626
 8302SOL    HW235836   0.415   7.595   5.371 -0.7332 -1.3757  0.5831
 8303SOL     OW35837   1.529   1.280   2.496 -0.1142 -0.8145 -0.2155
 8303SOL    HW135838   1.565   1.287   2.590 -3.5336 -0.3697  1.1461
 8303SOL    HW235839   1.495   1.370   2.467 -1.6460 -1.5664 -0.7816
 8304SOL     OW35840   1.098   6.089   2.412 -0.4277 -0.0002 -0.3771
 8304SOL    HW135841   1.102   6.185   2.385 -1.5067  0.0781 -0.2958
 8304SOL    HW235842   1.188   6.059   2.443  0.0699  0.7971 -1.0421
 8305SOL     OW35843   8.186   0.652   0.431 -0.6468  0.1973  0.2065
 8305SOL    HW135844   8.132   0.582   0.383  1.3935 -0.0055 -1.9050
 8305SOL    HW235845   8.263   0.608   0.478 -0.0175  0.8717 -0.1769
 8306SOL     OW35846   8.053   9.423   4.036  0.4601  0.4715 -0.5826
 8306SOL    HW135847   8.056   9.510   4.086 -0.0507  1.3052 -1.9604
 8306SOL    HW235848   8.005   9.355   4.091 -2.5856  2.1416 -1.0326
 8307SOL     OW35849   3.539   5.537   0.526  0.2113  0.3825  0.4752
 8307SOL    HW135850   3.457   5.480   0.524  0.8241 -0.5177  0.5221
 8307SOL    HW235851   3.620   5.480   0.512  0.9378  1.0535  1.7559
 8308SOL     OW35852   1.165   5.100   5.263 -0.7207 -0.5669 -0.1932
 8308SOL    HW135853   1.225   5.040   5.315  1.3940  0.9385 -0.8617
 8308SOL    HW235854   1.188   5.196   5.282 -1.3873  0.0207 -2.1946
 8309SOL     OW35855   0.329   3.792   2.337 -0.2979 -0.7364 -0.1950
 8309SOL    HW135856   0.348   3.767   2.243 -2.1491 -1.1915 -0.4684
 8309SOL    HW235857   0.414   3.817   2.383  0.5302  0.1266 -2.1538
 8310SOL     OW35858   7.655   9.140   2.644 -0.1476 -0.6166 -0.3237
 8310SOL    HW135859   7.621   9.136   2.550  1.0452 -2.5792 -0.7233
 8310SOL    HW235860   7.616   9.065   2.697  0.1019 -0.2262  0.4219
 8311SOL     OW35861   4.444   6.607   1.409 -0.2931  0.3653 -0.0715
 8311SOL    HW135862   4.376   6.653   1.351  2.5305  2.4731 -1.8546
 8311SOL    HW235863   4.439   6.509   1.394 -0.6619  0.7451 -2.7786
 8312SOL     OW35864   8.743   8.557   3.399 -0.1368  0.1936  0.0683
 8312SOL    HW135865   8.819   8.514   3.448 -0.1648 -0.1730 -0.2053
 8312SOL    HW235866   8.728   8.649   3.435  0.4471  0.2733  0.1143
 8313SOL     OW35867   3.999   6.701   3.876  0.6579 -0.5453 -0.0832
 8313SOL    HW135868   3.968   6.792   3.848  1.0191 -0.3940  0.0082
 8313SOL    HW235869   4.075   6.710   3.940  1.1157 -0.9185 -0.5660
 8314SOL     OW35870   1.366   5.720   4.592 -0.0724 -0.0986 -0.1248
 8314SOL    HW135871   1.388   5.634   4.546 -1.7687 -1.4679  1.5422
 8314SOL    HW235872   1.280   5.709   4.643  0.6446  2.0210  1.5916
 8315SOL     OW35873   6.557   0.247   1.023  0.2592  1.1458  0.3635
 8315SOL    HW135874   6.551   0.249   1.123  0.9906 -0.4253  0.4528
 8315SOL    HW235875   6.595   0.159   0.994 -2.0025  0.7038 -1.4190
 8316SOL     OW35876   0.661   1.600   2.987  0.0454  0.0234  0.0569
 8316SOL    HW135877   0.588   1.625   2.923 -0.4339  1.4957  1.1580
 8316SOL    HW235878   0.653   1.503   3.010 -1.0127 -0.0429 -0.5462
 8317SOL     OW35879   0.743   4.615   4.191 -0.5416  0.4364 -0.3417
 8317SOL    HW135880   0.727   4.557   4.272  1.6584 -0.9266 -0.8338
 8317SOL    HW235881   0.670   4.601   4.125 -1.6281  0.5075  0.8416
 8318SOL     OW35882   8.771   5.667   1.752  0.8271  0.8243 -0.1253
 8318SOL    HW135883   8.703   5.739   1.759  1.1694  1.0873  0.5281
 8318SOL    HW235884   8.862   5.703   1.773  1.0781  0.3305 -0.3338
 8319SOL     OW35885   0.084   5.244   6.701 -0.4632 -0.2475  0.1836
 8319SOL    HW135886   0.125   5.304   6.770  0.1089 -0.3077 -0.1038
 8319SOL    HW235887   0.076   5.294   6.614  1.2888 -1.0298 -0.4316
 8320SOL     OW35888   7.299   8.394   3.729  0.6220 -0.1810 -0.3374
 8320SOL    HW135889   7.218   8.338   3.712 -0.3507  1.2058 -0.3301
 8320SOL    HW235890   7.381   8.343   3.702 -0.2712 -1.4520 -0.6834
 8321SOL     OW35891   8.472   3.485   4.129  0.0333  0.2317 -0.2799
 8321SOL    HW135892   8.556   3.431   4.120 -0.1002  0.0309 -0.3376
 8321SOL    HW235893   8.477   3.565   4.070  0.9643  1.2273  1.1023
 8322SOL     OW35894   8.700   0.928   2.230  0.0215 -0.6410 -1.1562
 8322SOL    HW135895   8.677   0.867   2.306  1.2035 -1.2940 -1.3091
 8322SOL    HW235896   8.786   0.898   2.189  0.1037  0.5484 -1.8601
 8323SOL     OW35897   5.998   0.896   2.226  0.4892  0.5409  0.3463
 8323SOL    HW135898   5.908   0.925   2.261  0.0316  0.4462 -0.7415
 8323SOL    HW235899   5.990   0.807   2.182  1.0304  0.7268 -0.1359
 8324SOL     OW35900   7.074   1.101   3.442 -0.1654  0.4689  0.6493
 8324SOL    HW135901   7.038   1.038   3.511  1.6631 -0.1984  1.0117
 8324SOL    HW235902   7.001   1.123   3.377 -0.9100 -1.9144  0.6068
 8325SOL     OW35903   5.140   4.909   0.847  0.1999  0.4499  0.4572
 8325SOL    HW135904   5.106   4.997   0.880  1.4549  0.4767  1.7235
 8325SOL    HW235905   5.228   4.922   0.802  0.5376 -0.1936  0.9271
 8326SOL     OW35906   1.591   1.510   4.178  0.0884 -0.6767  0.0373
 8326SOL    HW135907   1.684   1.502   4.214  1.4913  1.4471 -2.9402
 8326SOL    HW235908   1.536   1.566   4.239  0.9505 -1.3381  1.4497
 8327SOL     OW35909   6.539   7.070   5.036  0.2367 -0.4309 -0.0518
 8327SOL    HW135910   6.593   7.056   4.952 -0.4457  0.3515 -0.6256
 8327SOL    HW235911   6.579   7.144   5.089  0.7638 -1.0323  0.4079
 8328SOL     OW35912   1.159   5.249   2.407  0.2743  0.4358 -0.2754
 8328SOL    HW135913   1.256   5.231   2.421  0.3218  0.6638 -0.3145
 8328SOL    HW235914   1.108   5.222   2.489  0.3954  0.5274 -0.1700
 8329SOL     OW35915   1.294   4.228   4.849  0.5641 -0.3871  0.0665
 8329SOL    HW135916   1.381   4.200   4.891 -0.1316 -1.0553  1.1055
 8329SOL    HW235917   1.266   4.317   4.886  0.7648 -0.2161 -0.1962
 8330SOL     OW35918   7.158   0.907   2.025 -0.6255 -0.4934 -0.1070
 8330SOL    HW135919   7.115   0.902   1.935  1.2807 -0.4526 -1.0252
 8330SOL    HW235920   7.257   0.904   2.016 -0.4115 -0.7817  2.0169
 8331SOL     OW35921   9.871   4.764   3.393 -0.8284 -0.2845  0.4203
 8331SOL    HW135922   9.869   4.804   3.485 -0.2215  0.8956 -0.0728
 8331SOL    HW235923   9.879   4.837   3.325  0.3463 -1.2570 -0.4983
 8332SOL     OW35924   7.649   1.464   2.224 -0.1341  0.5488  0.0544
 8332SOL    HW135925   7.576   1.518   2.265 -1.2608 -0.9168  0.0442
 8332SOL    HW235926   7.735   1.479   2.273 -0.9832  0.4617  1.5975
 8333SOL     OW35927   6.381   0.879   4.666  0.7281  0.7410 -0.5333
 8333SOL    HW135928   6.364   0.928   4.580 -0.4261  0.2351 -0.6036
 8333SOL    HW235929   6.301   0.886   4.724  1.0578  0.0512  0.0030
 8334SOL     OW35930   3.116   4.046   0.862  0.3848 -0.1002  0.2689
 8334SOL    HW135931   3.118   4.007   0.955  2.2256  0.6063  0.5478
 8334SOL    HW235932   3.022   4.048   0.829 -0.3589  0.0672  2.3153
 8335SOL     OW35933   0.462   4.990   4.355  0.6396  0.6180 -0.5706
 8335SOL    HW135934   0.523   4.990   4.435  0.9955 -0.3056 -0.8392
 8335SOL    HW235935   0.452   4.897   4.320 -1.3071  0.6931 -0.2534
 8336SOL     OW35936   9.192   8.839   5.006 -0.0415 -0.1917  0.1150
 8336SOL    HW135937   9.125   8.765   5.005  1.6855 -1.7973 -0.7296
 8336SOL    HW235938   9.284   8.800   4.999  0.9163  2.0311 -0.0510
 8337SOL     OW35939   2.451   5.783   0.341 -0.5154  0.6270  0.4725
 8337SOL    HW135940   2.430   5.687   0.360  0.1786 -0.8519 -5.1895
 8337SOL    HW235941   2.369   5.839   0.357 -2.0109 -1.4895  0.4700
 8338SOL     OW35942   9.331   4.179   2.045 -1.0119  0.1828  0.0246
 8338SOL    HW135943   9.387   4.230   1.979  0.8901 -0.2719  1.2468
 8338SOL    HW235944   9.341   4.081   2.028 -0.4054  0.0605  1.0582
 8339SOL     OW35945   0.905   6.816   1.184  0.3712 -0.3747 -0.3567
 8339SOL    HW135946   0.819   6.768   1.167  0.0930  0.4808 -1.4693
 8339SOL    HW235947   0.906   6.852   1.278 -0.2361 -0.8930 -0.1531
 8340SOL     OW35948   2.950   4.101   1.554  0.0803  0.0815  0.3401
 8340SOL    HW135949   3.019   4.064   1.493 -0.5898  0.2222 -0.5191
 8340SOL    HW235950   2.919   4.029   1.617  0.5671 -0.1397  0.3272
 8341SOL     OW35951   3.528   7.291   1.189  0.1184 -0.2265  0.1616
 8341SOL    HW135952   3.539   7.216   1.125 -0.1207  0.9121 -1.2312
 8341SOL    HW235953   3.619   7.323   1.219  0.2218 -0.9501  0.6301
 8342SOL     OW35954   2.460   2.163   4.711  0.4846  0.0637 -0.1727
 8342SOL    HW135955   2.444   2.069   4.739  1.2738  0.3386  1.2337
 8342SOL    HW235956   2.517   2.164   4.629 -1.1492 -0.7154 -1.3424
 8343SOL     OW35957   5.194   0.401   2.784  0.3721 -0.2362  0.5123
 8343SOL    HW135958   5.104   0.362   2.764  0.5413 -0.5918  0.4369
 8343SOL    HW235959   5.251   0.395   2.702  1.4053 -2.6164  1.3767
 8344SOL     OW35960   0.643   4.441   1.049 -0.7069 -0.5751  0.1360
 8344SOL    HW135961   0.738   4.433   1.019 -1.1873 -1.8348 -1.0769
 8344SOL    HW235962   0.616   4.538   1.049  0.9469 -0.0916  1.7048
 8345SOL     OW35963   6.873   0.332   2.896  0.3055  0.0113  0.0324
 8345SOL    HW135964   6.840   0.238   2.883  0.2256 -0.1551  1.3535
 8345SOL    HW235965   6.972   0.330   2.910  0.4330  0.2114 -0.8594
 8346SOL     OW35966   3.022   2.249   4.575  0.0651 -0.4678  0.6734
 8346SOL    HW135967   2.947   2.304   4.613 -0.3636  0.1660 -1.0738
 8346SOL    HW235968   2.984   2.165   4.535  0.5262 -1.1638  1.6733
 8347SOL     OW35969   1.208   6.060   0.987  0.2933 -0.1329  0.0936
 8347SOL    HW135970   1.256   5.973   0.983 -2.3330 -1.6056 -0.4749
 8347SOL    HW235971   1.185   6.082   1.082  0.7368 -0.1795  0.2118
 8348SOL     OW35972   5.696   1.671   3.828  0.2807  0.1735  0.5140
 8348SOL    HW135973   5.648   1.603   3.882  0.1189 -0.2485 -0.1592
 8348SOL    HW235974   5.661   1.762   3.850 -0.7732 -0.1254  0.0771
 8349SOL     OW35975   1.675   0.233   2.818  0.6304  0.0134  0.1814
 8349SOL    HW135976   1.774   0.236   2.804  0.5327 -0.8230 -0.7006
 8349SOL    HW235977   1.637   0.324   2.804  1.2914  0.3831  0.7187
 8350SOL     OW35978   4.913   8.659   3.879 -0.5186 -0.8126 -0.0093
 8350SOL    HW135979   4.912   8.607   3.965  0.0964 -2.2691 -0.8567
 8350SOL    HW235980   4.994   8.633   3.826 -0.3310  0.8664 -0.5579
 8351SOL     OW35981   9.789   7.838   5.718 -0.1753  0.6554  0.5418
 8351SOL    HW135982   9.761   7.909   5.652 -1.0303 -0.3620 -0.2096
 8351SOL    HW235983   9.811   7.754   5.669  2.0091  0.7467  1.3377
 8352SOL     OW35984   0.332   6.789   2.175 -0.2407  0.3843  0.1602
 8352SOL    HW135985   0.395   6.720   2.210  1.1987  0.9677 -1.2290
 8352SOL    HW235986   0.334   6.788   2.075 -0.5001  2.1556  0.1216
 8353SOL     OW35987   0.203   7.069   2.940  0.1829 -0.2084  0.0753
 8353SOL    HW135988   0.300   7.062   2.962  0.8240  3.5261 -1.3190
 8353SOL    HW235989   0.185   7.021   2.854  0.9634 -0.0939 -0.1555
 8354SOL     OW35990   5.051   1.165   5.023  0.4331  0.4520  0.3763
 8354SOL    HW135991   5.071   1.095   4.954 -1.0761 -0.4024  0.7717
 8354SOL    HW235992   4.964   1.143   5.067  0.8093  1.6465  1.7236
 8355SOL     OW35993   8.062   9.337   3.434  0.3248  0.2402 -0.0768
 8355SOL    HW135994   8.015   9.272   3.495  0.5977  0.2280  0.1229
 8355SOL    HW235995   8.043   9.430   3.464 -0.9975  0.2955 -1.0514
 8356SOL     OW35996   0.808   0.704   4.675 -0.3990  0.0558 -0.2534
 8356SOL    HW135997   0.725   0.758   4.663 -0.4516  0.0388  0.0488
 8356SOL    HW235998   0.823   0.686   4.772  0.1428  0.3466 -0.2826
 8357SOL     OW35999   8.550   4.820   1.697  0.2238  0.1423 -0.6572
 8357SOL    HW136000   8.612   4.783   1.627 -0.2139  0.3656 -1.1590
 8357SOL    HW236001   8.477   4.754   1.714  0.4215  0.0166 -0.2901
 8358SOL     OW36002   4.346   1.032   1.482  0.1566  0.4691 -0.2044
 8358SOL    HW136003   4.339   1.095   1.404  0.1526 -1.0694 -1.4897
 8358SOL    HW236004   4.434   0.984   1.478 -0.1341 -0.1139  0.3393
 8359SOL     OW36005   6.365   7.698   3.805  0.1492 -0.4320 -0.3160
 8359SOL    HW136006   6.459   7.670   3.823 -0.0446 -1.1845 -0.4256
 8359SOL    HW236007   6.332   7.654   3.721 -0.0125  0.5129 -0.7485
 8360SOL     OW36008   3.795   2.103   0.917 -0.6079  0.4618  0.4411
 8360SOL    HW136009   3.827   2.131   0.827  0.6291  0.7611  0.9641
 8360SOL    HW236010   3.736   2.023   0.908  1.4031 -0.9605 -0.4356
 8361SOL     OW36011   3.412   5.497   5.967  0.6800 -0.3529 -0.2125
 8361SOL    HW136012   3.344   5.521   6.036  0.8156  0.0529 -0.2201
 8361SOL    HW236013   3.395   5.403   5.935  1.7639 -1.2564  1.7518
 8362SOL     OW36014   8.452   7.244   4.997 -0.2519  0.1298  0.1410
 8362SOL    HW136015   8.419   7.317   4.937  1.1548  1.8337  1.4136
 8362SOL    HW236016   8.421   7.155   4.961 -0.7938  1.2255 -2.1848
 8363SOL     OW36017   5.712   9.916   4.253  0.6057 -0.0930 -0.2736
 8363SOL    HW136018   5.668   9.985   4.310  3.9333  1.4132  0.6307
 8363SOL    HW236019   5.722   9.951   4.160 -0.8864 -0.8158 -0.7253
 8364SOL     OW36020   0.735   5.439   6.294  0.3687 -0.1704  0.1172
 8364SOL    HW136021   0.810   5.421   6.231  0.5787 -2.5850  0.9940
 8364SOL    HW236022   0.653   5.391   6.262  0.7132 -2.1650  2.0710
 8365SOL     OW36023   1.376   8.694   3.608 -0.2376 -0.5268  0.0545
 8365SOL    HW136024   1.466   8.668   3.645  0.2301  0.1457 -0.6000
 8365SOL    HW236025   1.386   8.724   3.514 -0.7276  2.1561  0.8097
 8366SOL     OW36026   7.788   1.709   4.554 -0.0317  0.1160 -0.1755
 8366SOL    HW136027   7.688   1.716   4.555 -0.0356  0.0536 -0.1377
 8366SOL    HW236028   7.827   1.800   4.540 -0.0442  0.5186  2.1952
 8367SOL     OW36029   6.906   1.542   5.028 -0.1600 -0.1700  0.4465
 8367SOL    HW136030   6.856   1.623   5.000  1.4268  0.7109  0.0929
 8367SOL    HW236031   6.976   1.521   4.959  2.3123  0.7127  2.6131
 8368SOL     OW36032   7.137   7.317   2.697  0.1280 -0.1362 -0.1073
 8368SOL    HW136033   7.065   7.386   2.691  0.5076  0.2656 -0.0879
 8368SOL    HW236034   7.180   7.306   2.607 -0.2238 -0.6633 -0.2117
 8369SOL     OW36035   1.558   2.679   2.381 -0.0217  0.3233 -0.0444
 8369SOL    HW136036   1.587   2.725   2.298  0.1640  0.3112  0.0140
 8369SOL    HW236037   1.545   2.582   2.363  1.5920  0.0259  0.3262
 8370SOL     OW36038   7.857   1.807   4.237  0.4713 -0.4635 -0.0128
 8370SOL    HW136039   7.873   1.711   4.215  0.4893 -0.4603 -0.0137
 8370SOL    HW236040   7.759   1.827   4.233  0.2229 -1.0524  2.2822
 8371SOL     OW36041   8.746   0.515   2.523 -0.2512 -0.2147 -0.4111
 8371SOL    HW136042   8.666   0.459   2.499  0.7620 -2.1351  0.6343
 8371SOL    HW236043   8.830   0.466   2.500  0.6599  1.0735  0.0965
 8372SOL     OW36044   0.864   3.683   0.744  0.0261  0.0853  0.2347
 8372SOL    HW136045   0.915   3.713   0.664 -1.4466  2.0992 -0.0228
 8372SOL    HW236046   0.924   3.634   0.807  1.3819 -0.7830 -1.7188
 8373SOL     OW36047   3.439   7.073   3.764  0.1301  0.5942  0.5036
 8373SOL    HW136048   3.503   7.128   3.818  0.1572  0.4368  0.6314
 8373SOL    HW236049   3.485   6.991   3.731 -0.8781 -1.1818  3.3165
 8374SOL     OW36050   9.597   3.664   5.489 -0.3400 -0.0220 -0.0785
 8374SOL    HW136051   9.669   3.599   5.466 -0.7670 -0.3163 -0.5855
 8374SOL    HW236052   9.600   3.740   5.424 -0.4545 -0.0089 -0.0680
 8375SOL     OW36053   1.020   6.906   0.979 -0.2755 -0.0236  0.2414
 8375SOL    HW136054   1.098   6.957   1.017  1.7518 -2.4430 -0.5528
 8375SOL    HW236055   0.974   6.857   1.052  0.3340 -0.3918  0.3837
 8376SOL     OW36056   2.344   7.084   3.827 -0.2115  0.0198  0.2623
 8376SOL    HW136057   2.369   7.031   3.746 -2.5814  0.3470 -0.7197
 8376SOL    HW236058   2.378   7.177   3.818 -1.1005  0.2589 -0.7203
 8377SOL     OW36059   8.650   6.632   6.580  0.1750 -0.4052 -0.3388
 8377SOL    HW136060   8.695   6.712   6.539 -2.1063  2.0214  1.7155
 8377SOL    HW236061   8.717   6.578   6.631  1.4521  1.0895 -0.3968
 8378SOL     OW36062   8.614   2.214   4.063  0.2504 -0.0349  0.9445
 8378SOL    HW136063   8.615   2.294   4.003 -1.1349 -0.2811  0.5780
 8378SOL    HW236064   8.533   2.218   4.123  0.0202 -1.2990  0.7289
 8379SOL     OW36065   1.402   4.177   1.583  0.1542  0.3813 -0.4045
 8379SOL    HW136066   1.492   4.206   1.615  0.0295 -1.1215  1.3868
 8379SOL    HW236067   1.362   4.113   1.648 -1.8996  0.4297 -1.5567
 8380SOL     OW36068   1.633   4.031   1.469  0.4691  0.1624  0.3608
 8380SOL    HW136069   1.553   4.091   1.469 -0.0319 -0.5116 -0.1319
 8380SOL    HW236070   1.608   3.941   1.505  0.0807 -1.2660 -3.2746
 8381SOL     OW36071   0.797   9.504   4.351  0.3978 -0.3359  0.4495
 8381SOL    HW136072   0.715   9.454   4.376 -1.2137  0.8814 -2.1587
 8381SOL    HW236073   0.802   9.589   4.403 -2.0800  1.4201 -2.0373
 8382SOL     OW36074   7.932   0.604   1.102 -1.2288 -0.0304  0.6684
 8382SOL    HW136075   7.887   0.561   1.024 -1.0855  0.7675  0.1437
 8382SOL    HW236076   8.005   0.544   1.135 -1.7704 -0.7014  0.6596
 8383SOL     OW36077   2.310   7.162   6.518  0.4933  0.3150 -0.2028
 8383SOL    HW136078   2.329   7.124   6.608  0.5811  1.7077  0.3830
 8383SOL    HW236079   2.222   7.211   6.520  0.0690 -0.3900 -1.1118
 8384SOL     OW36080   8.300   0.672   1.363  0.0117  0.2260 -0.3860
 8384SOL    HW136081   8.234   0.727   1.313  0.1504 -0.4789 -1.3551
 8384SOL    HW236082   8.251   0.607   1.422 -0.2084 -1.9649 -2.9229
 8385SOL     OW36083   4.053   2.779   3.153  0.1601  0.4805  0.7912
 8385SOL    HW136084   4.150   2.778   3.176  0.5003 -1.4469 -0.5804
 8385SOL    HW236085   4.033   2.706   3.087 -2.3380  0.4479  1.5125
 8386SOL     OW36086   2.771   9.535   2.437  0.1734 -0.7300  0.4781
 8386SOL    HW136087   2.749   9.444   2.473  0.3808 -1.6713 -1.6976
 8386SOL    HW236088   2.694   9.570   2.383  1.1454 -0.8412 -1.0120
 8387SOL     OW36089   1.694   1.528   2.464 -0.0103  0.3414  0.5540
 8387SOL    HW136090   1.696   1.583   2.548 -1.6254  0.5655  0.4658
 8387SOL    HW236091   1.601   1.525   2.429  0.2416 -1.6358 -0.0033
 8388SOL     OW36092   2.806   5.400   5.290 -0.6031 -0.0678 -0.8219
 8388SOL    HW136093   2.763   5.424   5.377 -1.0792  0.7353 -1.2802
 8388SOL    HW236094   2.847   5.481   5.249 -1.2170 -0.2463 -1.8105
 8389SOL     OW36095   0.807   2.061   2.048 -0.5260 -0.1739 -0.6783
 8389SOL    HW136096   0.762   1.977   2.076 -1.3218  0.4061 -0.1807
 8389SOL    HW236097   0.890   2.040   1.995 -0.2658 -1.2621  0.1580
 8390SOL     OW36098   4.867   6.986   4.905  0.0598  0.0634  0.7750
 8390SOL    HW136099   4.928   6.907   4.903 -1.2452 -0.9322 -0.8591
 8390SOL    HW236100   4.920   7.068   4.930  2.3915 -0.4876 -2.0329
 8391SOL     OW36101   1.538   2.468   3.388 -0.0727 -0.2228  0.2729
 8391SOL    HW136102   1.492   2.556   3.388  1.3479  0.5402 -0.0126
 8391SOL    HW236103   1.512   2.417   3.470 -0.6495  0.5977  0.6032
 8392SOL     OW36104   1.960   8.362   2.256  0.2629 -0.2265 -0.0649
 8392SOL    HW136105   2.046   8.400   2.221  0.0844  0.6094  0.3913
 8392SOL    HW236106   1.890   8.367   2.186  0.1881  0.4738  0.0555
 8393SOL     OW36107   9.336   4.458   0.402  0.2363  0.0005  0.7538
 8393SOL    HW136108   9.356   4.487   0.495 -1.3261  0.5549  0.9341
 8393SOL    HW236109   9.421   4.456   0.349  0.9278  1.1693  1.7743
 8394SOL     OW36110   1.696   7.225   3.680 -1.1228 -0.4164  0.4120
 8394SOL    HW136111   1.711   7.308   3.733 -0.9337  0.2666 -0.6811
 8394SOL    HW236112   1.760   7.154   3.710 -2.0272 -0.5391  2.1027
 8395SOL     OW36113   7.299   7.048   4.238 -0.5907  0.8186  0.0714
 8395SOL    HW136114   7.350   7.067   4.155  0.2899  1.9632  0.8695
 8395SOL    HW236115   7.203   7.030   4.215 -0.1922  0.3847 -1.2518
 8396SOL     OW36116   8.017   0.947   0.745 -0.3017  0.1599  0.0531
 8396SOL    HW136117   7.955   1.014   0.787 -2.4523  0.6773 -3.7672
 8396SOL    HW236118   7.975   0.856   0.751 -0.0685  0.0543  0.0652
 8397SOL     OW36119   2.571   8.452   4.651 -0.0551  0.0395 -0.4782
 8397SOL    HW136120   2.561   8.537   4.703  0.3554  0.2070 -0.6713
 8397SOL    HW236121   2.538   8.376   4.706 -0.0506  0.2740 -0.1469
 8398SOL     OW36122   1.260   8.738   4.033  0.3758  0.0279  0.1836
 8398SOL    HW136123   1.350   8.780   4.042 -0.1160  1.0904  0.2142
 8398SOL    HW236124   1.190   8.800   4.067 -0.4033 -0.6792 -0.0882
 8399SOL     OW36125   1.243   1.416   2.460  0.2946 -0.4354  0.3875
 8399SOL    HW136126   1.223   1.487   2.527 -1.5154 -0.9107  0.3753
 8399SOL    HW236127   1.286   1.338   2.506 -0.7996 -0.7004  0.9807
 8400SOL     OW36128   1.800   0.288   4.777  0.1706  0.2068 -0.3037
 8400SOL    HW136129   1.719   0.238   4.749 -0.0594  0.2735  0.2387
 8400SOL    HW236130   1.847   0.324   4.697 -0.3539  0.1967 -0.6121
 8401SOL     OW36131   2.460   9.530   4.552  0.1725 -0.0149 -0.2370
 8401SOL    HW136132   2.432   9.445   4.594 -0.5997  0.2351 -0.2416
 8401SOL    HW236133   2.484   9.514   4.456 -0.1444 -0.1927 -0.2846
 8402SOL     OW36134   7.254   0.908   3.250 -0.3665  0.5539 -0.4095
 8402SOL    HW136135   7.280   0.987   3.193  1.0123  1.9315  2.0315
 8402SOL    HW236136   7.175   0.932   3.306 -1.9586 -0.9289 -1.9294
 8403SOL     OW36137   8.203   9.407   4.342  0.3902 -0.2240  0.0788
 8403SOL    HW136138   8.143   9.336   4.305  1.1678 -0.7574 -0.1895
 8403SOL    HW236139   8.298   9.384   4.321  0.5788  1.5646 -1.0979
 8404SOL     OW36140   2.306   5.821   2.715  0.0885 -0.0344 -0.0833
 8404SOL    HW136141   2.390   5.839   2.664 -0.2296 -0.2428 -0.6827
 8404SOL    HW236142   2.255   5.747   2.671 -0.4247  0.1130  0.2570
 8405SOL     OW36143   7.099   9.853   2.469  0.1114  0.2440 -0.4152
 8405SOL    HW136144   7.074   9.882   2.562 -1.2383 -1.7463 -0.1364
 8405SOL    HW236145   7.189   9.809   2.471 -0.5274 -1.0334  0.1806
 8406SOL     OW36146   9.270   2.560   5.363  0.0708 -0.6683  0.3108
 8406SOL    HW136147   9.264   2.658   5.349  1.8984 -0.5816 -0.0005
 8406SOL    HW236148   9.363   2.529   5.342 -0.3831 -2.3988  0.7651
 8407SOL     OW36149   0.617   7.598   5.713 -0.4671 -0.0134 -0.0849
 8407SOL    HW136150   0.621   7.566   5.808 -2.2216  0.9936  0.3296
 8407SOL    HW236151   0.677   7.677   5.702  1.3213 -1.3605 -0.3284
 8408SOL     OW36152   0.341   3.881   5.342 -0.2116  0.4281  0.2307
 8408SOL    HW136153   0.274   3.901   5.270  0.6177  0.4076 -0.5565
 8408SOL    HW236154   0.414   3.949   5.338 -0.3548  0.6532  1.3093
 8409SOL     OW36155   0.740   5.158   2.470  0.3532 -0.4650 -0.0789
 8409SOL    HW136156   0.831   5.157   2.511  1.1876 -1.6618 -1.9099
 8409SOL    HW236157   0.747   5.143   2.372 -1.8060 -0.2399 -0.3019
 8410SOL     OW36158   3.582   7.346   4.350  0.4196 -0.1115  0.2470
 8410SOL    HW136159   3.620   7.307   4.433  0.6648  0.3083  0.3325
 8410SOL    HW236160   3.531   7.429   4.372  0.1996 -0.1876  0.0241
 8411SOL     OW36161   8.756   8.553   1.799  0.0560  0.1786 -0.0903
 8411SOL    HW136162   8.692   8.628   1.813  0.2285  0.4881 -0.9308
 8411SOL    HW236163   8.793   8.524   1.887 -1.4964 -0.2305  0.4525
 8412SOL     OW36164   8.930   2.067   5.256 -0.1863 -0.0592 -0.0736
 8412SOL    HW136165   9.030   2.060   5.253 -0.0030  2.0087  0.0561
 8412SOL    HW236166   8.899   2.125   5.180 -0.9473  2.1372  1.8413
 8413SOL     OW36167   7.656   1.373   5.996  0.1887  0.4566  0.2528
 8413SOL    HW136168   7.703   1.430   5.929 -1.3358 -0.8320 -2.0189
 8413SOL    HW236169   7.571   1.337   5.955  0.1047 -1.7857  2.2745
 8414SOL     OW36170   2.857   7.687   2.713 -0.3440 -0.0178 -0.1748
 8414SOL    HW136171   2.821   7.609   2.662  0.0435 -0.0917 -0.3334
 8414SOL    HW236172   2.951   7.706   2.684  0.0088 -0.2828  0.7628
 8415SOL     OW36173   9.369   7.959   1.597 -0.2010 -0.1588 -0.3133
 8415SOL    HW136174   9.400   7.868   1.570  1.3247  0.2457  0.0352
 8415SOL    HW236175   9.398   8.026   1.530  0.7745  0.3942  0.6446
 8416SOL     OW36176   7.343   7.683   5.295 -0.8206  0.1573  0.3805
 8416SOL    HW136177   7.402   7.691   5.214 -0.7458 -2.1934  0.1808
 8416SOL    HW236178   7.359   7.761   5.355  0.5850  0.9017 -0.9213
 8417SOL     OW36179   6.099   7.836   2.805 -0.3301 -0.9863  0.0358
 8417SOL    HW136180   6.062   7.764   2.746 -0.3871 -1.3576  0.5150
 8417SOL    HW236181   6.186   7.868   2.768 -0.9877 -0.3121 -0.9421
 8418SOL     OW36182   4.623   0.180   1.095  0.2490 -0.2856 -0.3650
 8418SOL    HW136183   4.631   0.263   1.151 -0.6790 -0.3348 -0.1543
 8418SOL    HW236184   4.580   0.203   1.007 -1.0544 -0.7356  0.1435
 8419SOL     OW36185   8.282   7.883   3.288  0.2830 -0.3411  0.3734
 8419SOL    HW136186   8.305   7.792   3.322 -0.5996 -0.4970  0.5411
 8419SOL    HW236187   8.345   7.906   3.213  0.9865 -0.7761  0.8222
 8420SOL     OW36188   7.886   6.813   3.564  0.4249  0.4610 -0.0610
 8420SOL    HW136189   7.963   6.753   3.542 -0.1508 -0.4030  0.2600
 8420SOL    HW236190   7.877   6.822   3.663  0.1613  0.6191 -0.0970
 8421SOL     OW36191   0.128   4.852   6.404  0.0878  0.4294  0.0823
 8421SOL    HW136192   0.091   4.891   6.489 -0.8272 -2.0753  0.8815
 8421SOL    HW236193   0.053   4.820   6.346  0.8172 -0.5845 -0.3174
 8422SOL     OW36194   0.955   0.514   3.258 -0.3173  0.3407  0.0279
 8422SOL    HW136195   0.873   0.533   3.204  1.3124  1.0309 -2.3215
 8422SOL    HW236196   0.955   0.570   3.340 -2.2910  0.1609  0.1716
 8423SOL     OW36197   0.163   6.101   1.584  0.3237 -0.6909 -0.3078
 8423SOL    HW136198   0.135   6.102   1.488 -0.8822  1.0422  0.0378
 8423SOL    HW236199   0.097   6.153   1.639  1.9096 -0.2182  1.2047
 8424SOL     OW36200   4.353   4.952   2.590 -0.4685  0.3489 -0.4464
 8424SOL    HW136201   4.451   4.946   2.610 -0.6775  0.5689  0.6938
 8424SOL    HW236202   4.306   4.874   2.632 -0.7102 -0.0789 -1.4974
 8425SOL     OW36203   7.945   5.678   1.406 -0.2697 -0.3800 -0.9430
 8425SOL    HW136204   7.856   5.723   1.407 -0.1062 -0.0736 -0.1557
 8425SOL    HW236205   8.017   5.745   1.422 -0.0064 -0.8601 -0.0541
 8426SOL     OW36206   5.387   3.028   3.326 -0.6248 -0.0778 -0.2701
 8426SOL    HW136207   5.373   3.010   3.228  1.0624 -1.1804 -0.3231
 8426SOL    HW236208   5.421   2.945   3.370 -0.5604  0.6714  1.1048
 8427SOL     OW36209   8.403   0.540   0.515 -0.3311  0.1716 -0.0541
 8427SOL    HW136210   8.453   0.624   0.495  1.2429 -0.0653  2.7580
 8427SOL    HW236211   8.438   0.466   0.458 -0.5300  0.9992 -1.2766
 8428SOL     OW36212   4.993   9.210   2.891  0.1361 -0.0197  0.0352
 8428SOL    HW136213   5.026   9.122   2.924  0.8248  0.3039  0.2311
 8428SOL    HW236214   5.067   9.257   2.842  0.3209  1.1989  1.4392
 8429SOL     OW36215   0.810   2.643   3.025 -0.3759  0.6339  0.5114
 8429SOL    HW136216   0.823   2.741   3.040  0.1585  0.4202  1.4384
 8429SOL    HW236217   0.830   2.622   2.929  0.2056  1.3186  0.4756
 8430SOL     OW36218   0.779   6.187   0.555 -0.0952  0.4457 -0.1277
 8430SOL    HW136219   0.782   6.181   0.655 -0.9609  0.0336 -0.1173
 8430SOL    HW236220   0.867   6.220   0.521  0.7282 -0.8525  0.6805
 8431SOL     OW36221   3.849   4.250   1.563 -0.6487  0.3465  0.4081
 8431SOL    HW136222   3.758   4.209   1.551 -0.4683  0.2322 -0.6140
 8431SOL    HW236223   3.839   4.345   1.593 -1.1014  0.2612  0.5311
 8432SOL     OW36224   7.646   1.529   6.216  0.3211 -0.1696  0.6158
 8432SOL    HW136225   7.576   1.599   6.203 -1.3043 -1.2587  3.2245
 8432SOL    HW236226   7.639   1.461   6.143  0.6317  1.2679 -0.8071
 8433SOL     OW36227   3.921   5.185   5.244  0.0570  0.8922  0.2976
 8433SOL    HW136228   3.967   5.251   5.304 -0.5221 -0.0537  1.8256
 8433SOL    HW236229   3.834   5.159   5.284  0.4098 -1.0174 -0.1144
 8434SOL     OW36230   6.484   0.650   5.822  0.5024 -0.3378  0.1228
 8434SOL    HW136231   6.521   0.569   5.777  0.3847 -0.0164 -0.5451
 8434SOL    HW236232   6.558   0.711   5.848  0.7504 -1.4526  2.1940
 8435SOL     OW36233   8.307   6.642   2.674  0.8826 -0.1227  0.4996
 8435SOL    HW136234   8.306   6.573   2.601  0.4637  1.4555 -1.0241
 8435SOL    HW236235   8.309   6.733   2.633 -1.4285  0.8442  2.4332
 8436SOL     OW36236   9.632   1.090   3.066 -0.1525 -0.1796  0.4648
 8436SOL    HW136237   9.545   1.041   3.057 -1.2782  1.6227  1.2718
 8436SOL    HW236238   9.681   1.056   3.146 -0.4227 -0.7434  0.3923
 8437SOL     OW36239   2.413   0.294   2.130  0.4120  0.2243  0.1741
 8437SOL    HW136240   2.482   0.277   2.200 -0.0744  1.3593  0.9380
 8437SOL    HW236241   2.331   0.334   2.172 -0.6862 -0.9900 -0.7380
 8438SOL     OW36242   7.458   8.691   1.793  0.4075  0.8055  0.2535
 8438SOL    HW136243   7.523   8.621   1.821  0.0924  0.7615  0.8880
 8438SOL    HW236244   7.506   8.778   1.779  0.7970  0.4690 -0.5330
 8439SOL     OW36245   2.697   3.189   2.522  0.3517 -0.4023  0.1497
 8439SOL    HW136246   2.635   3.267   2.523  0.0941 -0.6063  0.3060
 8439SOL    HW236247   2.770   3.203   2.588  0.1431 -0.4225  0.3854
 8440SOL     OW36248   3.556   1.947   2.156  0.0387 -0.1634  0.4600
 8440SOL    HW136249   3.636   1.950   2.216 -1.2207 -0.8045  2.2061
 8440SOL    HW236250   3.510   2.035   2.156  0.3149 -0.0181  0.0457
 8441SOL     OW36251   5.771   4.653   0.741  0.0279 -0.0795  0.4067
 8441SOL    HW136252   5.750   4.573   0.796  0.2037 -0.4138 -0.0114
 8441SOL    HW236253   5.786   4.732   0.800  2.1554 -0.8576  0.9392
 8442SOL     OW36254   9.024   3.899   4.399  0.0616  0.3562  0.3132
 8442SOL    HW136255   9.053   3.931   4.489  0.9909 -0.7723  0.4302
 8442SOL    HW236256   9.041   3.800   4.391 -1.4727  0.1373 -0.5339
 8443SOL     OW36257   5.652   8.074   2.330  0.0488  0.0778 -0.7384
 8443SOL    HW136258   5.612   8.119   2.410  0.2267 -0.1583 -0.5161
 8443SOL    HW236259   5.728   8.129   2.295 -0.2897  0.3872 -0.9935
 8444SOL     OW36260   6.514   0.512   0.452  0.0857 -0.6590 -0.2457
 8444SOL    HW136261   6.612   0.492   0.444  0.1048 -0.7909  0.2874
 8444SOL    HW236262   6.481   0.549   0.366  1.0985  1.5518  0.2698
 8445SOL     OW36263   0.843   8.525   3.436  0.3566  0.7759  0.6092
 8445SOL    HW136264   0.822   8.610   3.388  1.3449  1.5588  1.5020
 8445SOL    HW236265   0.859   8.546   3.533  0.6196 -0.4259  0.8260
 8446SOL     OW36266   9.811   7.675   6.697 -0.1130  0.1902  0.0795
 8446SOL    HW136267   9.738   7.698   6.762 -0.7826 -0.0306 -0.5838
 8446SOL    HW236268   9.894   7.725   6.720 -0.6733  0.9477  0.4471
 8447SOL     OW36269   3.885   7.558   4.494 -0.0309 -0.1573 -0.3272
 8447SOL    HW136270   3.939   7.634   4.529 -1.2843  0.1218  1.0368
 8447SOL    HW236271   3.816   7.592   4.431 -2.1308  0.1596  2.0722
 8448SOL     OW36272   2.992   6.556   4.307 -0.6643  0.5399  0.4554
 8448SOL    HW136273   3.019   6.634   4.362  0.0809  1.2030 -0.8263
 8448SOL    HW236274   3.025   6.472   4.349  0.1019  1.0551  0.8898
 8449SOL     OW36275   3.809   8.297   4.346  0.2767  0.4261  0.1549
 8449SOL    HW136276   3.833   8.295   4.249  0.3655  0.6867  0.1687
 8449SOL    HW236277   3.794   8.392   4.374 -0.2994  0.3040  0.2644
 8450SOL     OW36278   7.958   6.688   2.234 -0.2671  0.2708 -0.3662
 8450SOL    HW136279   7.973   6.604   2.183  0.3930 -0.2066  0.5969
 8450SOL    HW236280   7.934   6.762   2.171  2.2676  0.1217 -1.5689
 8451SOL     OW36281   6.974   9.219   4.901 -0.0714 -0.3213 -0.0287
 8451SOL    HW136282   6.964   9.194   4.805  2.4492 -1.8959  0.0658
 8451SOL    HW236283   7.043   9.291   4.910 -0.7943  0.3081  0.5341
 8452SOL     OW36284   0.708   8.817   0.869 -0.5155  0.3098  0.0038
 8452SOL    HW136285   0.763   8.900   0.860  1.1383 -0.6006  1.3827
 8452SOL    HW236286   0.667   8.814   0.960  0.2740 -0.8743  0.3307
 8453SOL     OW36287   0.242   8.172   3.695  0.0567 -0.2035 -0.1290
 8453SOL    HW136288   0.199   8.134   3.614  0.6231 -0.0715 -0.4957
 8453SOL    HW236289   0.328   8.124   3.713  0.5361  0.5777 -0.3143
 8454SOL     OW36290   3.032   4.641   1.190  0.3198  0.3312 -0.1924
 8454SOL    HW136291   2.975   4.707   1.140  1.7978  0.7254 -1.4013
 8454SOL    HW236292   3.122   4.682   1.207  1.4633 -1.5894 -1.4882
 8455SOL     OW36293   8.636   7.742   2.980 -0.2846  0.0900  0.0856
 8455SOL    HW136294   8.718   7.726   2.926 -1.2988 -1.2281 -1.0800
 8455SOL    HW236295   8.624   7.667   3.045 -0.4154  0.4277  0.4543
 8456SOL     OW36296   8.277   0.690   5.545  0.0318  0.7285 -0.1405
 8456SOL    HW136297   8.362   0.710   5.497 -0.1036  1.1167 -0.2215
 8456SOL    HW236298   8.264   0.591   5.551  0.5593  0.6716 -0.0035
 8457SOL     OW36299   1.342   3.568   5.691 -0.4130  0.1203  0.4059
 8457SOL    HW136300   1.255   3.543   5.735  0.1505  0.1550  1.5831
 8457SOL    HW236301   1.360   3.506   5.615 -0.5533 -1.1286  1.3599
 8458SOL     OW36302   3.972   6.780   1.159 -0.2842 -0.1997  0.0256
 8458SOL    HW136303   3.945   6.844   1.230  0.7153 -2.1537  2.2164
 8458SOL    HW236304   3.899   6.772   1.091 -1.7938  0.6873  1.5350
 8459SOL     OW36305   1.986   1.078   1.447 -0.3148  0.3618  0.4328
 8459SOL    HW136306   1.987   1.078   1.547  1.1537  2.3645  0.4532
 8459SOL    HW236307   1.991   0.984   1.414  0.1228 -0.2761  2.2298
 8460SOL     OW36308   3.152   0.262   2.701  0.0005 -0.1212  0.1268
 8460SOL    HW136309   3.119   0.335   2.641  2.3996  0.2243 -0.8109
 8460SOL    HW236310   3.154   0.176   2.650 -0.6069 -0.3900  0.5504
 8461SOL     OW36311   0.389   2.785   0.598 -0.0140  0.1050  0.5505
 8461SOL    HW136312   0.461   2.717   0.599 -0.6275 -0.5669 -0.2290
 8461SOL    HW236313   0.408   2.853   0.527 -0.8342 -0.8466 -0.6086
 8462SOL     OW36314   1.121   8.755   2.853  0.4984 -0.2296 -0.1657
 8462SOL    HW136315   1.088   8.850   2.858  0.4352 -0.2049 -1.0060
 8462SOL    HW236316   1.221   8.755   2.851  0.5156 -0.2199  0.5914
 8463SOL     OW36317   6.676   0.312   5.104 -0.0398  0.3669  0.7886
 8463SOL    HW136318   6.599   0.351   5.053  2.1988  2.3130 -1.2133
 8463SOL    HW236319   6.704   0.226   5.062 -0.7607 -0.0809  1.2088
 8464SOL     OW36320   0.311   7.707   0.461 -0.0429  0.6839  0.4084
 8464SOL    HW136321   0.318   7.796   0.506  0.7495  1.2114 -0.7168
 8464SOL    HW236322   0.289   7.721   0.364 -0.2069 -0.3575  0.2932
 8465SOL     OW36323   1.999   1.455   1.567 -0.3291  0.1646  0.0831
 8465SOL    HW136324   1.910   1.410   1.569 -0.6005  0.5536 -1.9757
 8465SOL    HW236325   1.987   1.553   1.550  0.5231  0.0083 -1.5832
 8466SOL     OW36326   4.230   1.216   2.483  0.0340 -0.5751 -0.4072
 8466SOL    HW136327   4.145   1.185   2.442 -0.2297  0.9126 -1.0304
 8466SOL    HW236328   4.304   1.209   2.415 -0.1008  0.4725 -0.6725
 8467SOL     OW36329   9.944   4.377   4.960  0.4845 -0.6544 -0.3140
 8467SOL    HW136330   9.920   4.337   5.049 -2.3530  0.1694 -0.6615
 8467SOL    HW236331   9.863   4.380   4.902  1.4852  2.0578 -1.6670
 8468SOL     OW36332   0.194   8.424   2.159 -0.0899 -0.3156 -0.2280
 8468SOL    HW136333   0.171   8.438   2.256  0.8072  0.2710 -0.0956
 8468SOL    HW236334   0.293   8.421   2.149 -0.1903 -0.6400 -1.0988
 8469SOL     OW36335   1.958   0.315   3.260  0.9260 -0.3655 -0.0279
 8469SOL    HW136336   2.053   0.344   3.253  0.8587  0.2091  1.4214
 8469SOL    HW236337   1.952   0.232   3.315  0.5914 -0.4044 -0.1189
 8470SOL     OW36338   9.745   5.517   2.100  0.1606  0.0281 -0.0641
 8470SOL    HW136339   9.760   5.612   2.128  0.6881 -0.5325  1.6016
 8470SOL    HW236340   9.799   5.456   2.158  2.8985 -1.0812 -3.5509
 8471SOL     OW36341   6.860   1.403   3.417 -0.6411  0.3250  0.1087
 8471SOL    HW136342   6.814   1.325   3.373  0.5528 -0.8001  0.8242
 8471SOL    HW236343   6.912   1.454   3.348  0.5658 -0.9576  0.0410
 8472SOL     OW36344   2.632   7.115   2.148  0.4719  0.0460  0.1749
 8472SOL    HW136345   2.638   7.019   2.176 -2.0828 -0.5704 -1.1968
 8472SOL    HW236346   2.563   7.162   2.203  1.8633  1.1649  0.9823
 8473SOL     OW36347   0.848   1.433   0.782  0.2640 -0.3920  0.1000
 8473SOL    HW136348   0.762   1.480   0.798 -0.0912 -1.3611  1.1545
 8473SOL    HW236349   0.870   1.376   0.861  2.7433  1.1645  0.6103
 8474SOL     OW36350   6.985   1.261   2.601 -0.3678 -0.5037  0.6677
 8474SOL    HW136351   6.947   1.190   2.541  1.1220 -0.6245 -0.1570
 8474SOL    HW236352   6.963   1.351   2.564  2.8576 -0.5879 -1.5831
 8475SOL     OW36353   9.800   1.774   3.147  0.0308 -0.2955  0.0336
 8475SOL    HW136354   9.738   1.766   3.225  1.6287  0.4345  1.4142
 8475SOL    HW236355   9.786   1.862   3.102 -0.9038 -0.7238 -0.5237
 8476SOL     OW36356   3.368   7.491   0.377 -0.4075  0.0439  0.1236
 8476SOL    HW136357   3.436   7.562   0.391 -1.6585  1.2158  0.3764
 8476SOL    HW236358   3.278   7.524   0.407 -1.2875 -1.0727 -1.1979
 8477SOL     OW36359   4.877   2.684   4.698 -0.2898  0.0352  0.3240
 8477SOL    HW136360   4.915   2.776   4.708 -0.1413 -0.2342  2.4736
 8477SOL    HW236361   4.919   2.639   4.619  2.4971  0.4360  1.5340
 8478SOL     OW36362   8.121   0.185   2.418  0.0722  0.0120  0.5529
 8478SOL    HW136363   8.153   0.280   2.422 -1.4429  0.6039 -0.6256
 8478SOL    HW236364   8.089   0.165   2.325 -1.5223 -1.0021  1.2993
 8479SOL     OW36365   0.794   9.324   2.189 -0.0110  0.1084  0.0145
 8479SOL    HW136366   0.744   9.371   2.116  0.1196  1.1074  0.5600
 8479SOL    HW236367   0.881   9.371   2.205 -0.2328  0.1429  1.1089
 8480SOL     OW36368   6.825   9.139   3.413  0.0557 -0.1719  0.1953
 8480SOL    HW136369   6.745   9.093   3.376 -0.0131 -0.0425  0.1809
 8480SOL    HW236370   6.796   9.214   3.473  0.1380  1.1015 -1.3196
 8481SOL     OW36371   6.210   8.265   5.105  0.0674  0.8453 -0.1705
 8481SOL    HW136372   6.233   8.175   5.069 -1.6916  0.3960 -0.2448
 8481SOL    HW236373   6.224   8.335   5.034  2.0611  0.7452  0.0912
 8482SOL     OW36374   0.254   1.082   0.653 -0.0284  0.0356 -0.4066
 8482SOL    HW136375   0.187   1.100   0.725  1.0409  0.3322  0.5316
 8482SOL    HW236376   0.286   0.987   0.660  0.0027  0.0338 -0.5630
 8483SOL     OW36377   6.784   9.693   5.452 -0.3589 -0.2337 -0.2307
 8483SOL    HW136378   6.791   9.597   5.482 -2.2668 -0.0902  0.7526
 8483SOL    HW236379   6.700   9.733   5.489 -0.3511  1.3793 -1.9254
 8484SOL     OW36380   0.863   4.848   5.558  0.5858  0.1524  0.7265
 8484SOL    HW136381   0.956   4.835   5.592  1.1326  0.4615 -0.6237
 8484SOL    HW236382   0.866   4.886   5.466 -0.8160 -3.3674 -0.8461
 8485SOL     OW36383   1.194   2.772   2.854 -0.3086  0.2371  0.1940
 8485SOL    HW136384   1.115   2.740   2.801 -1.1661  3.7158 -0.7724
 8485SOL    HW236385   1.255   2.695   2.873 -1.8422 -1.7620 -2.6356
 8486SOL     OW36386   7.957   8.033   4.766 -0.0144  0.0336  0.3960
 8486SOL    HW136387   7.907   8.093   4.703 -0.1470  0.8945  1.3237
 8486SOL    HW236388   8.054   8.036   4.745  0.2523  2.3025  1.8715
 8487SOL     OW36389   1.496   7.573   1.621 -0.1827 -0.1685  0.1198
 8487SOL    HW136390   1.432   7.603   1.691 -1.0096 -2.9844  0.6104
 8487SOL    HW236391   1.448   7.563   1.534  0.6776  2.5363 -0.7236
 8488SOL     OW36392   4.309   5.884   1.160 -0.1411 -0.2838  0.2313
 8488SOL    HW136393   4.271   5.963   1.112  0.0960  0.7919  1.7715
 8488SOL    HW236394   4.408   5.895   1.169 -0.1234 -0.6986  0.5543
 8489SOL     OW36395   4.667   0.390   4.241 -0.8926  0.3027  0.3221
 8489SOL    HW136396   4.724   0.469   4.260 -1.2536 -0.0703  3.2304
 8489SOL    HW236397   4.571   0.413   4.257 -1.0524 -0.5318  0.6115
 8490SOL     OW36398   0.262   6.262   4.365 -0.2931 -0.2801 -0.3633
 8490SOL    HW136399   0.355   6.279   4.399 -0.3715 -2.7993  1.1893
 8490SOL    HW236400   0.259   6.175   4.317 -1.5851  0.4282 -1.6234
 8491SOL     OW36401   8.747   5.581   5.087  0.1923  0.1141 -0.2732
 8491SOL    HW136402   8.816   5.648   5.116 -0.6885  0.6520  0.6150
 8491SOL    HW236403   8.735   5.587   4.988  0.4737  0.9439 -0.2624
 8492SOL     OW36404   8.745   4.204   2.522  0.0729  0.3201 -0.2743
 8492SOL    HW136405   8.743   4.296   2.563  0.8277  0.5954 -0.8485
 8492SOL    HW236406   8.768   4.211   2.425 -1.8659 -0.3256 -0.8061
 8493SOL     OW36407   4.745   4.692   3.060  0.0375  0.1490 -0.2508
 8493SOL    HW136408   4.691   4.738   2.989 -0.0676 -0.8476 -0.8206
 8493SOL    HW236409   4.820   4.752   3.088 -1.0754  1.3648  0.2135
 8494SOL     OW36410   1.507   4.678   2.783  0.2262  0.1122  0.6137
 8494SOL    HW136411   1.488   4.688   2.881  2.5742 -0.1129  1.1313
 8494SOL    HW236412   1.495   4.766   2.738 -0.8001  0.2382  1.0996
 8495SOL     OW36413   9.699   3.805   5.006  0.1598 -0.6325 -0.1952
 8495SOL    HW136414   9.641   3.838   4.931 -1.3795 -0.1206  1.1893
 8495SOL    HW236415   9.711   3.879   5.073  1.0756 -1.2538  0.3250
 8496SOL     OW36416   8.061   4.273   0.750  0.9847  0.4483 -0.1021
 8496SOL    HW136417   8.044   4.246   0.656  0.9894 -0.9821  0.3031
 8496SOL    HW236418   8.140   4.224   0.786 -0.2085 -0.4943  1.2701
 8497SOL     OW36419   0.225   3.086   5.384 -0.4182  0.1621 -0.1610
 8497SOL    HW136420   0.184   3.078   5.474 -1.6965  1.8074 -0.5754
 8497SOL    HW236421   0.157   3.118   5.318  0.4156 -1.3368 -1.7838
 8498SOL     OW36422   7.187   7.212   3.968  0.0100 -0.2374 -0.2335
 8498SOL    HW136423   7.271   7.162   3.988  0.3888  0.5351  0.1195
 8498SOL    HW236424   7.120   7.150   3.928  0.5676 -0.9694 -0.0346
 8499SOL     OW36425   3.892   0.098   2.800  0.2898 -0.2265 -0.0510
 8499SOL    HW136426   3.865   0.067   2.892  1.1559 -0.8678 -0.0153
 8499SOL    HW236427   3.970   0.160   2.807 -0.9729  1.4406 -0.1832
 8500SOL     OW36428   5.263   1.890   1.631  0.7670 -0.7851  0.2274
 8500SOL    HW136429   5.312   1.973   1.660  1.5832 -0.7673 -1.1585
 8500SOL    HW236430   5.243   1.833   1.711  1.8143 -0.1225  0.9680
 8501SOL     OW36431   1.605   4.302   0.766 -0.2452  0.4476 -0.0843
 8501SOL    HW136432   1.625   4.305   0.668 -0.3112 -1.8921 -0.2092
 8501SOL    HW236433   1.509   4.279   0.781 -0.3783  1.3723  0.5348
 8502SOL     OW36434   3.353   9.078   3.311  0.3179 -0.0492  0.7058
 8502SOL    HW136435   3.440   9.049   3.271  0.1716  1.6685 -0.9318
 8502SOL    HW236436   3.287   9.004   3.306  1.3035 -0.9397  0.7960
 8503SOL     OW36437   0.416   5.853   2.935 -0.2528  0.0525  0.7376
 8503SOL    HW136438   0.405   5.939   2.885  0.2486  0.3958  1.2090
 8503SOL    HW236439   0.354   5.785   2.898 -0.3221  0.4835  0.0526
 8504SOL     OW36440   5.122   4.069   1.789 -0.0728  0.0761 -0.2181
 8504SOL    HW136441   5.079   3.982   1.812 -1.1497  1.0195  1.3587
 8504SOL    HW236442   5.067   4.116   1.719  0.0393 -0.1211 -0.4369
 8505SOL     OW36443   2.964   3.353   3.029  0.0131 -0.4146  0.1697
 8505SOL    HW136444   3.013   3.428   2.984  0.6845  0.1173  1.7255
 8505SOL    HW236445   2.912   3.301   2.961 -0.9908  1.8626 -0.8524
 8506SOL     OW36446   3.424   0.039   4.555  0.2724  0.1636 -0.6688
 8506SOL    HW136447   3.344  -0.021   4.551 -1.4403  2.3578 -0.0544
 8506SOL    HW236448   3.446   0.059   4.651  2.2391 -1.2647 -0.7845
 8507SOL     OW36449   2.403   4.916   3.666 -0.1695  0.1862  0.3779
 8507SOL    HW136450   2.496   4.884   3.678  0.1350  0.8589 -0.1731
 8507SOL    HW236451   2.370   4.957   3.751 -0.8773 -2.3435  1.3759
 8508SOL     OW36452   2.226   3.688   6.169  0.8991 -0.4392 -0.2758
 8508SOL    HW136453   2.139   3.661   6.210 -0.1600  2.3050 -0.5717
 8508SOL    HW236454   2.222   3.675   6.070  1.1654 -1.1769 -0.1900
 8509SOL     OW36455   8.337   5.869   0.370 -0.2029  0.2953 -0.7911
 8509SOL    HW136456   8.399   5.947   0.378 -0.5457  0.5187 -0.2661
 8509SOL    HW236457   8.317   5.832   0.461  0.3558 -0.7246 -1.0802
 8510SOL     OW36458   7.334   3.025   1.045 -0.3198  0.0125 -0.2529
 8510SOL    HW136459   7.376   3.060   1.128  0.7153  0.3360 -0.8983
 8510SOL    HW236460   7.360   2.930   1.031  0.5501  0.3350 -0.8704
 8511SOL     OW36461   5.122   6.740   1.994  0.3934  0.0381  0.2071
 8511SOL    HW136462   5.133   6.651   2.038  0.9035  0.1147  0.2317
 8511SOL    HW236463   5.127   6.812   2.063 -1.3969  0.0162  0.3835
 8512SOL     OW36464   2.108   2.196   1.011  0.3468  0.0645  0.4159
 8512SOL    HW136465   2.161   2.119   0.975  0.8544 -0.1470  1.5987
 8512SOL    HW236466   2.171   2.265   1.047 -0.1746 -0.5080  2.4904
 8513SOL     OW36467   9.058   7.504   0.554  0.0993 -0.3855  0.3990
 8513SOL    HW136468   9.074   7.600   0.531 -0.2414 -0.8166 -1.6896
 8513SOL    HW236469   8.960   7.485   0.555  0.1704 -0.7619  0.5486
 8514SOL     OW36470   4.123   7.996   3.973  0.0218 -0.3213 -0.0407
 8514SOL    HW136471   4.070   7.963   3.895  0.0527 -0.5003  0.0129
 8514SOL    HW236472   4.066   8.054   4.030  0.3409  0.7912 -0.8410
 8515SOL     OW36473   7.585   8.052   4.281 -0.1390  0.4058  0.2590
 8515SOL    HW136474   7.685   8.053   4.284 -0.0107 -0.6428 -2.2586
 8515SOL    HW236475   7.549   8.058   4.374  2.2482  1.0019  1.1971
 8516SOL     OW36476   3.534   5.154   0.594  0.4573 -0.5653 -0.1492
 8516SOL    HW136477   3.556   5.245   0.630 -0.8803 -0.4706  0.4269
 8516SOL    HW236478   3.552   5.085   0.664 -0.1870 -0.5806 -0.0030
 8517SOL     OW36479   8.218   3.941   2.761 -0.1432  0.0856  0.1798
 8517SOL    HW136480   8.188   3.956   2.667 -1.5174 -2.5317  0.1465
 8517SOL    HW236481   8.308   3.984   2.775  0.3165  0.0661 -2.4650
 8518SOL     OW36482   7.275   2.132   1.057 -0.4706  0.0827  0.4283
 8518SOL    HW136483   7.258   2.223   1.020 -1.3289 -0.0507  0.4885
 8518SOL    HW236484   7.316   2.140   1.148 -2.7971  0.4255  1.4824
 8519SOL     OW36485   4.535   0.666   4.010  0.1372  0.8153  0.1048
 8519SOL    HW136486   4.448   0.636   4.050 -0.0053  2.9759  1.4604
 8519SOL    HW236487   4.518   0.706   3.920  0.1031 -1.3632 -0.8923
 8520SOL     OW36488   3.009   8.356   0.929  0.0950 -0.7137  0.8060
 8520SOL    HW136489   3.109   8.364   0.922  0.2070 -2.1286  0.5099
 8520SOL    HW236490   2.972   8.438   0.972  1.3343  0.0522  0.4583
 8521SOL     OW36491   2.258   7.681   2.354  0.4577 -0.2190  0.2756
 8521SOL    HW136492   2.242   7.726   2.266  1.6279  1.1531  0.7459
 8521SOL    HW236493   2.201   7.724   2.424  1.9106  0.8959  0.8162
 8522SOL     OW36494   4.560   0.361   4.643  0.0459  0.0892  0.0651
 8522SOL    HW136495   4.571   0.284   4.580 -0.0601 -0.7061  1.0017
 8522SOL    HW236496   4.466   0.395   4.638  0.3233  0.7077 -0.9669
 8523SOL     OW36497   6.266   8.073   3.694  0.5966 -0.1158  0.7690
 8523SOL    HW136498   6.322   8.095   3.614 -0.8519  2.4046  0.4095
 8523SOL    HW236499   6.251   8.156   3.748 -0.4403 -1.3291  2.3762
 8524SOL     OW36500   0.581   1.883   1.219 -0.5888 -0.3420 -0.4994
 8524SOL    HW136501   0.604   1.922   1.130 -0.0352  0.3978 -0.0366
 8524SOL    HW236502   0.533   1.951   1.274 -0.2556 -0.5535  0.0503
 8525SOL     OW36503   8.097   2.193   0.977  0.0552  0.3595 -0.7272
 8525SOL    HW136504   8.041   2.229   0.902 -1.6417 -0.6788 -0.0059
 8525SOL    HW236505   8.171   2.256   0.997 -1.9392  2.7145 -0.5167
 8526SOL     OW36506   8.110   3.549   2.439  0.4287  0.1734  0.0428
 8526SOL    HW136507   8.144   3.616   2.372  0.0589  0.1667 -0.1505
 8526SOL    HW236508   8.183   3.485   2.462  0.8472  0.7662  0.3786
 8527SOL     OW36509   1.049   5.507   6.387 -0.1348 -0.3119 -0.5358
 8527SOL    HW136510   1.048   5.452   6.304  0.6559  1.3574 -1.6861
 8527SOL    HW236511   0.956   5.518   6.422 -0.6541  0.2254 -2.0567
 8528SOL     OW36512   9.898   1.599   4.819  0.6790  0.4046 -0.3295
 8528SOL    HW136513   9.842   1.664   4.869 -1.6098 -0.7731 -1.2598
 8528SOL    HW236514   9.926   1.524   4.879  0.2463  0.3947 -0.1409
 8529SOL     OW36515   7.653   0.567   1.235 -0.7513 -0.7060 -0.1172
 8529SOL    HW136516   7.691   0.587   1.325 -0.9591  1.1352 -0.4340
 8529SOL    HW236517   7.727   0.567   1.167 -1.2125  2.6833 -0.7018
 8530SOL     OW36518   0.484   6.454   6.648  0.3776 -0.1587 -0.1720
 8530SOL    HW136519   0.577   6.418   6.656 -0.2229 -1.0966  3.7547
 8530SOL    HW236520   0.484   6.536   6.590  3.3800 -0.9256 -1.3341
 8531SOL     OW36521   8.060   0.415   2.689 -0.2885 -0.6901  0.0865
 8531SOL    HW136522   8.137   0.397   2.750  0.7059  0.1360 -0.9095
 8531SOL    HW236523   8.086   0.483   2.620 -2.4339  0.9224  0.7786
 8532SOL     OW36524   4.504   7.652   3.063 -0.5288 -1.1677  0.0093
 8532SOL    HW136525   4.602   7.634   3.056 -0.0968  1.0004  0.1890
 8532SOL    HW236526   4.482   7.678   3.157 -0.8713  0.6072 -0.5549
 8533SOL     OW36527   7.292   1.232   4.022 -0.0713 -0.0357 -0.1525
 8533SOL    HW136528   7.265   1.325   4.045 -0.7939 -0.6303  1.4529
 8533SOL    HW236529   7.241   1.200   3.943 -1.9650 -0.0959  1.0670
 8534SOL     OW36530   1.273   1.655   1.411 -0.8080 -0.0763  0.1588
 8534SOL    HW136531   1.356   1.665   1.356 -1.8958 -1.7625 -1.8674
 8534SOL    HW236532   1.219   1.740   1.404 -0.3320  0.1886 -0.3674
 8535SOL     OW36533   9.181   0.118   1.280 -0.5188 -0.3723  0.4097
 8535SOL    HW136534   9.137   0.170   1.353 -0.2851 -0.3971  0.5693
 8535SOL    HW236535   9.118   0.049   1.245 -0.2075 -1.1994  1.4462
 8536SOL     OW36536   0.080   4.288   6.648 -0.3493  0.2363  0.3593
 8536SOL    HW136537   0.094   4.297   6.747  0.6001 -1.1654  0.3554
 8536SOL    HW236538   0.034   4.202   6.629 -0.6410  0.5653 -0.4189
 8537SOL     OW36539   4.553   2.057   4.369  0.0297  0.0656  0.7232
 8537SOL    HW136540   4.569   2.024   4.462  1.7403  0.1814  0.4740
 8537SOL    HW236541   4.597   2.146   4.357 -2.1883  1.1653  0.5195
 8538SOL     OW36542   2.444   1.946   3.418  0.2962  0.2529 -0.6294
 8538SOL    HW136543   2.429   1.941   3.517 -0.2326 -1.0771 -0.7644
 8538SOL    HW236544   2.532   1.905   3.395  0.1435 -0.0052 -0.7652
 8539SOL     OW36545   3.392   5.494   1.494  0.6134 -0.4954  0.1605
 8539SOL    HW136546   3.416   5.412   1.441  0.1552  0.2478 -1.2222
 8539SOL    HW236547   3.355   5.563   1.433 -0.3470  0.2237  1.5302
 8540SOL     OW36548   0.827   4.226   4.662 -0.6564 -0.3536 -0.4806
 8540SOL    HW136549   0.876   4.263   4.740  0.2242 -0.0134 -1.1924
 8540SOL    HW236550   0.781   4.141   4.689  2.2566 -1.9712 -0.3855
 8541SOL     OW36551   8.309   6.656   5.121  0.5342  0.5475 -0.5966
 8541SOL    HW136552   8.305   6.557   5.135 -1.5135  0.8877  1.4958
 8541SOL    HW236553   8.382   6.677   5.055  1.0225 -2.3225 -1.0624
 8542SOL     OW36554   9.045   8.588   4.708 -0.1130  0.2051 -0.2584
 8542SOL    HW136555   9.144   8.604   4.708  0.2626 -1.9946  0.0369
 8542SOL    HW236556   9.010   8.596   4.801  0.2240 -1.4551  0.0282
 8543SOL     OW36557   9.984   3.314   0.277 -0.1780  0.1880  0.2864
 8543SOL    HW136558  10.013   3.409   0.288  1.3215 -0.2907  0.5383
 8543SOL    HW236559  10.044   3.269   0.210 -0.8966 -0.5732  0.1523
 8544SOL     OW36560   9.865   5.557   2.881 -0.0758  0.2710  0.3566
 8544SOL    HW136561   9.931   5.632   2.879 -1.1667  1.2324 -0.9004
 8544SOL    HW236562   9.776   5.592   2.911 -0.0473 -0.9863  1.9471
 8545SOL     OW36563   4.931   1.597   4.402  0.3996  0.2399 -0.7399
 8545SOL    HW136564   4.987   1.667   4.446 -0.0154  0.1275 -0.0224
 8545SOL    HW236565   4.899   1.631   4.313  0.0422  1.0383 -0.3132
 8546SOL     OW36566   5.342   0.464   4.481  0.3579 -0.5868  0.0273
 8546SOL    HW136567   5.359   0.471   4.579 -3.0250  0.6447  0.6001
 8546SOL    HW236568   5.336   0.556   4.442 -4.7917 -0.7673  0.0102
 8547SOL     OW36569   2.607   9.748   4.034  0.0438  0.0386  0.0327
 8547SOL    HW136570   2.662   9.820   3.991  0.2217  0.6777  1.3227
 8547SOL    HW236571   2.650   9.659   4.018  0.8764  0.4235  0.1395
 8548SOL     OW36572   2.025   8.252   2.884 -0.1268  0.0045  0.0361
 8548SOL    HW136573   2.077   8.189   2.826 -2.5794 -1.6436 -0.4177
 8548SOL    HW236574   2.063   8.344   2.875  0.4431 -0.4963 -3.0741
 8549SOL     OW36575   0.158   1.645   3.963 -0.4840 -0.4043  0.0385
 8549SOL    HW136576   0.198   1.595   4.040 -1.2401 -0.1977  0.5792
 8549SOL    HW236577   0.203   1.618   3.878  1.5759  0.6620  0.7522
 8550SOL     OW36578   7.590   8.930   1.717  0.0478 -0.3325 -0.2858
 8550SOL    HW136579   7.655   8.956   1.788  0.4897 -1.1764 -0.3831
 8550SOL    HW236580   7.639   8.887   1.640 -0.3322  1.1984 -1.4144
 8551SOL     OW36581   2.699   2.418   3.457 -0.1260 -0.2270  0.1452
 8551SOL    HW136582   2.707   2.471   3.372 -0.5765  0.6066  0.6085
 8551SOL    HW236583   2.656   2.475   3.527  2.2488 -0.1345  1.5927
 8552SOL     OW36584   4.483   4.444   1.637 -0.5909 -0.0559 -0.0772
 8552SOL    HW136585   4.501   4.416   1.543 -0.4047 -0.2878  0.0295
 8552SOL    HW236586   4.388   4.475   1.644 -0.8765 -0.9136 -0.1247
 8553SOL     OW36587   1.752   6.847   3.477  0.1135  0.5206 -0.2177
 8553SOL    HW136588   1.847   6.820   3.462  0.2804  1.4672 -0.8909
 8553SOL    HW236589   1.695   6.816   3.401  0.1874  1.4516 -0.6588
 8554SOL     OW36590   6.358   9.243   5.082  0.0158  0.2484  0.3535
 8554SOL    HW136591   6.453   9.212   5.077 -0.5395 -1.5216  0.5002
 8554SOL    HW236592   6.313   9.200   5.161 -0.8247  1.3150  0.4645
 8555SOL     OW36593   0.714   3.078   6.553 -0.2001  0.1362  0.7700
 8555SOL    HW136594   0.764   3.002   6.596  1.3986  1.0635  0.6147
 8555SOL    HW236595   0.669   3.132   6.623 -0.6388 -0.4754  0.9590
 8556SOL     OW36596   3.581   0.416   2.695  0.4521 -0.1495 -0.0748
 8556SOL    HW136597   3.499   0.465   2.664  0.9889  1.3752  0.8468
 8556SOL    HW236598   3.592   0.430   2.794  1.4628 -0.8952 -0.0819
 8557SOL     OW36599   0.808   0.160   4.004  0.1355 -0.2883 -0.0496
 8557SOL    HW136600   0.836   0.221   3.930 -1.2193 -0.7794 -0.9923
 8557SOL    HW236601   0.768   0.214   4.078  2.4701  0.3055  0.8213
 8558SOL     OW36602   7.870   0.046   0.278  0.3482 -0.3022 -0.2283
 8558SOL    HW136603   7.823   0.134   0.289  0.6540 -0.1036 -0.4747
 8558SOL    HW236604   7.856   0.012   0.185  0.8165 -0.1656 -0.3492
 8559SOL     OW36605   9.576   4.115   3.280  0.0878 -0.1830  0.1548
 8559SOL    HW136606   9.640   4.193   3.278  1.2743 -1.1502 -0.2008
 8559SOL    HW236607   9.619   4.036   3.238 -1.0967 -1.0628  0.5742
 8560SOL     OW36608   0.569   4.321   4.275 -0.2869 -0.0757  0.0250
 8560SOL    HW136609   0.616   4.243   4.234 -1.7787 -0.0600 -1.7606
 8560SOL    HW236610   0.637   4.383   4.316  1.0877 -1.0001 -0.8148
 8561SOL     OW36611   8.900   6.911   2.906 -0.6470  0.1623  0.4407
 8561SOL    HW136612   8.967   6.864   2.848 -0.1389  0.1536  1.0277
 8561SOL    HW236613   8.833   6.844   2.940 -0.9879  0.1789 -0.1914
 8562SOL     OW36614   5.408   8.986   3.821  0.1800 -0.3918  0.0257
 8562SOL    HW136615   5.351   8.960   3.899  2.7417 -1.5215  1.5721
 8562SOL    HW236616   5.464   9.065   3.845 -1.0288  1.0073 -1.6439
 8563SOL     OW36617   1.356   5.398   5.170 -0.0662 -0.1626 -0.0860
 8563SOL    HW136618   1.374   5.454   5.089  2.4450 -2.2177 -1.0228
 8563SOL    HW236619   1.423   5.420   5.241 -0.7286 -0.1235  0.5340
 8564SOL     OW36620   1.706   9.130   4.804  0.1346 -0.0132  0.1950
 8564SOL    HW136621   1.800   9.131   4.837  0.0396 -1.3876  0.5395
 8564SOL    HW236622   1.659   9.213   4.835  1.0402  0.3660  0.5679
 8565SOL     OW36623   3.240   8.210   1.160  0.3947 -0.0920 -0.1115
 8565SOL    HW136624   3.314   8.203   1.093 -1.7856 -0.7297 -2.5242
 8565SOL    HW236625   3.204   8.118   1.179  1.2842  0.0382  2.2983
 8566SOL     OW36626   0.385   9.938   4.801 -0.0954 -0.3845  0.0306
 8566SOL    HW136627   0.485   9.943   4.803 -0.0462 -1.1922 -0.1655
 8566SOL    HW236628   0.347  10.025   4.833  0.6697 -0.6494  1.7118
 8567SOL     OW36629   8.950   6.033   2.759 -0.4532 -1.0570 -0.1740
 8567SOL    HW136630   8.957   6.133   2.762  0.4914 -1.1183 -0.1203
 8567SOL    HW236631   9.029   5.993   2.805 -2.4851 -1.8257  2.7814
 8568SOL     OW36632   3.673   5.939   1.951  0.0705  0.2556  0.6236
 8568SOL    HW136633   3.645   6.025   1.907 -0.1600  0.1643  0.5927
 8568SOL    HW236634   3.603   5.870   1.936 -0.3924  0.4512  1.8223
 8569SOL     OW36635   7.776   1.101   1.801  0.4185  0.2937  0.7186
 8569SOL    HW136636   7.836   1.151   1.739  1.4648 -0.8854  0.7665
 8569SOL    HW236637   7.689   1.150   1.809  0.8879  1.3383 -0.3559
 8570SOL     OW36638   4.891   4.041   4.382  0.1174 -0.0150 -0.5579
 8570SOL    HW136639   4.898   4.115   4.315  0.1196  0.7899  0.3150
 8570SOL    HW236640   4.934   3.959   4.346 -0.3750  0.2547 -1.7618
 8571SOL     OW36641   2.863   6.329   3.948  0.3012 -0.3593 -0.4960
 8571SOL    HW136642   2.919   6.248   3.927 -0.2862 -0.7920 -0.3997
 8571SOL    HW236643   2.768   6.301   3.959 -0.0555  0.4884 -1.3998
 8572SOL     OW36644   0.887   9.651   1.267 -0.2392 -0.2850  0.1225
 8572SOL    HW136645   0.804   9.707   1.260 -0.1595  0.1087  2.2398
 8572SOL    HW236646   0.866   9.557   1.241 -1.1384  0.0131 -0.2452
 8573SOL     OW36647   9.100   4.580   5.681  0.1008  0.2830  0.3141
 8573SOL    HW136648   9.146   4.540   5.761  1.3237  0.6567 -0.1820
 8573SOL    HW236649   9.149   4.662   5.653  0.8166 -0.8661 -1.9336
 8574SOL     OW36650   2.198   6.185   4.871 -0.2733 -0.0222  0.1871
 8574SOL    HW136651   2.265   6.129   4.823 -0.4672  0.4768 -0.6682
 8574SOL    HW236652   2.244   6.237   4.943  0.0655 -0.5417  0.3479
 8575SOL     OW36653   0.866   4.617   4.982 -0.2660 -0.6870 -0.0202
 8575SOL    HW136654   0.782   4.563   4.976 -1.8527  1.6733  0.2580
 8575SOL    HW236655   0.925   4.596   4.904 -1.2714 -2.0812 -0.4279
 8576SOL     OW36656   5.725   9.521   2.050 -0.9705 -0.6045  0.4278
 8576SOL    HW136657   5.803   9.571   2.013 -1.6492  0.1861  0.0422
 8576SOL    HW236658   5.649   9.584   2.065 -1.3912 -1.2899  1.2169
 8577SOL     OW36659   4.529   2.321   4.601 -0.1554 -0.1625  0.2348
 8577SOL    HW136660   4.534   2.228   4.638  0.8150  0.3689  1.4688
 8577SOL    HW236661   4.444   2.365   4.630 -0.0564 -0.2433  0.6415
 8578SOL     OW36662   1.471   7.072   3.431 -0.3527  0.0038 -0.2564
 8578SOL    HW136663   1.568   7.091   3.422 -0.2292 -0.4477  0.1501
 8578SOL    HW236664   1.444   7.074   3.527 -0.5446 -0.8564 -0.2894
 8579SOL     OW36665   4.207   7.901   4.278 -0.2381  0.1075  0.4841
 8579SOL    HW136666   4.186   7.947   4.364  0.9492 -0.9879  1.3726
 8579SOL    HW236667   4.302   7.918   4.253 -0.7195  0.8291 -0.8747
 8580SOL     OW36668   7.238   0.613   3.590 -0.1956  0.6804  0.2122
 8580SOL    HW136669   7.337   0.628   3.591 -0.2577  1.0711  1.7260
 8580SOL    HW236670   7.214   0.548   3.661 -0.9964  0.3830 -0.3363
 8581SOL     OW36671   1.630   4.177   2.054 -0.1392 -0.3812 -0.7169
 8581SOL    HW136672   1.657   4.214   2.143 -0.6368  1.1300 -1.1882
 8581SOL    HW236673   1.692   4.102   2.030  0.2586 -0.5339  0.6997
 8582SOL     OW36674   7.459   7.318   5.371 -0.3649 -0.3997 -0.0301
 8582SOL    HW136675   7.520   7.390   5.405  0.1696 -0.9299  0.1389
 8582SOL    HW236676   7.513   7.247   5.326 -0.7358 -1.4834  1.2084
 8583SOL     OW36677   1.918   6.251   5.628 -0.3873  0.0214 -0.0627
 8583SOL    HW136678   1.978   6.183   5.671  0.2990  0.0245 -1.0036
 8583SOL    HW236679   1.913   6.234   5.530  0.5732  1.8929 -0.4705
 8584SOL     OW36680   0.008   0.588   0.897 -0.3438  0.2192 -0.3500
 8584SOL    HW136681   0.051   0.549   0.815  1.4349 -0.0658  0.6977
 8584SOL    HW236682  -0.026   0.514   0.955  0.5037  0.3188  0.2847
 8585SOL     OW36683   9.574   4.825   5.931  0.2350  0.1313 -0.3675
 8585SOL    HW136684   9.558   4.900   5.868 -1.9213  0.7339  0.8369
 8585SOL    HW236685   9.556   4.855   6.025 -2.3710 -2.2722 -0.0069
 8586SOL     OW36686   6.097   9.098   5.225 -0.0554 -0.1444  0.1731
 8586SOL    HW136687   6.034   9.032   5.185 -0.0323 -0.4757  0.6720
 8586SOL    HW236688   6.060   9.190   5.215 -1.8909 -0.5431  2.7276
 8587SOL     OW36689   7.466   9.031   4.930 -0.5978  0.7249  0.3318
 8587SOL    HW136690   7.395   9.059   4.994 -1.4513  0.4399 -0.4723
 8587SOL    HW236691   7.555   9.057   4.966 -0.9598 -0.4917  2.2002
 8588SOL     OW36692   9.224   4.767   4.693  0.0753  0.1267 -0.2235
 8588SOL    HW136693   9.210   4.767   4.595  1.0030 -0.4911 -0.3685
 8588SOL    HW236694   9.174   4.691   4.734 -0.2091  0.3077 -0.2405
 8589SOL     OW36695   7.188   8.126   3.116  0.2028  0.2764 -0.6677
 8589SOL    HW136696   7.100   8.111   3.162  0.7078 -2.2067 -0.4394
 8589SOL    HW236697   7.207   8.049   3.055  4.2180 -1.4679  2.5236
 8590SOL     OW36698   3.114   6.055   2.708 -0.1446  0.5681  0.0871
 8590SOL    HW136699   3.048   6.037   2.635 -1.3930 -1.2650  1.6103
 8590SOL    HW236700   3.094   6.144   2.749  0.1069  1.2771 -1.3041
 8591SOL     OW36701   0.628   6.822   1.338  0.0737  0.2395 -0.2763
 8591SOL    HW136702   0.538   6.814   1.295  0.1583 -1.7640 -0.1211
 8591SOL    HW236703   0.616   6.835   1.437 -0.0381 -1.4712 -0.0555
 8592SOL     OW36704   9.125   7.506   4.025 -0.1565  0.3124 -0.2870
 8592SOL    HW136705   9.136   7.426   4.084 -0.4921 -0.5289 -1.3528
 8592SOL    HW236706   9.145   7.481   3.930  4.2264  2.5536 -0.0780
 8593SOL     OW36707   9.482   8.285   4.089  0.0673 -0.2112 -0.1027
 8593SOL    HW136708   9.491   8.186   4.103  0.2534 -0.3383 -1.0635
 8593SOL    HW236709   9.428   8.324   4.164  1.4704 -0.7542  1.2253
 8594SOL     OW36710   1.784   5.270   6.186 -0.6542  0.1330  0.2267
 8594SOL    HW136711   1.824   5.181   6.165 -2.3323 -0.8378  1.0740
 8594SOL    HW236712   1.799   5.292   6.282  2.3728  2.1696 -0.6387
 8595SOL     OW36713   2.047   1.641   4.220  0.0124 -0.2753 -0.1234
 8595SOL    HW136714   1.984   1.667   4.147 -0.0607 -0.9224 -0.2988
 8595SOL    HW236715   2.140   1.636   4.183  0.1755  0.7096  0.1424
 8596SOL     OW36716   0.566   7.860   2.895  0.2577  0.0446  0.2672
 8596SOL    HW136717   0.597   7.830   2.804 -2.0489 -0.9113 -0.2253
 8596SOL    HW236718   0.623   7.817   2.965 -0.9158 -2.9814 -0.5726
 8597SOL     OW36719   0.034   2.509   3.995 -0.0053 -0.1292  0.2037
 8597SOL    HW136720  -0.017   2.573   4.052 -1.3536 -0.9345 -0.0578
 8597SOL    HW236721  -0.018   2.490   3.911  1.8408  0.8683 -1.1989
 8598SOL     OW36722   9.526   4.701   2.156  0.2299 -0.5214  0.3879
 8598SOL    HW136723   9.541   4.688   2.058  3.1138 -2.7470  1.1050
 8598SOL    HW236724   9.526   4.613   2.203  0.2098  0.6192  2.6098
 8599SOL     OW36725   2.421   8.737   3.837  0.4299  0.3085  0.0884
 8599SOL    HW136726   2.346   8.801   3.853  0.5541 -0.1407  2.6503
 8599SOL    HW236727   2.503   8.788   3.810 -0.4597  0.8869 -1.6412
 8600SOL     OW36728   5.285   1.420   0.739  0.3552  0.6181  0.1224
 8600SOL    HW136729   5.231   1.500   0.762  0.5046  0.9766 -0.7515
 8600SOL    HW236730   5.256   1.384   0.650  0.3726 -0.2165  0.4527
 8601SOL     OW36731   1.044   2.998   4.870 -0.5570  0.2113 -0.2527
 8601SOL    HW136732   1.087   2.923   4.820 -0.3044  0.7092 -0.7868
 8601SOL    HW236733   1.105   3.077   4.870 -2.5070  1.8190 -3.2927
 8602SOL     OW36734   3.789   4.952   2.590  0.3672  0.9068 -0.5413
 8602SOL    HW136735   3.708   4.932   2.646  0.8864 -0.9869 -0.4552
 8602SOL    HW236736   3.851   5.011   2.641  0.2800  0.1662  0.4438
 8603SOL     OW36737   9.907   0.867   3.033 -0.4219  0.1471 -0.5872
 8603SOL    HW136738   9.868   0.825   2.951 -0.1612  1.3139 -1.3095
 8603SOL    HW236739   9.969   0.801   3.077 -2.3799 -1.3491  0.0082
 8604SOL     OW36740   4.360   4.067   2.207  0.0310 -0.2052  0.0116
 8604SOL    HW136741   4.366   4.009   2.287  2.2188  1.9241  1.4515
 8604SOL    HW236742   4.428   4.039   2.139 -0.8142 -1.0559 -0.5038
 8605SOL     OW36743   6.453   9.747   2.803  0.1402 -0.6563 -0.1809
 8605SOL    HW136744   6.359   9.728   2.775 -0.1931 -0.0410  0.5059
 8605SOL    HW236745   6.486   9.830   2.759 -0.4258  0.3782  1.3208
 8606SOL     OW36746   5.863   1.537   2.633 -0.1464  0.2734 -0.2405
 8606SOL    HW136747   5.956   1.569   2.614  0.9049 -2.8932 -0.5998
 8606SOL    HW236748   5.822   1.501   2.550 -0.8438 -0.4344  0.3960
 8607SOL     OW36749   2.075   6.156   6.135 -0.2958 -0.3544  0.1108
 8607SOL    HW136750   2.145   6.149   6.065 -1.1474 -0.4526 -0.7494
 8607SOL    HW236751   2.011   6.229   6.110 -1.6394 -1.6002 -0.1495
 8608SOL     OW36752   2.295   6.082   4.024  0.2605  0.2733  0.0952
 8608SOL    HW136753   2.309   6.168   4.072  1.0505  0.5761 -0.6640
 8608SOL    HW236754   2.382   6.048   3.989 -0.0199 -0.9161  0.5171
 8609SOL     OW36755   7.336   1.906   2.980 -0.6234  0.2354 -0.6267
 8609SOL    HW136756   7.335   1.913   3.079 -2.8962 -0.8528 -0.5493
 8609SOL    HW236757   7.420   1.948   2.944 -0.8506  2.6441  1.5660
 8610SOL     OW36758   2.282   7.804   3.579 -0.0671  0.0678  1.1649
 8610SOL    HW136759   2.276   7.705   3.572 -1.7710  0.3495 -2.7541
 8610SOL    HW236760   2.378   7.832   3.578  0.4477 -1.5001  2.9473
 8611SOL     OW36761   3.176   3.791   2.374 -0.2954 -0.0486 -0.2427
 8611SOL    HW136762   3.240   3.777   2.299 -1.0724  1.1847 -1.1520
 8611SOL    HW236763   3.225   3.821   2.455  0.4115 -0.2417 -0.5945
 8612SOL     OW36764   3.780   6.503   4.643 -0.2841  0.3483  0.4663
 8612SOL    HW136765   3.825   6.423   4.604  1.2856  0.9769  0.9813
 8612SOL    HW236766   3.802   6.510   4.740 -1.1243  0.9237  0.6213
 8613SOL     OW36767   4.331   2.797   3.259 -0.0999 -0.2267  0.8818
 8613SOL    HW136768   4.355   2.806   3.163 -0.5112 -1.4334  0.6635
 8613SOL    HW236769   4.312   2.888   3.297 -2.1210  0.0485 -0.7425
 8614SOL     OW36770   7.629   4.121   1.494  0.3487 -0.7722 -0.1124
 8614SOL    HW136771   7.607   4.024   1.489  1.8707 -1.1592  0.4107
 8614SOL    HW236772   7.728   4.133   1.485  0.1509  0.7390 -0.3425
 8615SOL     OW36773   8.745   3.324   2.518  0.6587 -0.3994  0.2111
 8615SOL    HW136774   8.712   3.386   2.589  0.0181 -1.2032  0.6236
 8615SOL    HW236775   8.845   3.326   2.516  0.7659 -1.6744  2.3270
 8616SOL     OW36776   0.722   5.659   5.443  0.1310  0.2039 -0.2499
 8616SOL    HW136777   0.781   5.733   5.412  2.7430 -2.1831 -1.0766
 8616SOL    HW236778   0.657   5.636   5.371  0.3960  0.5670 -0.6079
 8617SOL     OW36779   8.297   0.004   5.214 -0.3345 -0.2302  0.0724
 8617SOL    HW136780   8.228  -0.021   5.146 -0.6853 -0.6479  0.5721
 8617SOL    HW236781   8.385  -0.037   5.188  0.0560  1.3867 -1.2661
 8618SOL     OW36782   2.820   9.191   2.044  0.6000 -0.1357 -0.4680
 8618SOL    HW136783   2.789   9.129   1.971  0.8772  0.2860 -0.9494
 8618SOL    HW236784   2.918   9.176   2.061  0.7332  0.3686 -0.7851
 8619SOL     OW36785   5.973   8.364   1.892  0.0259  0.2252  0.4327
 8619SOL    HW136786   5.909   8.291   1.867  0.8226 -0.6731  1.0020
 8619SOL    HW236787   5.923   8.436   1.941 -0.7294 -0.0133  0.0298
 8620SOL     OW36788   2.755   9.597   3.712  0.4022 -0.0332  0.4712
 8620SOL    HW136789   2.724   9.688   3.685  0.5531 -0.5064 -1.3334
 8620SOL    HW236790   2.678   9.546   3.751 -0.4125 -0.1722 -1.2834
 8621SOL     OW36791   2.750   7.298   5.593  0.2599  0.2010 -0.4717
 8621SOL    HW136792   2.688   7.367   5.557  0.4675  0.6440 -0.0021
 8621SOL    HW236793   2.751   7.218   5.533  0.3156  0.7708 -1.2299
 8622SOL     OW36794   5.939   0.847   4.792  0.0405 -0.1256 -0.2127
 8622SOL    HW136795   5.908   0.825   4.885  3.0709  0.4986  0.9893
 8622SOL    HW236796   5.874   0.911   4.750 -1.4547 -0.5335  1.4021
 8623SOL     OW36797   8.754   7.510   1.585  0.0403  0.5095 -0.4361
 8623SOL    HW136798   8.839   7.484   1.540 -0.5846  0.2015 -1.4828
 8623SOL    HW236799   8.744   7.459   1.670  0.5743  0.0330 -0.6528
 8624SOL     OW36800   6.103   0.249   1.389  0.3822  0.1247  0.3892
 8624SOL    HW136801   6.161   0.311   1.335 -0.9773  1.3063  0.2402
 8624SOL    HW236802   6.042   0.199   1.328  0.0409  0.1797  0.6843
 8625SOL     OW36803   2.066   5.135   0.044  0.0364 -0.1318  0.2396
 8625SOL    HW136804   2.160   5.113   0.017 -0.3867  0.4726 -1.8460
 8625SOL    HW236805   2.033   5.067   0.109  2.3795  0.4111  2.0590
 8626SOL     OW36806   7.725   1.728   4.870 -0.1523  0.1463  0.1857
 8626SOL    HW136807   7.824   1.737   4.878 -0.2729  1.0475  0.6706
 8626SOL    HW236808   7.702   1.631   4.856  0.8081 -0.0243 -0.2413
 8627SOL     OW36809   7.404   1.698   6.151  0.1490 -0.5675  0.5103
 8627SOL    HW136810   7.386   1.649   6.066 -0.1061 -0.8770  0.7424
 8627SOL    HW236811   7.356   1.785   6.150  1.8816  0.4187 -0.5937
 8628SOL     OW36812   4.610   6.910   3.706  0.0991 -0.2593 -0.3464
 8628SOL    HW136813   4.636   6.994   3.659  1.1670  0.2298  1.1030
 8628SOL    HW236814   4.511   6.896   3.698 -0.1262  1.3128 -0.3057
 8629SOL     OW36815   3.710   8.000   1.483  0.1486 -0.3145 -0.5163
 8629SOL    HW136816   3.613   7.976   1.479 -0.2037  1.2498 -1.8195
 8629SOL    HW236817   3.727   8.060   1.561  0.4434 -2.1657  0.8637
 8630SOL     OW36818   1.928   8.697   4.518 -0.0295  0.3633  0.2645
 8630SOL    HW136819   1.910   8.599   4.509  1.5423  0.2584 -2.3482
 8630SOL    HW236820   1.904   8.743   4.433  1.9702  1.7911  0.4458
 8631SOL     OW36821   0.181   3.748   3.634  0.0819 -0.0383  0.1293
 8631SOL    HW136822   0.169   3.725   3.731  0.2286 -2.0131 -0.3065
 8631SOL    HW236823   0.091   3.768   3.594 -0.0437  0.1994  0.5224
 8632SOL     OW36824   8.286   2.115   3.823 -0.6007  0.3550  0.4548
 8632SOL    HW136825   8.385   2.111   3.837 -0.8189 -2.2618  1.4485
 8632SOL    HW236826   8.239   2.082   3.905 -2.2615  0.0015 -0.6098
 8633SOL     OW36827   9.460   9.052   0.795  0.3944  0.2611  0.1845
 8633SOL    HW136828   9.532   9.069   0.863  1.7952 -2.0813 -0.6293
 8633SOL    HW236829   9.497   8.995   0.722 -1.9942  0.0193 -0.8717
 8634SOL     OW36830   4.888   9.075   4.388  0.2133 -0.7886 -0.0563
 8634SOL    HW136831   4.930   9.123   4.311  1.2929 -1.6465 -0.0187
 8634SOL    HW236832   4.794   9.051   4.365 -0.4415  1.5717  0.0361
 8635SOL     OW36833   3.818   6.627   2.227  0.1533  0.1343  0.0375
 8635SOL    HW136834   3.886   6.630   2.154  0.7061 -2.5265  0.3823
 8635SOL    HW236835   3.808   6.718   2.268  3.2093  0.6453 -0.2658
 8636SOL     OW36836   5.018   3.971   2.125 -0.3688  0.0632  0.3738
 8636SOL    HW136837   5.081   4.044   2.100 -0.5087 -0.6200 -2.0753
 8636SOL    HW236838   5.055   3.920   2.203  0.3692  1.8617  1.2397
 8637SOL     OW36839   0.201   9.737   5.083  0.6258 -0.0985 -0.2151
 8637SOL    HW136840   0.104   9.715   5.084  0.0832  2.2295  0.0811
 8637SOL    HW236841   0.220   9.803   5.010  1.7388  0.5440  0.6376
 8638SOL     OW36842   3.159   9.012   3.944 -0.0313  0.2953  0.3067
 8638SOL    HW136843   3.187   9.007   3.848 -1.5112 -0.4385 -0.1077
 8638SOL    HW236844   3.076   8.958   3.957 -0.1600  0.8522  1.8929
 8639SOL     OW36845   1.432   2.696   3.785  0.5370  0.4668  0.0797
 8639SOL    HW136846   1.518   2.646   3.776  0.0013 -0.3042 -0.8009
 8639SOL    HW236847   1.399   2.722   3.694  0.2059  1.4019  0.4544
 8640SOL     OW36848   3.255   2.979   2.950  0.5385 -0.1123  0.4401
 8640SOL    HW136849   3.334   2.961   3.010  0.7761  0.7047  0.3872
 8640SOL    HW236850   3.265   3.070   2.910 -1.3178  0.7276  1.8298
 8641SOL     OW36851   4.413   2.808   4.610  0.4375 -0.6357 -0.5803
 8641SOL    HW136852   4.432   2.899   4.573 -0.8722 -0.1114  0.0373
 8641SOL    HW236853   4.497   2.769   4.649  1.1091  0.0921 -1.2929
 8642SOL     OW36854   0.791   1.706   1.597 -0.5397 -0.2542 -0.2309
 8642SOL    HW136855   0.748   1.717   1.687  0.5949  1.6103  0.1004
 8642SOL    HW236856   0.861   1.776   1.584 -1.4108  0.1580 -3.0137
 8643SOL     OW36857   7.335   2.648   2.929  0.5715  0.2904  0.0494
 8643SOL    HW136858   7.335   2.746   2.950  1.1818  0.1181  0.8695
 8643SOL    HW236859   7.403   2.630   2.857  1.8955  0.1820  1.3101
 8644SOL     OW36860   3.310   8.692   4.029  0.2476  0.0258 -0.3328
 8644SOL    HW136861   3.324   8.678   3.931  3.0512 -0.8404  0.1592
 8644SOL    HW236862   3.370   8.631   4.081 -1.6858 -0.0222  1.9564
 8645SOL     OW36863   0.319   7.948   2.782  0.4757 -0.6110  0.1829
 8645SOL    HW136864   0.401   7.949   2.839  0.0603 -0.1327  0.7860
 8645SOL    HW236865   0.295   8.042   2.758  1.7815 -0.9133 -2.4555
 8646SOL     OW36866   4.630   1.821   3.710 -0.1601 -0.5387 -0.2602
 8646SOL    HW136867   4.621   1.838   3.809 -2.5446 -1.3585 -0.2939
 8646SOL    HW236868   4.539   1.808   3.671  0.8021 -0.5807 -2.5174
 8647SOL     OW36869   9.727   5.215   2.545 -0.2011  0.0865 -0.1533
 8647SOL    HW136870   9.779   5.170   2.473 -1.9731  0.3989 -1.6775
 8647SOL    HW236871   9.775   5.296   2.576  1.4724 -1.0781  0.3472
 8648SOL     OW36872   9.313   8.692   2.587  0.1122  0.3297  0.2075
 8648SOL    HW136873   9.388   8.739   2.633  0.2424  0.5986 -0.2695
 8648SOL    HW236874   9.228   8.704   2.639  0.1695  1.0067  0.1492
 8649SOL     OW36875   7.244   8.512   2.397  0.2912 -0.2058 -0.2325
 8649SOL    HW136876   7.175   8.445   2.369  1.2321  0.0853 -3.4460
 8649SOL    HW236877   7.329   8.464   2.419  0.0916 -0.2871  0.3727
 8650SOL     OW36878   2.265   8.598   5.578  0.0264  0.7940 -0.0573
 8650SOL    HW136879   2.261   8.498   5.577  1.2899  0.7405 -0.1011
 8650SOL    HW236880   2.330   8.628   5.649 -0.4542  1.5869  0.0530
 8651SOL     OW36881   9.377   4.295   2.334  0.3689 -0.0857 -0.5693
 8651SOL    HW136882   9.427   4.241   2.401  1.0787  0.6687 -0.4779
 8651SOL    HW236883   9.423   4.291   2.246  0.8009  0.8873 -0.3999
 8652SOL     OW36884   1.397   0.474   3.382 -0.4811  0.5319 -0.2955
 8652SOL    HW136885   1.468   0.517   3.439 -0.5772 -0.4817  0.6070
 8652SOL    HW236886   1.437   0.446   3.295 -0.2639  1.8553 -0.6314
 8653SOL     OW36887   7.837   1.268   3.521  0.0720 -1.0329 -0.0386
 8653SOL    HW136888   7.932   1.245   3.542  0.4715  1.3453  0.8647
 8653SOL    HW236889   7.790   1.297   3.604 -0.2898  1.7302 -1.1674
 8654SOL     OW36890   1.194   2.368   4.261  0.6601 -0.4074  0.4932
 8654SOL    HW136891   1.278   2.418   4.238  0.3212  0.1518  0.4719
 8654SOL    HW236892   1.204   2.273   4.232  1.2903 -0.3476  0.4910
 8655SOL     OW36893   0.078   7.986   1.354  0.3044  0.0774 -0.3158
 8655SOL    HW136894   0.032   8.028   1.432 -1.0377  1.4408 -1.7792
 8655SOL    HW236895   0.043   7.894   1.340 -0.4151  0.3158 -0.1019
 8656SOL     OW36896   2.029   1.040   4.030 -0.0616  0.4795 -0.6755
 8656SOL    HW136897   2.092   1.072   4.101 -0.7932 -0.0854  0.2412
 8656SOL    HW236898   1.966   1.114   4.005  2.2568  1.7214 -3.0957
 8657SOL     OW36899   1.287   4.021   0.243  0.6449 -0.1959 -0.1693
 8657SOL    HW136900   1.231   4.104   0.241  0.3456 -0.4249 -2.2359
 8657SOL    HW236901   1.267   3.969   0.326 -0.2573  1.0510  0.4057
 8658SOL     OW36902   8.577   7.013   0.818  0.4097  0.5390 -0.6970
 8658SOL    HW136903   8.530   6.958   0.887 -0.3553  0.6758 -1.1090
 8658SOL    HW236904   8.625   6.952   0.755  1.5842  0.4295  0.2799
 8659SOL     OW36905   3.616   9.941   0.784  0.3787 -0.2064 -0.0341
 8659SOL    HW136906   3.538  10.003   0.776  1.8753  1.5196 -1.7410
 8659SOL    HW236907   3.585   9.854   0.823 -1.7780  1.5697  2.4756
 8660SOL     OW36908   8.207   3.302   5.048  0.3540 -0.5326  0.2908
 8660SOL    HW136909   8.205   3.226   4.982  0.2893 -0.4278  0.1726
 8660SOL    HW236910   8.217   3.388   5.000  0.1787 -0.4447  0.4086
 8661SOL     OW36911   4.526   0.155   1.908  0.6157 -0.2306 -0.2665
 8661SOL    HW136912   4.487   0.243   1.881 -1.4558 -1.4398 -1.3410
 8661SOL    HW236913   4.514   0.143   2.007 -1.8881 -0.6383 -0.6007
 8662SOL     OW36914   9.214   3.285   3.495  0.3216  0.2677 -0.3141
 8662SOL    HW136915   9.207   3.189   3.519  2.2946  0.1594 -0.1345
 8662SOL    HW236916   9.149   3.338   3.550  1.8062 -0.4894  2.2368
 8663SOL     OW36917   0.998   3.274   2.832 -0.4448  0.0822 -0.4626
 8663SOL    HW136918   0.941   3.335   2.887 -0.8972 -0.1540 -0.6678
 8663SOL    HW236919   1.016   3.190   2.884  0.9539  0.7714  0.1920
 8664SOL     OW36920   6.955   1.292   4.035 -0.2765  0.1938 -1.2161
 8664SOL    HW136921   6.975   1.272   3.939 -2.0766  0.4770 -1.6673
 8664SOL    HW236922   6.983   1.214   4.091 -1.9758 -1.2573 -2.3245
 8665SOL     OW36923   8.931   7.517   2.509 -0.5750  0.0497 -0.1150
 8665SOL    HW136924   8.962   7.434   2.553 -0.9052  0.1414  0.3004
 8665SOL    HW236925   8.984   7.533   2.426  0.1001 -0.0890  0.2836
 8666SOL     OW36926   9.019   7.026   5.932 -0.4101  0.4651 -0.2385
 8666SOL    HW136927   9.094   7.002   5.871 -0.8302 -1.7991  0.0914
 8666SOL    HW236928   8.974   7.109   5.898  0.9489  0.6740 -1.5734
 8667SOL     OW36929   9.682   9.660   3.855  0.0882  0.0434 -0.3896
 8667SOL    HW136930   9.619   9.601   3.905  0.9331 -2.4767 -2.2096
 8667SOL    HW236931   9.776   9.634   3.876  0.5139  2.1671  0.4190
 8668SOL     OW36932   9.730   1.705   5.000 -0.2932 -0.4059 -0.2372
 8668SOL    HW136933   9.652   1.643   4.985 -0.3274 -0.4523  0.1276
 8668SOL    HW236934   9.734   1.730   5.096 -1.1194  1.2810 -0.6203
 8669SOL     OW36935   5.487   9.896   1.048  0.3906 -0.1661 -0.5671
 8669SOL    HW136936   5.468   9.983   1.095  0.2915 -1.1913  1.3393
 8669SOL    HW236937   5.402   9.856   1.015  0.4540  0.5353 -1.6003
 8670SOL     OW36938   7.733   7.842   3.819 -0.5562 -0.0380 -0.1591
 8670SOL    HW136939   7.738   7.796   3.907  0.6661  0.4677  0.0479
 8670SOL    HW236940   7.788   7.791   3.752 -1.7140 -0.5833 -0.7100
 8671SOL     OW36941   2.570   0.057   2.552 -0.6234 -0.4665  0.4260
 8671SOL    HW136942   2.586   0.143   2.599  0.3398 -0.3061 -0.1722
 8671SOL    HW236943   2.655   0.027   2.508 -2.1601  0.9604 -3.8538
 8672SOL     OW36944   2.897   0.251   1.374 -0.0435  0.2092 -0.3417
 8672SOL    HW136945   2.863   0.325   1.317  0.6437 -0.2900 -1.4122
 8672SOL    HW236946   2.884   0.163   1.326  1.4460 -0.1178 -0.1731
 8673SOL     OW36947   8.785   1.797   3.830  0.8545 -0.2135  0.6577
 8673SOL    HW136948   8.852   1.728   3.803 -1.1003 -0.7700 -3.1828
 8673SOL    HW236949   8.696   1.753   3.841 -0.1258  1.4507 -0.4033
 8674SOL     OW36950   7.950   1.234   5.888  0.2104  0.1658  0.7508
 8674SOL    HW136951   7.866   1.207   5.840  0.5259 -1.3686  1.0434
 8674SOL    HW236952   8.001   1.298   5.831 -1.5920  1.8390  0.9526
 8675SOL     OW36953   3.192   8.116   4.220  0.3277 -0.1141 -0.0469
 8675SOL    HW136954   3.275   8.066   4.192  0.1984 -0.5531  0.3528
 8675SOL    HW236955   3.218   8.207   4.252  0.5927 -0.0178 -0.5185
 8676SOL     OW36956   1.266   6.447   4.242  0.4780 -0.6052 -0.3641
 8676SOL    HW136957   1.335   6.446   4.315 -0.0905  0.4741  0.2058
 8676SOL    HW236958   1.175   6.462   4.283  0.1733  0.1475 -1.3025
 8677SOL     OW36959   4.883   8.711   1.499 -0.1662 -0.3526  0.0563
 8677SOL    HW136960   4.929   8.732   1.413 -0.6798 -0.7485 -0.3181
 8677SOL    HW236961   4.827   8.789   1.527  0.3963 -0.0292  0.2960
 8678SOL     OW36962   9.261   3.732   2.575  0.5088 -0.3535 -0.4581
 8678SOL    HW136963   9.172   3.687   2.561  0.1853  0.3860 -0.8460
 8678SOL    HW236964   9.300   3.702   2.661 -0.1545 -0.6478 -0.2515
 8679SOL     OW36965   0.682   9.113   1.382 -0.6014 -0.1444 -0.3561
 8679SOL    HW136966   0.645   9.138   1.472  0.0043  0.5220 -0.2775
 8679SOL    HW236967   0.776   9.081   1.393  0.4702  2.5622 -1.0119
 8680SOL     OW36968   9.606   3.094   3.716 -0.2599 -0.0941 -0.0044
 8680SOL    HW136969   9.542   3.144   3.658 -1.4437 -2.5719 -0.9549
 8680SOL    HW236970   9.609   2.998   3.686  2.0947 -0.5524  1.5645
 8681SOL     OW36971   3.201   9.438   1.926  0.3773 -0.8635  0.8341
 8681SOL    HW136972   3.222   9.527   1.966  1.8927 -0.9058  0.1702
 8681SOL    HW236973   3.286   9.387   1.912 -0.0240 -0.6305 -2.9474
 8682SOL     OW36974   3.114   8.059   2.792 -0.1578  0.1762  0.2388
 8682SOL    HW136975   3.014   8.051   2.797 -0.1018 -0.0997  0.9042
 8682SOL    HW236976   3.154   8.031   2.879  0.3131  3.3402  1.1018
 8683SOL     OW36977   2.827   1.658   3.247 -0.5694  0.1454  0.3090
 8683SOL    HW136978   2.838   1.628   3.342  1.1502  2.5722  0.9211
 8683SOL    HW236979   2.792   1.582   3.192  0.8845 -2.0922  2.3556
 8684SOL     OW36980   0.200   3.079   2.925  0.0400  0.5191  0.2831
 8684SOL    HW136981   0.142   3.013   2.878  0.4790 -0.0381  0.5168
 8684SOL    HW236982   0.203   3.057   3.023  1.6091 -0.1927  0.0965
 8685SOL     OW36983   2.483   3.526   6.238 -0.0326 -0.5844 -0.0979
 8685SOL    HW136984   2.517   3.515   6.144  0.0514  2.1166 -0.4188
 8685SOL    HW236985   2.400   3.582   6.237  0.5163  0.2691  1.5455
 8686SOL     OW36986   6.462   9.895   3.085 -0.5920 -0.0652  0.8144
 8686SOL    HW136987   6.462   9.836   3.004 -0.3754 -0.3353  1.0114
 8686SOL    HW236988   6.483   9.841   3.166 -0.8146  0.2038  1.0541
 8687SOL     OW36989   2.779   5.939   4.511  0.1319 -0.3706  0.2773
 8687SOL    HW136990   2.694   5.978   4.476  0.3473 -0.7471 -0.6664
 8687SOL    HW236991   2.846   5.934   4.438  0.3099 -1.9386  0.5270
 8688SOL     OW36992   2.120   0.499   4.661  0.1934 -0.1696 -0.2473
 8688SOL    HW136993   2.074   0.551   4.733  0.8539  0.3551 -0.1977
 8688SOL    HW236994   2.218   0.495   4.680  0.1825 -1.2126 -0.3953
 8689SOL     OW36995   4.005   8.767   1.586 -0.1270 -0.4395  0.5647
 8689SOL    HW136996   4.098   8.778   1.550 -0.4468 -0.2216 -0.2192
 8689SOL    HW236997   4.008   8.715   1.671  0.7555 -0.0503  0.7766
 8690SOL     OW36998   1.034   7.227   0.167  0.1541 -0.1731 -0.0786
 8690SOL    HW136999   1.059   7.192   0.257 -0.6442 -0.6266 -0.0281
 8690SOL    HW237000   1.056   7.159   0.097 -0.3810 -0.3334 -0.0945
 8691SOL     OW37001   7.658   8.308   3.469  0.2604 -0.3955  0.0558
 8691SOL    HW137002   7.614   8.234   3.419  1.6771 -0.2105 -1.5061
 8691SOL    HW237003   7.625   8.396   3.436 -0.3455 -0.2991  0.9027
 8692SOL     OW37004   3.734   5.891   6.005 -0.3382 -0.4716  0.3157
 8692SOL    HW137005   3.794   5.861   6.079  0.1061 -0.2363  0.0570
 8692SOL    HW237006   3.697   5.811   5.958 -1.0690 -0.6191  1.1512
 8693SOL     OW37007   4.123   2.803   1.823  0.3570 -0.2910  0.0462
 8693SOL    HW137008   4.054   2.749   1.774 -0.2638  0.7275 -0.2242
 8693SOL    HW237009   4.188   2.841   1.757  1.5472 -1.7569  0.3621
 8694SOL     OW37010   0.286   7.376   5.057  0.4826 -0.2098 -0.0690
 8694SOL    HW137011   0.354   7.420   4.999  2.2101 -1.3316  1.0571
 8694SOL    HW237012   0.244   7.300   5.007  2.0157 -1.2185  0.1391
 8695SOL     OW37013   2.514   6.901   3.276 -0.2273  0.3998  0.6942
 8695SOL    HW137014   2.503   6.890   3.177 -1.4983  1.5086  0.6896
 8695SOL    HW237015   2.585   6.840   3.309 -0.6252 -0.8565 -0.7203
 8696SOL     OW37016   2.951   5.245   3.737  0.6124 -0.1773 -0.3942
 8696SOL    HW137017   2.968   5.336   3.774 -1.0246  0.2551 -0.6631
 8696SOL    HW237018   2.944   5.179   3.811  1.1848  0.0204 -0.1645
 8697SOL     OW37019   3.403   9.942   4.268 -0.2014 -0.1476  0.1470
 8697SOL    HW137020   3.315   9.989   4.280 -0.7448 -1.0015 -0.3901
 8697SOL    HW237021   3.457   9.950   4.352  0.9020  3.8068 -0.8727
 8698SOL     OW37022   9.830   5.103   2.316 -0.6157  0.4854  0.1216
 8698SOL    HW137023   9.741   5.068   2.286  0.5155 -1.7625 -0.6863
 8698SOL    HW237024   9.903   5.048   2.276  1.0911  0.4250  3.1518
 8699SOL     OW37025   5.255   5.759   2.289  0.1816 -0.8263  0.5416
 8699SOL    HW137026   5.313   5.705   2.350 -1.6087 -0.2228  2.8516
 8699SOL    HW237027   5.159   5.739   2.309 -0.5370  3.0445  1.3726
 8700SOL     OW37028   0.883   9.109   2.333  0.3401 -0.6641  0.1824
 8700SOL    HW137029   0.908   9.031   2.275 -2.1320 -2.4477  1.4173
 8700SOL    HW237030   0.831   9.175   2.279 -1.7111 -2.1863  0.2281
 8701SOL     OW37031   3.753   9.119   3.107 -0.0054  0.1573  0.3982
 8701SOL    HW137032   3.834   9.143   3.160  0.2498  1.1704 -0.4371
 8701SOL    HW237033   3.780   9.088   3.016 -0.5762  1.1389 -0.1145
 8702SOL     OW37034   4.470   0.811   2.799  0.0535  0.4519  1.0120
 8702SOL    HW137035   4.562   0.840   2.773 -0.1767  1.6839  1.5392
 8702SOL    HW237036   4.412   0.810   2.717  0.3871  0.2139  0.7735
 8703SOL     OW37037   4.317   8.717   2.602 -0.8555 -0.4334 -0.3760
 8703SOL    HW137038   4.345   8.654   2.530 -0.1476  0.1159 -0.5824
 8703SOL    HW237039   4.229   8.759   2.578  0.0817  0.8652 -1.6422
 8704SOL     OW37040   9.598   0.017   4.004  0.3254 -0.2302  0.0930
 8704SOL    HW137041   9.582   0.008   3.906  2.7690 -0.9867 -0.2547
 8704SOL    HW237042   9.603  -0.074   4.045  1.0352  0.0512  0.6331
 8705SOL     OW37043   1.316   6.773   1.467 -0.0384  0.7370 -0.6482
 8705SOL    HW137044   1.338   6.811   1.557 -0.2712 -2.6390  0.9199
 8705SOL    HW237045   1.377   6.695   1.448 -1.0653  0.3978 -2.6912
 8706SOL     OW37046   3.000   0.952   3.907 -0.3055 -0.3295 -0.2481
 8706SOL    HW137047   2.984   0.977   4.003 -1.7205  1.5944 -0.9561
 8706SOL    HW237048   2.992   0.853   3.897 -2.2480 -0.3572  1.2629
 8707SOL     OW37049   9.672   5.043   3.824 -0.2722  1.1616 -0.3868
 8707SOL    HW137050   9.573   5.042   3.811 -0.3814  0.9297  0.3840
 8707SOL    HW237051   9.715   4.975   3.765 -0.9766 -1.5394  2.0665
 8708SOL     OW37052   7.447   0.129   1.302  0.2635  0.2558  0.2615
 8708SOL    HW137053   7.481   0.136   1.396  0.8297  0.0331  0.0799
 8708SOL    HW237054   7.428   0.220   1.267 -1.2013  0.2618  1.0335
 8709SOL     OW37055   2.367   5.321   1.901  0.0305  0.2721  0.3807
 8709SOL    HW137056   2.333   5.288   1.813 -0.0689  0.4250  0.3605
 8709SOL    HW237057   2.291   5.325   1.966  0.4902 -1.7733  1.0587
 8710SOL     OW37058   5.906   4.747   6.665  0.6371  0.4139 -0.8806
 8710SOL    HW137059   5.982   4.705   6.615 -0.1760 -2.4515  0.1652
 8710SOL    HW237060   5.822   4.736   6.612  0.4037  0.5899 -0.5485
 8711SOL     OW37061   3.041   5.191   0.063  0.3757  0.2056  0.2868
 8711SOL    HW137062   2.953   5.183   0.110  0.3271  0.3767  0.2230
 8711SOL    HW237063   3.034   5.151  -0.028  0.3789  0.1741  0.3005
 8712SOL     OW37064   3.856   7.971   0.434 -0.4616  0.3460  0.0243
 8712SOL    HW137065   3.871   7.942   0.339  2.5948  2.3630 -0.1985
 8712SOL    HW237066   3.884   7.899   0.496  0.6495  0.2287 -0.5941
 8713SOL     OW37067   0.289   4.381   3.784 -0.3295 -0.2887 -0.0129
 8713SOL    HW137068   0.347   4.315   3.737 -1.3979 -0.7171 -0.7395
 8713SOL    HW237069   0.255   4.448   3.719 -2.1554 -1.1305  0.0396
 8714SOL     OW37070   9.808   7.367   4.010  0.1416  0.0256  0.1890
 8714SOL    HW137071   9.826   7.443   3.948  1.8639  0.8323  1.6482
 8714SOL    HW237072   9.719   7.380   4.054 -0.1144  0.5466 -0.4638
 8715SOL     OW37073   7.925   9.144   3.205 -0.8728 -0.1179 -0.2045
 8715SOL    HW137074   7.934   9.201   3.287 -1.4855 -0.9077  0.4215
 8715SOL    HW237075   8.005   9.084   3.198 -0.7975 -0.0180 -0.2108
 8716SOL     OW37076   7.269   7.475   4.038  0.5324  0.1713 -0.7340
 8716SOL    HW137077   7.326   7.461   4.119  0.7145  0.2876 -0.8417
 8716SOL    HW237078   7.241   7.386   4.002  0.7002  0.1120 -0.7197
 8717SOL     OW37079   2.158   5.298   5.822 -0.4951  0.1219  0.4044
 8717SOL    HW137080   2.164   5.350   5.908 -1.2588  0.8088  0.0483
 8717SOL    HW237081   2.095   5.344   5.760 -0.0011 -0.4165 -0.5043
 8718SOL     OW37082   6.058   0.326   2.836 -0.0404  0.1601  0.2463
 8718SOL    HW137083   6.077   0.233   2.804 -0.5662  0.2952 -0.4783
 8718SOL    HW237084   6.015   0.323   2.926 -0.8129 -0.3387 -0.1346
 8719SOL     OW37085   3.725   1.658   1.817  0.6006 -0.2360 -0.2118
 8719SOL    HW137086   3.665   1.593   1.863  0.7035 -1.3282 -1.5853
 8719SOL    HW237087   3.685   1.750   1.822 -1.6813 -1.0939 -1.9294
 8720SOL     OW37088   5.059   6.102   1.838 -0.3021  0.4161 -0.1516
 8720SOL    HW137089   4.978   6.075   1.891 -0.0854 -1.0878 -0.5569
 8720SOL    HW237090   5.117   6.161   1.894 -0.2266 -0.8970  1.1912
 8721SOL     OW37091   0.965   2.095   2.308 -0.5689 -0.3453 -0.5902
 8721SOL    HW137092   0.908   2.036   2.365 -0.2567 -1.8292 -1.8070
 8721SOL    HW237093   0.927   2.099   2.216 -0.3087  0.9666 -0.6514
 8722SOL     OW37094   2.418   2.350   1.580 -0.5980 -0.3220  0.3600
 8722SOL    HW137095   2.490   2.416   1.604 -1.0988  0.2972  0.1712
 8722SOL    HW237096   2.424   2.271   1.641 -1.0593  0.6658  1.7296
 8723SOL     OW37097   8.974   0.247   4.012 -0.2208 -1.0876 -0.1261
 8723SOL    HW137098   8.960   0.345   4.031 -1.2984 -1.1976 -0.3359
 8723SOL    HW237099   8.923   0.193   4.079  1.2595 -1.5199  0.6671
 8724SOL     OW37100   0.804   0.075   0.987  0.2737  0.1127 -0.3791
 8724SOL    HW137101   0.742   0.086   0.909 -2.4402 -0.9479  1.5465
 8724SOL    HW237102   0.821   0.164   1.029 -1.2630  0.2305  0.0317
 8725SOL     OW37103   1.839   7.994   4.456 -0.6702 -0.3602 -0.2097
 8725SOL    HW137104   1.854   8.065   4.387 -0.9047 -1.3148 -1.2697
 8725SOL    HW237105   1.744   7.998   4.488 -1.3620 -1.6051 -1.9517
 8726SOL     OW37106   0.870   7.871   4.828  0.5637  0.1581 -0.0985
 8726SOL    HW137107   0.824   7.829   4.750 -1.8204  0.4152  1.0929
 8726SOL    HW237108   0.905   7.800   4.889 -1.1926 -0.1246  0.6196
 8727SOL     OW37109   5.963   8.624   4.369  0.0023  0.4417  0.1715
 8727SOL    HW137110   6.055   8.652   4.396 -0.7692  1.8047  1.4792
 8727SOL    HW237111   5.932   8.549   4.428 -0.2875  0.9717  0.6957
 8728SOL     OW37112   8.698   7.243   4.864 -0.2683 -0.4257  0.0898
 8728SOL    HW137113   8.770   7.288   4.917 -0.1194 -1.1981  0.5598
 8728SOL    HW237114   8.645   7.184   4.925 -0.7126 -0.5728 -0.4379
 8729SOL     OW37115   7.790   1.319   2.606 -0.7186  0.2050 -0.4442
 8729SOL    HW137116   7.859   1.291   2.540 -0.9499 -1.0254 -0.1834
 8729SOL    HW237117   7.825   1.306   2.699 -1.3654 -0.5988 -0.3114
 8730SOL     OW37118   4.584   7.996   3.561 -0.0348  0.2360 -0.1598
 8730SOL    HW137119   4.579   7.955   3.469  1.2881 -0.9085  0.2576
 8730SOL    HW237120   4.511   8.063   3.571 -1.1877 -0.7723 -1.4917
 8731SOL     OW37121   1.213   5.185   4.807  0.0120  0.0487  0.5973
 8731SOL    HW137122   1.186   5.281   4.797  0.8657  0.3038  0.6950
 8731SOL    HW237123   1.300   5.180   4.857 -0.9644 -0.8672  2.2419
 8732SOL     OW37124   0.466   6.904   6.212 -0.1247  0.4902 -1.0225
 8732SOL    HW137125   0.371   6.918   6.183  0.2820  1.0971 -2.0738
 8732SOL    HW237126   0.469   6.897   6.312 -1.1369  1.6761 -0.8926
 8733SOL     OW37127   3.264   5.805   4.757 -0.3789  0.0008 -0.1690
 8733SOL    HW137128   3.184   5.767   4.709 -0.2245 -0.8090  0.1926
 8733SOL    HW237129   3.330   5.731   4.774  0.3417  0.6251 -0.2609
 8734SOL     OW37130   6.754   8.671   3.303 -0.2568  0.4085 -0.1791
 8734SOL    HW137131   6.845   8.681   3.264  0.0240  0.7122  0.5491
 8734SOL    HW237132   6.756   8.697   3.400 -0.9862 -0.1372 -0.0125
 8735SOL     OW37133   2.026   3.781   3.542 -0.3624  0.5430 -0.2109
 8735SOL    HW137134   1.999   3.735   3.626  0.9532 -0.3298 -0.2579
 8735SOL    HW237135   1.949   3.835   3.507 -2.0060 -1.7701 -0.2488
 8736SOL     OW37136   1.894   9.931   1.200 -0.6575  0.0308 -0.1852
 8736SOL    HW137137   1.968   9.886   1.150 -1.0942  0.2652 -1.0384
 8736SOL    HW237138   1.811   9.876   1.194 -0.5537 -0.2491  0.8049
 8737SOL     OW37139   3.869   8.537   0.964 -0.3326 -0.1503 -0.5117
 8737SOL    HW137140   3.795   8.470   0.961  0.4951 -1.2435  2.3657
 8737SOL    HW237141   3.830   8.629   0.972 -1.3903 -0.5048 -1.4119
 8738SOL     OW37142   3.460   7.825   2.222 -0.3270 -0.4333 -0.3261
 8738SOL    HW137143   3.405   7.756   2.176  0.5769 -1.5832  0.2710
 8738SOL    HW237144   3.556   7.798   2.220 -0.1201  0.1414  1.0824
 8739SOL     OW37145   2.689   1.757   2.289 -0.3883  0.0414  0.3687
 8739SOL    HW137146   2.668   1.660   2.289  0.1018 -0.0633  0.5147
 8739SOL    HW237147   2.646   1.800   2.209  0.0244 -0.4299 -0.1108
 8740SOL     OW37148   6.587   9.068   4.177 -0.4550 -0.4288 -0.0762
 8740SOL    HW137149   6.548   9.087   4.087  1.3605  0.6750 -0.6674
 8740SOL    HW237150   6.570   8.973   4.202 -1.4257 -0.5972 -1.3550
 8741SOL     OW37151   1.279   2.288   2.103 -0.1198  0.6710 -0.7238
 8741SOL    HW137152   1.261   2.267   2.199 -0.3125  0.3704 -0.8270
 8741SOL    HW237153   1.215   2.358   2.072  0.2147  1.0737 -0.5155
 8742SOL     OW37154   9.441   0.939   0.465  0.2555 -0.1069 -0.1783
 8742SOL    HW137155   9.397   0.940   0.375  1.2054 -1.2546 -0.6595
 8742SOL    HW237156   9.540   0.948   0.453  0.3157  0.5530  0.8015
 8743SOL     OW37157   4.653   3.872   1.816 -0.2930  0.2634  0.3869
 8743SOL    HW137158   4.571   3.836   1.772  0.2952  0.7201 -1.1019
 8743SOL    HW237159   4.701   3.798   1.863 -1.6702  0.0374  1.4582
 8744SOL     OW37160   7.291   6.961   4.708 -0.2442  0.2433  0.1458
 8744SOL    HW137161   7.299   6.925   4.614  0.5730 -0.3008  0.4194
 8744SOL    HW237162   7.218   6.911   4.756 -0.9488  0.8089 -0.3290
 8745SOL     OW37163   5.024   1.056   2.315 -0.3020 -0.5043  0.1754
 8745SOL    HW137164   5.112   1.020   2.283 -0.3635 -0.6967  0.2235
 8745SOL    HW237165   4.967   1.080   2.236  0.0012  0.1283  0.1421
 8746SOL     OW37166   2.428   0.766   3.610  0.2021  0.0580  0.4644
 8746SOL    HW137167   2.509   0.714   3.636 -0.1143  0.2193  1.8353
 8746SOL    HW237168   2.362   0.764   3.685  0.0570  2.1766  0.4417
 8747SOL     OW37169   2.049   3.698   4.112  0.7038  0.1217 -0.3589
 8747SOL    HW137170   2.082   3.636   4.184  2.8551  1.5324 -0.0924
 8747SOL    HW237171   2.097   3.679   4.027  0.5406  0.6677 -0.5751
 8748SOL     OW37172   1.385   7.057   2.672 -0.4211 -0.5953  0.3456
 8748SOL    HW137173   1.336   7.134   2.631  0.6240 -0.0178  0.1650
 8748SOL    HW237174   1.449   7.090   2.741 -0.6269 -1.3875  0.9301
 8749SOL     OW37175   1.689   4.660   4.574  0.1940 -0.8360  0.8072
 8749SOL    HW137176   1.652   4.593   4.510 -0.5448  0.4492 -0.1249
 8749SOL    HW237177   1.770   4.703   4.535 -1.2199  1.1611 -0.0317
 8750SOL     OW37178   1.248   8.506   0.278  0.4700  0.1961  0.1718
 8750SOL    HW137179   1.235   8.572   0.204 -0.9584  0.2845  0.4859
 8750SOL    HW237180   1.193   8.425   0.261 -0.4167  0.5049  1.4574
 8751SOL     OW37181   6.377   1.092   0.950  0.7042 -0.0297  0.1869
 8751SOL    HW137182   6.364   1.039   1.033  1.6444  2.6695  2.1424
 8751SOL    HW237183   6.306   1.163   0.945  1.2310  0.4386 -0.8276
 8752SOL     OW37184   8.925   4.905   3.432  0.2612 -0.4710  0.5676
 8752SOL    HW137185   8.920   4.933   3.336 -0.5666 -1.9860  0.1602
 8752SOL    HW237186   8.843   4.935   3.480  0.4986 -0.0536  0.7138
 8753SOL     OW37187   3.896   8.478   3.109  0.0723  0.1492 -0.0727
 8753SOL    HW137188   3.957   8.456   3.033  0.5305  0.6589  0.1430
 8753SOL    HW237189   3.822   8.538   3.077  0.1229  0.1575 -0.1736
 8754SOL     OW37190   2.495   5.377   0.118 -0.3078 -0.2257 -0.2327
 8754SOL    HW137191   2.418   5.438   0.140 -0.0525  0.0841 -0.1993
 8754SOL    HW237192   2.466   5.282   0.129 -0.5993 -0.1035  0.0712
 8755SOL     OW37193   9.202   7.251   4.165 -0.0332 -0.1827  0.2175
 8755SOL    HW137194   9.233   7.208   4.080 -1.5470  1.1263 -1.0362
 8755SOL    HW237195   9.143   7.187   4.215 -0.6708 -0.2958 -0.6565
 8756SOL     OW37196   1.362   5.119   5.485  0.0332  0.8018 -0.1070
 8756SOL    HW137197   1.404   5.107   5.575 -2.5301 -1.3791  0.8635
 8756SOL    HW237198   1.294   5.191   5.489 -2.8683 -1.8703  0.8139
 8757SOL     OW37199   2.802   7.355   2.368 -0.2557  0.4591 -0.3081
 8757SOL    HW137200   2.883   7.413   2.363  1.1759 -1.3035  1.2839
 8757SOL    HW237201   2.780   7.320   2.277  1.0539  0.6278 -0.6945
 8758SOL     OW37202   6.684   1.928   3.303 -0.1353 -0.3869 -0.4071
 8758SOL    HW137203   6.687   1.892   3.397  1.0112 -0.7561 -0.5786
 8758SOL    HW237204   6.655   2.024   3.305 -0.9484 -0.6439  0.2521
 8759SOL     OW37205   9.549   4.640   0.536  0.5428 -0.0705 -0.4809
 8759SOL    HW137206   9.486   4.644   0.614  0.2694  1.3323 -0.7705
 8759SOL    HW237207   9.632   4.591   0.563  2.2572  3.9804  1.9931
 8760SOL     OW37208   2.868   5.613   3.151  0.5526  1.0571 -0.1191
 8760SOL    HW137209   2.832   5.591   3.061 -1.9793  0.1126  1.0647
 8760SOL    HW237210   2.833   5.702   3.180 -2.8466 -0.8462  1.9778
 8761SOL     OW37211   9.389   7.808   2.746 -0.7214 -0.2742 -0.4527
 8761SOL    HW137212   9.394   7.776   2.651 -0.5173  1.1718 -0.9333
 8761SOL    HW237213   9.454   7.757   2.801 -1.2530 -1.5370 -0.9644
 8762SOL     OW37214   4.498   5.410   1.315  0.5639  0.1059  1.0471
 8762SOL    HW137215   4.550   5.324   1.313  1.9227  0.8883  2.6585
 8762SOL    HW237216   4.525   5.465   1.393 -1.5178  1.2877  0.9897
 8763SOL     OW37217   5.480   0.547   1.011 -0.0467 -0.3393  0.5807
 8763SOL    HW137218   5.388   0.585   1.008  1.1210  2.6492  1.1561
 8763SOL    HW237219   5.503   0.508   0.921 -0.9081  1.2823 -0.3614
 8764SOL     OW37220   1.724   4.456   0.506  0.8957 -0.5796  0.1114
 8764SOL    HW137221   1.642   4.512   0.493  0.9000 -0.4314  0.7036
 8764SOL    HW237222   1.781   4.460   0.424  1.4552  1.1982  0.5735
 8765SOL     OW37223   5.741   9.614   4.263  0.7619 -0.1601  0.5900
 8765SOL    HW137224   5.722   9.711   4.249 -0.5359 -0.7060 -1.6722
 8765SOL    HW237225   5.822   9.588   4.211  1.7041 -0.0891  1.9952
 8766SOL     OW37226   1.214   7.879   0.308 -0.2569 -0.5551 -0.7915
 8766SOL    HW137227   1.248   7.787   0.291  0.1435 -0.6153  0.3107
 8766SOL    HW237228   1.290   7.940   0.330 -0.6149 -0.1637 -0.6226
 8767SOL     OW37229   8.236   0.565   1.981  0.0244  0.6220  0.0636
 8767SOL    HW137230   8.203   0.473   2.001  1.1310  0.6807  2.2729
 8767SOL    HW237231   8.246   0.617   2.066  1.4283  2.0909 -0.9603
 8768SOL     OW37232   2.768   6.612   4.142 -0.0591 -0.0972  0.2601
 8768SOL    HW137233   2.851   6.595   4.195  0.1851 -1.0418 -0.4226
 8768SOL    HW237234   2.792   6.646   4.051 -0.4396  0.0840  0.2237
 8769SOL     OW37235   1.900   2.724   4.336  0.4885 -0.0182 -0.1184
 8769SOL    HW137236   1.993   2.756   4.321  0.3235  0.6285  0.2091
 8769SOL    HW237237   1.836   2.796   4.310  0.1090 -0.0966  0.6005
 8770SOL     OW37238   5.509   8.549   4.889  0.3299  0.5017  0.0802
 8770SOL    HW137239   5.508   8.577   4.793 -0.8762  1.2296  0.2923
 8770SOL    HW237240   5.437   8.598   4.939  0.9631  0.1603  1.3625
 8771SOL     OW37241   1.368   3.273   2.186 -0.1483 -0.1583  0.7485
 8771SOL    HW137242   1.398   3.362   2.222 -0.7058  0.4988 -0.3762
 8771SOL    HW237243   1.269   3.265   2.198 -0.2688 -0.1263 -0.2042
 8772SOL     OW37244   6.185   0.077   4.319  0.0521 -0.0422  0.0747
 8772SOL    HW137245   6.093   0.056   4.350  0.1199  0.1647  0.4275
 8772SOL    HW237246   6.195   0.052   4.223 -0.7260  0.9982 -0.2888
 8773SOL     OW37247   9.682   9.236   3.790 -0.0429  0.0835  0.2208
 8773SOL    HW137248   9.766   9.192   3.759 -0.0121 -0.4611  1.0705
 8773SOL    HW237249   9.646   9.294   3.717  1.6756  1.2108  0.2308
 8774SOL     OW37250   9.410   1.133   0.871  0.1698  0.1583  0.1037
 8774SOL    HW137251   9.500   1.169   0.846 -0.5272  1.5595 -0.3973
 8774SOL    HW237252   9.354   1.123   0.789 -0.3732 -0.0525  0.4981
 8775SOL     OW37253   8.368   4.726   1.147 -0.4451  0.5719  0.0162
 8775SOL    HW137254   8.440   4.658   1.133 -0.7180 -0.2216  2.2953
 8775SOL    HW237255   8.297   4.715   1.076  0.8501  0.2917 -1.2512
 8776SOL     OW37256   3.214   3.527   4.634 -0.3708 -0.0879 -0.3706
 8776SOL    HW137257   3.265   3.499   4.552  1.3419  1.3431  0.1886
 8776SOL    HW237258   3.192   3.624   4.628 -2.3729 -0.4926 -0.2096
 8777SOL     OW37259   3.266   6.334   4.004  0.0040 -0.0082 -0.2220
 8777SOL    HW137260   3.216   6.421   3.998  1.1455  0.7752  1.3336
 8777SOL    HW237261   3.320   6.321   3.921 -1.6077 -0.1543 -1.2801
 8778SOL     OW37262   7.660   1.454   5.148 -0.1574  0.3231  0.8293
 8778SOL    HW137263   7.678   1.548   5.178  1.9780  0.3077 -0.3117
 8778SOL    HW237264   7.566   1.429   5.171 -0.8757  2.8780  0.8140
 8779SOL     OW37265   0.336   7.597   1.978 -0.0899  0.1887 -0.1789
 8779SOL    HW137266   0.262   7.664   1.978  0.9253  1.3485  0.2388
 8779SOL    HW237267   0.313   7.521   1.918 -2.1973 -0.1261  1.0019
 8780SOL     OW37268   0.380   2.237   4.246  0.1153 -0.1656 -0.0439
 8780SOL    HW137269   0.467   2.285   4.247  1.2763 -2.1789 -0.9742
 8780SOL    HW237270   0.329   2.264   4.164 -0.2571  1.1897  0.6211
 8781SOL     OW37271   1.755   6.752   2.982  0.3219  0.2097 -0.1358
 8781SOL    HW137272   1.771   6.848   2.960  1.5394  0.5094  1.9824
 8781SOL    HW237273   1.785   6.733   3.075 -2.9971 -1.4737  0.6570
 8782SOL     OW37274   9.228   8.747   0.610  0.5602  1.1525  0.0114
 8782SOL    HW137275   9.140   8.785   0.641  0.2311  0.0247  0.4919
 8782SOL    HW237276   9.257   8.794   0.527 -0.5305  1.5014 -0.1827
 8783SOL     OW37277   6.007   1.191   4.980 -0.1107 -0.1588  0.2421
 8783SOL    HW137278   6.056   1.221   5.061 -0.4603  0.6590  0.1545
 8783SOL    HW237279   5.973   1.098   4.994 -1.4320  0.5184  1.5993
 8784SOL     OW37280   6.878   0.277   5.877  0.2224 -0.3316  0.9627
 8784SOL    HW137281   6.814   0.200   5.877 -1.2161  0.8560  1.1151
 8784SOL    HW237282   6.918   0.287   5.786  2.0110 -2.5324  1.4380
 8785SOL     OW37283   9.909   2.020   1.268 -0.1196 -0.5275 -0.2116
 8785SOL    HW137284   9.877   2.104   1.225 -0.2587 -0.5543 -0.1597
 8785SOL    HW237285   9.899   1.944   1.203  0.8538 -0.3495 -0.5824
 8786SOL     OW37286   4.220   7.889   0.626 -0.1695 -0.2214  0.0848
 8786SOL    HW137287   4.311   7.888   0.665 -0.3923  4.6104  0.9836
 8786SOL    HW237288   4.226   7.883   0.526  0.9498 -1.7806  0.2226
 8787SOL     OW37289   7.963   9.962   4.368 -0.1170 -0.1261  0.7094
 8787SOL    HW137290   7.921  10.051   4.384  0.3248  0.4270 -1.0675
 8787SOL    HW237291   7.940   9.931   4.275  1.0932 -1.0938  0.7232
 8788SOL     OW37292   5.130   7.609   5.123  0.5559 -0.0654 -0.1445
 8788SOL    HW137293   5.123   7.627   5.221 -1.2653 -0.0711 -0.2542
 8788SOL    HW237294   5.135   7.696   5.074  1.4031 -0.0608 -0.0552
 8789SOL     OW37295   9.358   9.189   3.185  0.1453 -0.1558  0.0702
 8789SOL    HW137296   9.296   9.229   3.117 -1.0333  0.0020  1.2296
 8789SOL    HW237297   9.341   9.230   3.274  1.5571 -0.5045  0.5150
 8790SOL     OW37298   1.849   4.445   6.426  0.3739 -0.0212 -0.5400
 8790SOL    HW137299   1.848   4.365   6.487  0.7695  0.2881 -0.1199
 8790SOL    HW237300   1.932   4.443   6.370  0.4002  0.1103 -0.5060
 8791SOL     OW37301   8.236   1.655   5.845  0.1688  0.5600 -0.1753
 8791SOL    HW137302   8.279   1.727   5.791  0.2719 -0.1986 -1.1182
 8791SOL    HW237303   8.136   1.663   5.836  0.1493  1.2698  0.6307
 8792SOL     OW37304   1.314   7.391   4.328  0.2585 -0.3609 -0.8734
 8792SOL    HW137305   1.228   7.415   4.374  1.2447 -2.0616  2.0217
 8792SOL    HW237306   1.314   7.293   4.307  1.6382 -0.4611 -0.4648
 8793SOL     OW37307   3.511   2.452   4.359 -0.0318 -0.0949 -0.0053
 8793SOL    HW137308   3.465   2.444   4.447 -0.7116 -0.7976 -0.4168
 8793SOL    HW237309   3.462   2.397   4.291  1.9564 -1.6617 -0.2331
 8794SOL     OW37310   6.086   1.195   1.696 -0.2006 -0.0749 -0.6188
 8794SOL    HW137311   6.175   1.154   1.678 -0.8949 -1.6434 -0.5692
 8794SOL    HW237312   6.023   1.125   1.729 -1.6882  0.8576 -1.4132
 8795SOL     OW37313   6.212   9.156   4.662 -0.0216 -0.7123 -0.0200
 8795SOL    HW137314   6.185   9.240   4.616  1.4401 -0.0741  0.2427
 8795SOL    HW237315   6.132   9.113   4.704 -0.6471  1.0596  0.6634
 8796SOL     OW37316   1.865   1.744   4.055 -0.4424 -0.3137 -0.8886
 8796SOL    HW137317   1.807   1.802   4.113 -0.3110 -0.5684 -0.4984
 8796SOL    HW237318   1.820   1.730   3.967 -1.2114 -0.9045 -0.4149
 8797SOL     OW37319   4.206   4.427   1.624 -0.3284 -0.4271  0.4809
 8797SOL    HW137320   4.137   4.471   1.682 -0.7397 -0.5775  0.1046
 8797SOL    HW237321   4.171   4.341   1.589 -1.1797  0.9932 -2.3116
 8798SOL     OW37322   6.874   1.367   4.441 -0.0283 -0.0090  0.3736
 8798SOL    HW137323   6.880   1.357   4.540 -1.3621  1.9160  0.6833
 8798SOL    HW237324   6.782   1.400   4.417 -0.2501 -1.9760 -1.6383
 8799SOL     OW37325   7.146   6.486   4.211  0.1944 -0.2058 -0.4691
 8799SOL    HW137326   7.087   6.556   4.172 -0.7233 -0.2260  0.8288
 8799SOL    HW237327   7.184   6.518   4.298 -0.3137 -1.3183  0.1902
 8800SOL     OW37328   9.367   1.791   3.130  0.1275  0.1261 -0.2530
 8800SOL    HW137329   9.274   1.759   3.146 -0.2497  0.6800 -1.3348
 8800SOL    HW237330   9.401   1.837   3.213 -1.0635  1.1786 -0.3306
 8801SOL     OW37331   2.761   4.985   1.982  0.4271 -0.0403 -0.1777
 8801SOL    HW137332   2.708   5.025   1.907  1.2249  0.1867 -0.6291
 8801SOL    HW237333   2.699   4.956   2.055 -0.2518  1.0378 -0.3060
 8802SOL     OW37334   0.413   2.035   3.318 -0.3576  0.5461 -0.4726
 8802SOL    HW137335   0.386   1.941   3.339 -0.6938  0.8666  0.5622
 8802SOL    HW237336   0.340   2.079   3.266  0.3340 -0.1467 -2.0710
 8803SOL     OW37337   8.481   0.243   0.770  0.5137 -0.6440  0.4637
 8803SOL    HW137338   8.555   0.240   0.838 -0.9039  0.1279  2.0957
 8803SOL    HW237339   8.453   0.337   0.756 -0.2237 -0.9440 -0.0728
 8804SOL     OW37340   2.265   7.376   4.628 -0.6436 -0.0179 -0.4547
 8804SOL    HW137341   2.208   7.405   4.705  1.3663  0.1334  1.0157
 8804SOL    HW237342   2.215   7.311   4.572 -1.0541 -2.5399  2.7198
 8805SOL     OW37343   1.478   0.429   3.128 -0.1389 -0.3876 -0.3487
 8805SOL    HW137344   1.432   0.389   3.049 -0.6563  0.7635 -0.6318
 8805SOL    HW237345   1.577   0.431   3.111 -0.2936  0.3176 -1.1729
 8806SOL     OW37346   5.483   0.515   2.213  0.2390 -0.5051 -0.2418
 8806SOL    HW137347   5.472   0.513   2.113  1.2722 -1.2048 -0.3493
 8806SOL    HW237348   5.458   0.426   2.251  1.0711 -0.6519 -0.0187
 8807SOL     OW37349   9.302   9.306   4.498  0.6873  0.1594 -0.2110
 8807SOL    HW137350   9.359   9.231   4.464  0.6324  0.4233 -0.8895
 8807SOL    HW237351   9.296   9.377   4.428  0.9212  0.8997  0.5080
 8808SOL     OW37352   3.827   2.863   1.557 -0.2799  0.4074  0.5435
 8808SOL    HW137353   3.826   2.783   1.617  0.2753 -1.0362 -1.3140
 8808SOL    HW237354   3.737   2.905   1.557 -1.5549 -2.1724 -0.9507
 8809SOL     OW37355   0.445   1.814   3.754 -0.4013 -0.2368 -0.4221
 8809SOL    HW137356   0.469   1.909   3.734  0.4429 -0.5426 -0.9035
 8809SOL    HW237357   0.458   1.795   3.851  1.3458 -0.3885 -0.6660
 8810SOL     OW37358   4.337   4.836   1.630  0.4495 -0.0373  0.0602
 8810SOL    HW137359   4.257   4.883   1.669  0.0589  2.5069 -3.5488
 8810SOL    HW237360   4.309   4.784   1.550  2.1614 -0.3894 -0.3285
 8811SOL     OW37361   5.587   1.628   2.381 -0.8716  0.3741 -0.0668
 8811SOL    HW137362   5.660   1.570   2.417 -2.0843 -0.0583  1.7361
 8811SOL    HW237363   5.501   1.578   2.382 -1.4396  1.3090 -1.0241
 8812SOL     OW37364   2.746   8.041   4.538 -0.2478  0.5900 -0.9584
 8812SOL    HW137365   2.776   8.071   4.447  0.2527  0.7668 -0.7310
 8812SOL    HW237366   2.796   8.091   4.608  0.2740 -0.4688 -0.5775
 8813SOL     OW37367   0.446   2.423   0.962 -0.0806 -0.4204 -0.4338
 8813SOL    HW137368   0.351   2.443   0.935 -0.1803 -0.5464 -0.1825
 8813SOL    HW237369   0.505   2.428   0.882  0.1757  2.5840 -0.1172
 8814SOL     OW37370   5.018   7.214   4.978  0.0998  0.0797 -0.2587
 8814SOL    HW137371   5.103   7.207   5.029  0.7885 -1.3596 -1.5662
 8814SOL    HW237372   4.976   7.303   4.995  1.3415  0.4097  1.1790
 8815SOL     OW37373   9.111   3.001   5.204 -0.4732  0.1391  0.4296
 8815SOL    HW137374   9.182   3.010   5.134 -1.1311 -1.3247 -0.4345
 8815SOL    HW237375   9.063   2.914   5.193 -0.8361  0.0562  2.4749
 8816SOL     OW37376   1.416   3.856   3.796 -0.0140  0.3362  0.7748
 8816SOL    HW137377   1.454   3.883   3.884 -1.6821  0.2200  1.5656
 8816SOL    HW237378   1.331   3.805   3.811 -0.2038  0.1268 -0.8969
 8817SOL     OW37379   1.116   5.768   6.484 -0.0650 -0.3717 -0.0206
 8817SOL    HW137380   1.207   5.788   6.447  0.8464 -2.0463  1.2356
 8817SOL    HW237381   1.099   5.669   6.478 -0.2958 -0.5657  3.0511
 8818SOL     OW37382   8.967   6.210   2.167  0.0184 -0.5203  0.7079
 8818SOL    HW137383   8.903   6.250   2.233 -0.9996  1.3585 -1.3622
 8818SOL    HW237384   8.960   6.258   2.080  0.2348 -3.9146 -1.2726
 8819SOL     OW37385   3.767   7.431   1.268 -0.0429  0.4295 -0.2836
 8819SOL    HW137386   3.706   7.479   1.330 -0.9943  0.5735 -1.3274
 8819SOL    HW237387   3.753   7.463   1.175  0.5417 -0.6308 -0.7482
 8820SOL     OW37388   4.742   9.100   2.609  0.1778  0.0702  0.5156
 8820SOL    HW137389   4.655   9.082   2.563  1.0912  0.2024 -1.2860
 8820SOL    HW237390   4.725   9.122   2.705 -1.8431  0.9348 -0.0240
 8821SOL     OW37391   1.503   7.604   4.380 -0.2947 -0.0528  0.1817
 8821SOL    HW137392   1.423   7.548   4.359  1.4247 -1.3422 -3.2424
 8821SOL    HW237393   1.554   7.563   4.455 -0.0100 -2.1441 -1.1273
 8822SOL     OW37394   1.989   0.066   3.398  0.0668 -0.0935 -0.0873
 8822SOL    HW137395   2.083   0.071   3.364  0.1225  2.1372  0.3190
 8822SOL    HW237396   1.983  -0.005   3.468  1.9966  1.2095  1.4767
 8823SOL     OW37397   3.388   0.826   3.335  0.1682  0.2174 -0.4105
 8823SOL    HW137398   3.401   0.912   3.384 -1.6396 -0.0270  0.5281
 8823SOL    HW237399   3.353   0.757   3.397  1.0762 -1.0687 -1.2867
 8824SOL     OW37400   0.974   6.397   2.895 -0.1848  0.2059  0.0024
 8824SOL    HW137401   0.896   6.361   2.845  0.3509 -2.3756  0.9395
 8824SOL    HW237402   1.042   6.434   2.831  0.2482 -2.5485 -1.1855
 8825SOL     OW37403   9.767   8.213   2.649 -0.8299 -0.0487  0.4628
 8825SOL    HW137404   9.790   8.199   2.553 -0.4196 -0.1099  0.5684
 8825SOL    HW237405   9.738   8.127   2.690 -0.8948 -0.0455  0.4237
 8826SOL     OW37406   3.156   0.870   2.822  1.2389 -0.0631 -0.5648
 8826SOL    HW137407   3.129   0.961   2.790 -1.0679 -0.1643  0.9058
 8826SOL    HW237408   3.170   0.873   2.921  1.5910 -1.2177 -0.5721
 8827SOL     OW37409   2.848   7.802   4.097  0.0660 -0.0657  0.3463
 8827SOL    HW137410   2.841   7.716   4.047  0.1823 -0.5613  1.1734
 8827SOL    HW237411   2.772   7.862   4.070 -0.7236 -0.9014  0.6643
 8828SOL     OW37412   3.238   4.092   3.577 -0.4363  0.2228  0.4128
 8828SOL    HW137413   3.142   4.082   3.554 -0.4904  0.6356  0.4627
 8828SOL    HW237414   3.288   4.009   3.551 -1.0688 -0.5839  1.7260
 8829SOL     OW37415   9.287   8.384   0.378 -0.1605  0.3146  0.2411
 8829SOL    HW137416   9.379   8.388   0.340 -0.2441  1.3820  0.1556
 8829SOL    HW237417   9.257   8.475   0.406 -0.8958 -0.1408  0.9806
 8830SOL     OW37418   2.513   2.855   2.998 -0.1845 -0.0478  0.3365
 8830SOL    HW137419   2.484   2.950   2.982  0.1214 -0.1172 -0.7144
 8830SOL    HW237420   2.592   2.855   3.059 -0.1039  0.3840  0.2391
 8831SOL     OW37421   2.534   7.539   3.640  0.0303  0.1127  0.2080
 8831SOL    HW137422   2.572   7.459   3.594 -0.2958  0.8220 -1.3735
 8831SOL    HW237423   2.606   7.608   3.650 -0.1512  0.3741 -0.2465
 8832SOL     OW37424   9.497   0.924   2.290 -0.2675 -0.2616 -0.0162
 8832SOL    HW137425   9.595   0.911   2.310  0.1934  1.7363 -0.7895
 8832SOL    HW237426   9.447   0.938   2.375  0.4591  0.6698  0.2680
 8833SOL     OW37427   1.220   8.148   5.947  0.3037  0.1972  0.5138
 8833SOL    HW137428   1.155   8.209   5.991  0.1216 -0.2821  0.9017
 8833SOL    HW237429   1.172   8.071   5.905  0.7044 -0.7709  1.7918
 8834SOL     OW37430   2.669   4.184   6.716  0.2543  0.2217 -0.1163
 8834SOL    HW137431   2.752   4.241   6.717  0.2223  0.2667  0.5901
 8834SOL    HW237432   2.692   4.092   6.686  0.4920  0.3408 -0.3018
 8835SOL     OW37433   2.391   4.116   3.862 -0.5824 -0.3982 -0.0974
 8835SOL    HW137434   2.308   4.160   3.828 -0.9339  1.0542  2.5371
 8835SOL    HW237435   2.471   4.159   3.821 -1.0688 -1.1762 -1.9208
 8836SOL     OW37436   4.212   2.230   0.564  0.2073  0.5467  0.3663
 8836SOL    HW137437   4.297   2.197   0.605  0.3327  0.8591  0.3528
 8836SOL    HW237438   4.225   2.321   0.526 -0.2850  0.8366  0.8801
 8837SOL     OW37439   3.577   9.404   0.968 -0.1148  0.1077 -0.0709
 8837SOL    HW137440   3.488   9.358   0.972 -0.5258  0.6119 -2.5877
 8837SOL    HW237441   3.564   9.498   0.937  1.3506 -0.0669 -1.2729
 8838SOL     OW37442   9.516   5.128   4.142  0.5030  0.2098  0.3476
 8838SOL    HW137443   9.606   5.084   4.141 -0.5060 -1.8795 -0.1721
 8838SOL    HW237444   9.521   5.214   4.090  1.7503 -0.8085 -1.2758
 8839SOL     OW37445   8.487   6.969   4.922  0.1979  0.5782  0.1038
 8839SOL    HW137446   8.544   6.976   4.841 -0.6319  2.4036 -0.3595
 8839SOL    HW237447   8.485   6.875   4.954  3.3082  0.4411  0.0456
 8840SOL     OW37448   0.808   4.351   0.345 -0.0982 -0.2011  0.3354
 8840SOL    HW137449   0.762   4.297   0.275  0.0406 -0.1003  0.1641
 8840SOL    HW237450   0.743   4.375   0.417 -0.4036  0.2427 -0.0839
 8841SOL     OW37451   4.090   6.866   3.291  0.6550  0.5241  0.1984
 8841SOL    HW137452   4.136   6.812   3.361 -0.4521 -0.8220 -0.1020
 8841SOL    HW237453   4.068   6.808   3.213  0.0750  1.5669 -0.4252
 8842SOL     OW37454   8.933   5.733   5.216 -0.0521  0.1175 -0.1940
 8842SOL    HW137455   8.930   5.700   5.310  1.5225  2.3170  0.6443
 8842SOL    HW237456   9.013   5.694   5.170  1.3770  2.1100  0.5671
 8843SOL     OW37457   1.853   2.727   0.979 -0.1144 -0.9379 -0.1710
 8843SOL    HW137458   1.917   2.651   0.969  0.5029 -0.6264  1.2448
 8843SOL    HW237459   1.904   2.813   0.986 -0.8632 -0.1403 -3.7030
 8844SOL     OW37460   7.102   0.843   0.165  0.2754 -0.6878  0.1027
 8844SOL    HW137461   7.071   0.832   0.070  0.9376 -0.7989 -0.1029
 8844SOL    HW237462   7.187   0.895   0.166  0.4828 -1.0386  0.6069
 8845SOL     OW37463   3.831   8.229   3.728  0.0854  0.7639  0.2165
 8845SOL    HW137464   3.776   8.171   3.668  0.9330  0.8338 -0.6205
 8845SOL    HW237465   3.928   8.208   3.717  0.2941  1.2220  1.0907
 8846SOL     OW37466   2.382   0.449   3.773 -0.0888  0.5711  0.0088
 8846SOL    HW137467   2.333   0.535   3.785  0.4466  0.8269  0.4151
 8846SOL    HW237468   2.398   0.433   3.675  0.6608  1.4254 -0.0178
 8847SOL     OW37469   2.361   9.854   4.140 -0.8200  0.2224 -0.2836
 8847SOL    HW137470   2.437   9.792   4.118  0.8014  1.9644  0.3572
 8847SOL    HW237471   2.339   9.846   4.237 -1.3909 -0.1812 -0.4410
 8848SOL     OW37472   2.696   1.704   4.177  0.4561 -0.2626  0.2481
 8848SOL    HW137473   2.616   1.749   4.215 -0.4365 -1.5121 -0.1059
 8848SOL    HW237474   2.734   1.759   4.102 -0.1530  0.2597  0.3221
 8849SOL     OW37475   2.282   5.829   0.622 -0.3601  0.2076 -0.4877
 8849SOL    HW137476   2.337   5.746   0.629 -0.4291 -0.0077 -2.3574
 8849SOL    HW237477   2.185   5.805   0.633 -0.1932  0.4204  1.5945
 8850SOL     OW37478   5.572   8.102   3.886  0.6035  0.0750 -0.1230
 8850SOL    HW137479   5.495   8.144   3.837 -1.1099 -0.5294  1.9850
 8850SOL    HW237480   5.623   8.043   3.823 -0.7972  0.2867 -1.4853
 8851SOL     OW37481   0.551   2.237   2.349 -0.5821 -0.0833  0.2247
 8851SOL    HW137482   0.546   2.138   2.337 -0.5522 -0.1204  0.5098
 8851SOL    HW237483   0.515   2.283   2.267  1.7495 -0.3183 -0.9718
 8852SOL     OW37484   6.808   1.134   0.774  0.1030 -0.3946  0.1970
 8852SOL    HW137485   6.710   1.124   0.757  0.3288  0.2882 -1.5568
 8852SOL    HW237486   6.825   1.220   0.822 -0.0167  0.2518 -0.8973
 8853SOL     OW37487   7.057   0.290   0.742  0.6622  0.6459  0.2026
 8853SOL    HW137488   7.043   0.274   0.839 -0.2286 -1.2929 -0.2257
 8853SOL    HW237489   6.985   0.350   0.707 -0.6718 -0.9682  0.1573
 8854SOL     OW37490   8.150   1.527   1.059  0.1625  0.1528  0.1076
 8854SOL    HW137491   8.148   1.427   1.056 -1.1103  0.1530  0.6667
 8854SOL    HW237492   8.058   1.563   1.047  0.5797  1.2600  0.1415
 8855SOL     OW37493   1.322   7.005   5.853 -0.2859 -0.2640 -0.6597
 8855SOL    HW137494   1.405   6.994   5.907 -1.8181 -0.7523  1.6871
 8855SOL    HW237495   1.342   6.990   5.756  2.4311  0.1503 -0.1947
 8856SOL     OW37496   2.008   4.975   0.268 -0.3782 -0.0331 -0.3137
 8856SOL    HW137497   1.925   5.027   0.290  0.6446  2.0175 -1.1411
 8856SOL    HW237498   2.051   4.945   0.353 -0.8764  0.6682  0.1977
 8857SOL     OW37499   5.901   0.644   2.104 -0.2547 -0.2980  0.1163
 8857SOL    HW137500   5.839   0.630   2.027 -0.2191 -0.0804  0.0465
 8857SOL    HW237501   5.869   0.591   2.183 -0.4489 -0.3016  0.0365
 8858SOL     OW37502   1.173   6.715   6.224  0.4308  0.6234  0.5142
 8858SOL    HW137503   1.144   6.641   6.284 -0.2800 -0.3396 -0.9719
 8858SOL    HW237504   1.125   6.707   6.136  2.7345  0.9694 -0.8079
 8859SOL     OW37505   4.233   6.809   4.073 -0.2994  0.0646 -0.4463
 8859SOL    HW137506   4.229   6.908   4.058 -0.5724  0.2690  0.8952
 8859SOL    HW237507   4.159   6.782   4.135  1.2120 -0.6283  1.0932
 8860SOL     OW37508   1.385   2.910   2.459 -0.1919  0.1809  0.3998
 8860SOL    HW137509   1.432   2.977   2.403 -0.8025 -0.4959 -0.9376
 8860SOL    HW237510   1.430   2.821   2.449 -0.1133  0.1237  1.2300
 8861SOL     OW37511   4.066   9.780   3.761 -0.0775  0.2843  0.8106
 8861SOL    HW137512   4.135   9.708   3.760 -0.3943 -0.0228  1.2410
 8861SOL    HW237513   4.099   9.857   3.816 -0.5896 -0.3610  2.0183
 8862SOL     OW37514   9.198   1.636   1.330  0.4940  0.1861  0.0072
 8862SOL    HW137515   9.158   1.710   1.383  0.1266 -1.2120  1.7480
 8862SOL    HW237516   9.297   1.633   1.347  0.6479  0.8364 -0.7698
 8863SOL     OW37517   8.475   9.771   2.780 -0.3036  0.0711 -0.3263
 8863SOL    HW137518   8.575   9.767   2.790 -0.3055  0.1414 -0.2794
 8863SOL    HW237519   8.443   9.862   2.804 -0.3393  0.1570 -0.6992
 8864SOL     OW37520   2.632   3.021   4.224  0.5979 -0.0831  0.2338
 8864SOL    HW137521   2.617   2.926   4.196  0.6257 -0.2585  0.8148
 8864SOL    HW237522   2.575   3.041   4.304  0.6780  0.3581  0.1794
 8865SOL     OW37523   0.943   4.551   0.167  0.4735 -0.3205  0.4743
 8865SOL    HW137524   1.003   4.504   0.103 -0.3787 -1.9231  0.8064
 8865SOL    HW237525   0.921   4.489   0.243 -2.1993 -0.0617 -0.0262
 8866SOL     OW37526   0.063   6.398   3.202 -0.2347  0.4877  0.3026
 8866SOL    HW137527   0.043   6.301   3.218 -1.4376 -0.0277 -3.7041
 8866SOL    HW237528   0.162   6.412   3.204  0.0356 -1.1375 -0.3735
 8867SOL     OW37529   0.805   6.628   4.412  0.2896  0.0022 -0.2948
 8867SOL    HW137530   0.831   6.614   4.508  1.4657 -3.4960 -1.0527
 8867SOL    HW237531   0.705   6.630   4.405  0.1755 -0.5477  0.9260
 8868SOL     OW37532   2.412   3.054   1.176 -0.2546  0.2187 -0.4815
 8868SOL    HW137533   2.492   3.109   1.198  0.9036 -1.3443 -0.6732
 8868SOL    HW237534   2.332   3.089   1.224  0.6008  1.6452 -0.0965
 8869SOL     OW37535   1.631   0.285   4.205  0.2110  0.2024 -0.2288
 8869SOL    HW137536   1.545   0.236   4.213  0.7289 -0.3535  2.1631
 8869SOL    HW237537   1.680   0.253   4.123 -1.4834 -0.0211 -1.1646
 8870SOL     OW37538   4.953   4.461   1.610 -0.1169  0.0557 -0.2644
 8870SOL    HW137539   5.041   4.507   1.615 -0.2159  0.3764 -1.3202
 8870SOL    HW237540   4.892   4.498   1.680  0.6230 -0.2740  0.5718
 8871SOL     OW37541   1.387   4.643   5.628 -0.5586 -0.1055  0.0431
 8871SOL    HW137542   1.462   4.657   5.693 -0.7580  0.6885  0.1145
 8871SOL    HW237543   1.320   4.580   5.666  0.9478 -2.2614 -0.7505
 8872SOL     OW37544   4.983   2.871   4.225  0.5944 -0.2007 -0.4070
 8872SOL    HW137545   5.070   2.858   4.273 -0.4504 -2.6218  0.8776
 8872SOL    HW237546   4.950   2.783   4.191 -2.1134  0.4691  0.4022
 8873SOL     OW37547   7.459   2.679   0.743 -0.2649  0.1039 -0.1485
 8873SOL    HW137548   7.435   2.716   0.833  0.5135 -2.6108  1.2470
 8873SOL    HW237549   7.557   2.686   0.729 -0.3554  0.3020 -0.6826
 8874SOL     OW37550   0.787   8.891   2.466 -0.1309 -0.0203 -0.7376
 8874SOL    HW137551   0.688   8.896   2.456 -0.3309  0.9982  1.3162
 8874SOL    HW237552   0.828   8.977   2.436 -0.2655  1.0362  1.9317
 8875SOL     OW37553   5.309   5.651   0.979  0.0542 -0.1629 -0.4098
 8875SOL    HW137554   5.223   5.617   1.017  0.6271 -1.0286  0.1301
 8875SOL    HW237555   5.313   5.750   0.987 -2.0128  0.1706 -2.7332
 8876SOL     OW37556   8.655   6.771   1.117 -0.0350 -0.6739  0.5553
 8876SOL    HW137557   8.727   6.784   1.049 -0.8428  1.2001  0.0440
 8876SOL    HW237558   8.683   6.700   1.182  1.8122 -0.7095 -0.2620
 8877SOL     OW37559   3.035   0.718   3.457 -0.2850 -0.5673 -0.4739
 8877SOL    HW137560   2.979   0.695   3.537  0.6812 -1.2199  0.0299
 8877SOL    HW237561   3.051   0.635   3.404  0.0281 -0.3472 -0.7227
 8878SOL     OW37562   3.104   4.958   6.159  0.4008 -0.7244  0.1086
 8878SOL    HW137563   3.123   4.887   6.090 -0.4770 -2.1960  1.3482
 8878SOL    HW237564   3.191   4.994   6.195  0.8532 -0.9234 -0.7770
 8879SOL     OW37565   1.657   6.910   4.585 -0.2410  0.2454  0.7168
 8879SOL    HW137566   1.600   6.829   4.597  0.3092 -0.1931  0.3679
 8879SOL    HW237567   1.606   6.979   4.533 -0.6292  0.0369  0.8203
 8880SOL     OW37568   9.482   8.010   4.084 -0.1505 -0.2331 -0.7295
 8880SOL    HW137569   9.436   7.973   4.004 -0.3846  0.2475 -0.8218
 8880SOL    HW237570   9.456   7.958   4.165  0.0340 -0.6765 -0.9575
 8881SOL     OW37571   5.852   0.039   2.921 -0.0143  0.2511  0.4691
 8881SOL    HW137572   5.857   0.113   2.989  0.3359  1.7958 -1.2064
 8881SOL    HW237573   5.942  -0.002   2.910  0.0070  0.2459  0.6645
 8882SOL     OW37574   1.839   4.665   0.667  0.5284 -0.2062 -0.1721
 8882SOL    HW137575   1.818   4.579   0.621  0.7922  0.3044 -1.2634
 8882SOL    HW237576   1.850   4.738   0.599  0.1528  0.7280  0.7393
 8883SOL     OW37577   0.344   7.515   4.625 -0.1353  0.1361  0.5108
 8883SOL    HW137578   0.425   7.481   4.672  0.5371  0.9211 -0.0660
 8883SOL    HW237579   0.316   7.602   4.666  1.8294  2.0176 -1.9756
 8884SOL     OW37580   2.812   0.134   3.151 -0.6498 -0.4431  0.4225
 8884SOL    HW137581   2.849   0.188   3.076 -0.6960 -1.0853 -0.0619
 8884SOL    HW237582   2.838   0.176   3.238 -1.7740  1.0780  0.0317
 8885SOL     OW37583   7.256   8.468   4.249  0.7007  0.0159  0.1633
 8885SOL    HW137584   7.221   8.413   4.325  2.4402  1.7108  2.2589
 8885SOL    HW237585   7.342   8.428   4.216 -0.2587 -0.9478 -1.2137
 8886SOL     OW37586   8.605   2.277   3.087 -0.7946  0.5309 -0.2132
 8886SOL    HW137587   8.589   2.267   2.989 -0.8461  0.5146 -0.2028
 8886SOL    HW237588   8.609   2.186   3.129 -0.7009  0.5355 -0.2120
 8887SOL     OW37589   9.578   7.270   0.890  0.3963 -0.1503 -0.0831
 8887SOL    HW137590   9.503   7.278   0.825 -0.1271  0.0408  0.5390
 8887SOL    HW237591   9.542   7.272   0.984  1.1867  0.0743  0.2233
 8888SOL     OW37592   9.764   0.811   4.018 -0.8593  0.1352  0.0199
 8888SOL    HW137593   9.757   0.723   4.064 -2.0007 -0.5804 -1.4761
 8888SOL    HW237594   9.672   0.843   3.993 -0.4038  1.4231 -0.0600
 8889SOL     OW37595   1.340   9.548   4.562  0.1600  0.1806 -0.0947
 8889SOL    HW137596   1.375   9.594   4.480 -2.0875 -0.6947 -1.5892
 8889SOL    HW237597   1.408   9.483   4.594  2.0858  2.2644  0.2067
 8890SOL     OW37598   8.004   1.136   6.357  0.1743  0.0525  0.1278
 8890SOL    HW137599   7.993   1.208   6.426 -0.7186  0.1764 -0.1486
 8890SOL    HW237600   7.946   1.155   6.278  0.6218 -0.4937 -0.3442
 8891SOL     OW37601   2.199   0.427   2.200  0.2949  0.1295  0.5427
 8891SOL    HW137602   2.202   0.480   2.115 -0.7215  0.9208  0.9891
 8891SOL    HW237603   2.156   0.482   2.272  1.4704 -0.3912  1.6743
 8892SOL     OW37604   2.221   8.269   4.159  0.3429  0.5814 -0.1671
 8892SOL    HW137605   2.249   8.175   4.179  0.3107  0.5716 -0.1649
 8892SOL    HW237606   2.138   8.267   4.103 -0.9310  0.6063  1.6625
 8893SOL     OW37607   1.703   7.299   1.689  0.2506  0.1977 -0.1578
 8893SOL    HW137608   1.699   7.390   1.730 -1.9758  1.5207 -3.1638
 8893SOL    HW237609   1.783   7.293   1.630 -0.2861  0.6670 -0.9445
 8894SOL     OW37610   9.218   2.612   0.525 -0.4234  0.4885 -0.1898
 8894SOL    HW137611   9.311   2.592   0.494 -1.2102  0.3321 -2.5752
 8894SOL    HW237612   9.189   2.542   0.591  1.6113  1.2991  1.6097
 8895SOL     OW37613   8.632   3.957   2.562 -0.8903  0.0587  0.0210
 8895SOL    HW137614   8.719   3.909   2.561 -0.9161 -0.0677  1.7017
 8895SOL    HW237615   8.645   4.051   2.530 -0.4882 -0.4890 -1.4406
 8896SOL     OW37616   4.120   5.891   2.417  0.1398  0.4156 -0.0534
 8896SOL    HW137617   4.022   5.907   2.409 -0.2750 -1.9894 -0.1438
 8896SOL    HW237618   4.170   5.967   2.376 -1.7181  0.6565 -1.9441
 8897SOL     OW37619   5.064   1.841   4.523  0.3629 -0.1190  0.1031
 8897SOL    HW137620   5.060   1.939   4.541 -1.1064 -0.4058  1.4271
 8897SOL    HW237621   5.151   1.804   4.556 -0.0266  0.3403  1.6708
 8898SOL     OW37622   9.937   6.941   2.233 -0.0186  0.1604 -0.2457
 8898SOL    HW137623   9.958   6.945   2.135 -1.1896 -0.4766 -0.5304
 8898SOL    HW237624  10.020   6.920   2.284  0.1747 -1.6724 -1.2899
 8899SOL     OW37625   1.957   0.423   1.601 -0.5033  0.0201  0.1712
 8899SOL    HW137626   1.882   0.456   1.543  0.7016  2.4792 -0.0273
 8899SOL    HW237627   1.940   0.449   1.696 -0.5695 -0.6522  0.3491
 8900SOL     OW37628   3.371   2.411   0.794 -0.6508  0.2225  0.0958
 8900SOL    HW137629   3.306   2.336   0.803  0.2855 -0.9085 -2.2290
 8900SOL    HW237630   3.441   2.387   0.727  1.2097  2.1061  1.3022
 8901SOL     OW37631   6.982   0.018   3.112  0.4389  0.7310  0.3095
 8901SOL    HW137632   7.041  -0.029   3.177  0.8618 -0.1924 -0.7189
 8901SOL    HW237633   6.960  -0.045   3.037  0.0097  1.8013 -0.4623
 8902SOL     OW37634   8.689   5.355   2.753 -0.3311  0.7719  0.1776
 8902SOL    HW137635   8.659   5.449   2.773 -1.7572  0.6575 -1.3095
 8902SOL    HW237636   8.609   5.299   2.732  0.4829 -0.8929  1.4475
 8903SOL     OW37637   7.948   9.978   5.305  0.3773 -0.0815  0.0026
 8903SOL    HW137638   8.035   9.956   5.350  1.3390  0.0080 -1.7559
 8903SOL    HW237639   7.878   9.997   5.374  2.1084  1.1869  1.4380
 8904SOL     OW37640   3.788   7.773   3.556 -0.4004 -0.0328 -0.0908
 8904SOL    HW137641   3.773   7.758   3.458 -1.5323 -1.0716  0.2327
 8904SOL    HW237642   3.706   7.747   3.607  0.2838  0.2328  1.1644
 8905SOL     OW37643   1.320   0.924   1.338 -0.5961 -0.0010 -0.4270
 8905SOL    HW137644   1.405   0.968   1.311 -0.0430 -0.9701 -0.2876
 8905SOL    HW237645   1.291   0.859   1.267  0.5533 -2.1170  0.9591
 8906SOL     OW37646   0.237   7.683   0.170  0.0891 -0.1408  0.2932
 8906SOL    HW137647   0.209   7.733   0.088 -0.6951 -1.9849 -0.5712
 8906SOL    HW237648   0.336   7.693   0.183 -0.0390  1.5806  0.1162
 8907SOL     OW37649   3.100   4.426   5.600 -0.4013 -0.1467  0.0782
 8907SOL    HW137650   3.116   4.328   5.592 -0.1653 -0.0275 -0.9541
 8907SOL    HW237651   3.005   4.447   5.575 -0.5054 -0.1363  0.4834
 8908SOL     OW37652   8.724   8.450   1.286  0.2937 -0.0239 -0.4094
 8908SOL    HW137653   8.710   8.354   1.263  0.1230 -0.7912  2.6671
 8908SOL    HW237654   8.779   8.457   1.370 -2.3224  2.4613  1.1898
 8909SOL     OW37655   2.058   0.045   1.776 -0.2300  0.2830 -0.5545
 8909SOL    HW137656   1.965   0.041   1.812  0.0875  0.2442  0.2569
 8909SOL    HW237657   2.057   0.095   1.689 -1.1552 -0.5728 -1.0432
 8910SOL     OW37658   1.022   7.816   3.807 -0.3207  0.2288  0.2723
 8910SOL    HW137659   1.100   7.757   3.787 -0.0306  0.9938 -0.8589
 8910SOL    HW237660   1.018   7.833   3.906 -0.7249 -2.1125  0.6788
 8911SOL     OW37661   9.347   2.843   0.261 -0.1323 -0.6694 -0.1917
 8911SOL    HW137662   9.305   2.896   0.188 -0.0631 -1.5681 -0.8867
 8911SOL    HW237663   9.358   2.901   0.342 -0.9143  0.1077 -0.6372
 8912SOL     OW37664   8.016   7.932   3.267  0.1003  0.6030 -0.5632
 8912SOL    HW137665   8.110   7.941   3.300  0.1491  0.4314 -0.6574
 8912SOL    HW237666   8.006   7.982   3.181  0.7015 -1.2490 -1.7327
 8913SOL     OW37667   5.186   1.571   0.490  0.2486  0.1438  0.0155
 8913SOL    HW137668   5.256   1.564   0.419  0.8103 -2.5526  0.7936
 8913SOL    HW237669   5.219   1.631   0.563  1.3515 -0.3320 -0.0818
 8914SOL     OW37670   0.510   7.998   6.366 -0.1752  0.1341 -0.0504
 8914SOL    HW137671   0.591   8.053   6.389  1.0252 -1.8640  0.6604
 8914SOL    HW237672   0.465   8.038   6.286  0.7548  2.0338  0.3328
 8915SOL     OW37673   3.430   2.779   3.639 -0.0106 -0.3098 -0.2966
 8915SOL    HW137674   3.383   2.858   3.599 -0.7669  1.4574  3.8328
 8915SOL    HW237675   3.513   2.809   3.686  0.3540 -2.1445  0.2943
 8916SOL     OW37676   0.189   5.208   0.898 -0.0445 -0.1016 -0.4848
 8916SOL    HW137677   0.285   5.223   0.877  0.1568 -0.3307  0.2883
 8916SOL    HW237678   0.133   5.266   0.839  0.6534  2.5314  1.3964
 8917SOL     OW37679   4.260   2.897   1.218 -0.0761  0.8374  0.3452
 8917SOL    HW137680   4.163   2.911   1.238  0.3371  2.4426  1.2812
 8917SOL    HW237681   4.301   2.984   1.190  1.4297  0.4819  1.4284
 8918SOL     OW37682   3.642   7.002   3.217  0.1599  0.3100 -0.5098
 8918SOL    HW137683   3.572   6.974   3.284 -0.2822  1.8038 -0.3357
 8918SOL    HW237684   3.733   6.984   3.254 -0.1038 -0.0393 -0.0211
 8919SOL     OW37685   8.264   0.234   2.827  0.3327 -0.1549  0.5595
 8919SOL    HW137686   8.343   0.246   2.768  1.0034  0.3755  1.5540
 8919SOL    HW237687   8.280   0.280   2.914 -0.6202 -0.9673  1.1789
 8920SOL     OW37688   5.047   8.993   1.501  0.2605  0.2778  0.0390
 8920SOL    HW137689   5.098   9.032   1.424  0.1966 -0.7164 -0.5182
 8920SOL    HW237690   4.951   8.988   1.477 -0.0567  1.7255  0.9175
 8921SOL     OW37691   6.486   9.485   4.044  0.5568 -0.3606  0.0446
 8921SOL    HW137692   6.429   9.476   4.125  0.2857  2.5734  0.2228
 8921SOL    HW237693   6.429   9.481   3.962  0.3759  0.3324  0.1381
 8922SOL     OW37694   1.730   8.772   5.089  0.2665  0.0202  0.3005
 8922SOL    HW137695   1.637   8.791   5.121  1.1700  1.9175  1.9218
 8922SOL    HW237696   1.771   8.857   5.056  0.9102 -1.0974 -1.8983
 8923SOL     OW37697   9.094   8.341   5.410 -0.1399 -0.7202 -0.4828
 8923SOL    HW137698   9.149   8.345   5.326  0.6808 -0.4363  0.0649
 8923SOL    HW237699   9.154   8.350   5.489 -0.9852 -0.3939  0.1207
 8924SOL     OW37700   9.026   5.989   2.494 -0.1254 -0.4165 -0.4549
 8924SOL    HW137701   8.984   5.985   2.584 -0.7551 -2.8064 -0.8352
 8924SOL    HW237702   9.087   6.068   2.490  0.8916 -0.9861  2.4798
 8925SOL     OW37703   8.807   1.881   1.172  0.0084 -0.4000  0.2315
 8925SOL    HW137704   8.855   1.857   1.088 -1.0301  0.1104 -0.5201
 8925SOL    HW237705   8.741   1.809   1.195  1.9204 -1.6868  1.9183
 8926SOL     OW37706   9.469   9.864   4.603  0.4663  0.0673 -0.0334
 8926SOL    HW137707   9.401   9.810   4.653 -1.6636  1.1641 -1.6519
 8926SOL    HW237708   9.477   9.828   4.510  1.2551  0.6778 -0.2040
 8927SOL     OW37709   9.780   9.534   4.827  0.3683 -0.3506  0.2821
 8927SOL    HW137710   9.811   9.564   4.737  0.2565 -0.7595  0.1080
 8927SOL    HW237711   9.701   9.588   4.855 -0.3582 -1.0546 -0.4040
 8928SOL     OW37712   7.985   6.120   2.577  0.5472 -0.1096  0.1069
 8928SOL    HW137713   8.048   6.050   2.545 -0.2102 -0.4880 -0.5535
 8928SOL    HW237714   7.896   6.107   2.535 -0.4632 -0.5996  2.3438
 8929SOL     OW37715   9.873   5.932   2.989 -0.0492 -0.3272 -0.4856
 8929SOL    HW137716   9.893   6.001   3.058  0.3593  0.5933 -1.4984
 8929SOL    HW237717   9.801   5.966   2.928 -0.8833 -1.3984 -0.1355
 8930SOL     OW37718   6.682   7.615   4.238  0.1160  0.1937 -0.6139
 8930SOL    HW137719   6.674   7.709   4.273 -1.1678 -0.4880  0.9623
 8930SOL    HW237720   6.777   7.599   4.211  0.5702  1.6351  0.0296
 8931SOL     OW37721   1.583   5.795   1.103  0.1634  0.2262  0.1376
 8931SOL    HW137722   1.604   5.763   1.195  2.0324  2.6282  0.6101
 8931SOL    HW237723   1.601   5.721   1.037  0.7385 -0.8754  1.5032
 8932SOL     OW37724   3.853   5.628   0.648 -0.2620 -0.1599  0.0173
 8932SOL    HW137725   3.929   5.666   0.701  0.3487 -1.6172  0.1940
 8932SOL    HW237726   3.794   5.703   0.617  2.1379  1.1607 -1.5421
 8933SOL     OW37727   0.671   5.845   3.088 -0.1216 -0.2818  0.2328
 8933SOL    HW137728   0.719   5.776   3.034 -0.1708  0.3632 -0.6430
 8933SOL    HW237729   0.574   5.825   3.090 -0.0741 -0.4975  0.3688
 8934SOL     OW37730   2.873   3.371   0.698 -0.5059 -0.2451 -0.4568
 8934SOL    HW137731   2.855   3.325   0.785  0.8453 -0.5954 -0.3583
 8934SOL    HW237732   2.963   3.414   0.701 -1.2881  1.4949 -0.9529
 8935SOL     OW37733   9.528   3.117   2.160 -0.1091 -0.7040  0.4914
 8935SOL    HW137734   9.452   3.075   2.208 -1.5864  1.6259  0.2906
 8935SOL    HW237735   9.493   3.181   2.092  2.0222 -0.0681 -0.0432
 8936SOL     OW37736   0.411   0.092   1.646 -0.4371 -0.2530  0.6322
 8936SOL    HW137737   0.441   0.072   1.739 -0.1878 -1.8065  0.2327
 8936SOL    HW237738   0.319   0.055   1.632 -0.7036  0.4836  0.4391
 8937SOL     OW37739   1.565   9.391   4.863  0.1689  0.5069 -0.4155
 8937SOL    HW137740   1.568   9.419   4.766  0.1034 -0.5167 -0.7171
 8937SOL    HW237741   1.470   9.393   4.894 -0.0301 -0.9380 -0.9047
 8938SOL     OW37742   9.564   9.100   1.414  0.1920 -0.0153 -0.2234
 8938SOL    HW137743   9.603   9.093   1.505 -0.4395  1.5608  0.1728
 8938SOL    HW237744   9.608   9.034   1.353  2.5716  0.8691  0.5219
 8939SOL     OW37745   4.157   9.747   1.970  0.3760 -0.0806  0.4741
 8939SOL    HW137746   4.217   9.805   1.915 -0.0270  0.8267  0.9772
 8939SOL    HW237747   4.066   9.787   1.973  0.3561 -0.1824  1.6866
 8940SOL     OW37748   5.940   9.707   2.077  0.1723 -0.2165 -0.2677
 8940SOL    HW137749   5.978   9.617   2.099 -0.1379 -0.1993  0.3618
 8940SOL    HW237750   6.014   9.768   2.048  0.8526  0.2351  2.3135
 8941SOL     OW37751   0.051   2.314   2.017  0.4403 -0.1077 -0.5997
 8941SOL    HW137752  -0.037   2.357   2.039 -0.5228 -1.1217 -2.3484
 8941SOL    HW237753   0.093   2.361   1.940  0.0420 -1.4024 -1.6269
 8942SOL     OW37754   0.912   2.102   3.105 -0.2721 -0.0346 -0.1606
 8942SOL    HW137755   0.842   2.063   3.164  0.3567 -0.5891  0.2216
 8942SOL    HW237756   0.925   2.043   3.025 -2.3746  1.6043 -1.7796
 8943SOL     OW37757   2.137   3.178   5.677 -0.2858 -0.6187  0.5204
 8943SOL    HW137758   2.094   3.239   5.744  1.2231  0.7052  0.3133
 8943SOL    HW237759   2.229   3.154   5.709  0.5268  0.1978 -1.1812
 8944SOL     OW37760   8.971   4.886   2.368 -0.3414  0.0207 -0.1504
 8944SOL    HW137761   9.054   4.896   2.423 -1.2207 -1.5659  1.5069
 8944SOL    HW237762   8.907   4.960   2.389 -0.9715 -0.9778  1.5291
 8945SOL     OW37763   2.856   7.771   4.383 -0.2452 -0.1605 -0.0673
 8945SOL    HW137764   2.772   7.760   4.436  0.7475 -1.4812  1.2844
 8945SOL    HW237765   2.838   7.751   4.286 -1.3569 -1.0357  0.3118
 8946SOL     OW37766   7.058   3.811   1.198  0.0493  0.1709  0.0438
 8946SOL    HW137767   7.009   3.897   1.213 -0.5004  0.1889 -1.7897
 8946SOL    HW237768   7.010   3.756   1.129 -0.0316 -1.9653  1.7378
 8947SOL     OW37769   1.784   4.988   1.516  0.7647  0.2958 -0.3861
 8947SOL    HW137770   1.745   4.924   1.583  0.9625  1.3117  0.7244
 8947SOL    HW237771   1.711   5.044   1.477  0.9061  1.1558  0.5652
 8948SOL     OW37772   5.153   2.571   2.350 -0.0180 -0.0460 -0.3966
 8948SOL    HW137773   5.089   2.591   2.276 -0.5559  1.4757  0.4742
 8948SOL    HW237774   5.103   2.532   2.428 -0.0527  1.8881  0.5898
 8949SOL     OW37775   1.459   3.144   5.118 -0.2410  0.0603 -0.5121
 8949SOL    HW137776   1.475   3.046   5.129 -1.1057 -0.2225 -1.6516
 8949SOL    HW237777   1.385   3.172   5.179 -0.3071 -0.0890 -0.5225
 8950SOL     OW37778   8.328   1.738   0.929  0.4728 -0.3970  0.0424
 8950SOL    HW137779   8.288   1.816   0.881  2.1441 -0.1758 -1.0373
 8950SOL    HW237780   8.255   1.683   0.969 -0.7664  1.4343  0.3936
 8951SOL     OW37781   1.946   2.725   2.836  0.2490  0.3122 -0.2048
 8951SOL    HW137782   1.990   2.705   2.748 -1.7070 -0.5686 -1.0223
 8951SOL    HW237783   1.875   2.794   2.823 -1.7553 -1.6276  0.1766
 8952SOL     OW37784   1.822   9.832   3.052  0.3082 -0.2628 -0.1151
 8952SOL    HW137785   1.846   9.897   3.124  0.8710 -1.3061  0.6717
 8952SOL    HW237786   1.751   9.871   2.993 -0.1694  0.6081  1.0141
 8953SOL     OW37787   1.221   6.188   2.080  0.0918  0.3646  0.6224
 8953SOL    HW137788   1.192   6.161   2.172 -0.2267  0.1757  0.4649
 8953SOL    HW237789   1.174   6.272   2.054 -1.2237 -0.5932 -0.1154
 8954SOL     OW37790   1.374   1.635   3.251 -0.3322  0.0970  0.5574
 8954SOL    HW137791   1.456   1.667   3.205 -0.7951  1.5684  0.7378
 8954SOL    HW237792   1.385   1.644   3.350  0.2670 -2.1015  0.7044
 8955SOL     OW37793   2.536   2.850   1.036  0.5318  0.5729 -0.0471
 8955SOL    HW137794   2.589   2.915   0.982 -1.8823  2.3203 -0.3887
 8955SOL    HW237795   2.475   2.900   1.098  0.4639 -1.3938  1.5391
 8956SOL     OW37796   4.957   0.937   4.074  0.0624  0.2477  0.2062
 8956SOL    HW137797   5.003   0.873   4.136  1.4162 -0.0153 -1.0113
 8956SOL    HW237798   4.859   0.939   4.094  0.0201 -2.1018  0.3919
 8957SOL     OW37799   5.662   7.147   2.748 -0.3377 -0.2891 -0.2718
 8957SOL    HW137800   5.761   7.141   2.737 -0.1997 -0.1440  0.8291
 8957SOL    HW237801   5.617   7.100   2.671  0.5861 -1.2697 -0.2332
 8958SOL     OW37802   9.420   5.740   5.505  0.6282 -0.2959  0.2630
 8958SOL    HW137803   9.506   5.726   5.554  1.9604  0.3146 -1.8220
 8958SOL    HW237804   9.430   5.707   5.411 -0.9795  1.0362 -0.3907
 8959SOL     OW37805   8.763   9.192   1.298 -0.7432 -0.1165 -0.5376
 8959SOL    HW137806   8.785   9.096   1.316  0.4145  0.6329  2.2955
 8959SOL    HW237807   8.845   9.240   1.268 -0.2706  0.9502  2.3923
 8960SOL     OW37808   9.470   7.862   4.316  0.0944 -0.7861 -0.2192
 8960SOL    HW137809   9.534   7.794   4.351 -1.2395 -1.5921  0.7347
 8960SOL    HW237810   9.400   7.881   4.386 -1.3120 -0.7269 -1.6100
 8961SOL     OW37811   2.714   5.607   3.914  0.9936 -0.1653  0.3555
 8961SOL    HW137812   2.768   5.672   3.860 -1.7665  0.8031 -1.4168
 8961SOL    HW237813   2.679   5.653   3.996 -3.5156  1.7810 -2.4122
 8962SOL     OW37814   3.356   7.649   3.249 -0.2153  0.5613  0.0866
 8962SOL    HW137815   3.419   7.627   3.323  0.9071  1.4485 -0.5869
 8962SOL    HW237816   3.293   7.572   3.235 -0.5360  0.4587  2.0440
 8963SOL     OW37817   2.167   3.343   5.374 -0.1701  0.6507  0.3062
 8963SOL    HW137818   2.145   3.358   5.470 -1.1454  2.1034 -0.1363
 8963SOL    HW237819   2.249   3.395   5.351  1.4468 -1.5433  0.9177
 8964SOL     OW37820   8.028   3.695   4.046 -0.8093  0.4200  0.2207
 8964SOL    HW137821   7.954   3.667   3.984 -0.5509  0.4932 -0.1249
 8964SOL    HW237822   8.059   3.616   4.098 -0.4605  0.1758 -0.3512
 8965SOL     OW37823   7.729   7.304   3.268  0.3527 -0.2275 -0.4368
 8965SOL    HW137824   7.690   7.262   3.186  1.9004 -0.5879 -1.0079
 8965SOL    HW237825   7.713   7.244   3.347  0.9250 -1.0212 -0.9128
 8966SOL     OW37826   2.004   8.457   4.797  0.1552  0.2833 -0.1048
 8966SOL    HW137827   2.054   8.519   4.737  0.8912  1.4857  1.7061
 8966SOL    HW237828   2.002   8.365   4.757  1.6474  0.7919 -1.3719
 8967SOL     OW37829   1.028   3.664   1.178 -0.1971  0.9248 -0.1289
 8967SOL    HW137830   1.054   3.614   1.261 -0.5936 -1.1407 -1.2028
 8967SOL    HW237831   0.931   3.689   1.183 -0.7305 -0.8939 -0.7525
 8968SOL     OW37832   2.247   4.882   4.549  0.6115  0.0549 -0.2564
 8968SOL    HW137833   2.296   4.805   4.590  1.3979  1.1893  0.9862
 8968SOL    HW237834   2.149   4.871   4.562  0.7431 -0.6008  0.1708
 8969SOL     OW37835   0.151   2.864   3.256  0.4982 -0.0152 -0.8842
 8969SOL    HW137836   0.192   2.811   3.331  0.7571 -0.5180 -1.3773
 8969SOL    HW237837   0.078   2.921   3.292 -1.0050 -2.0353 -0.6212
 8970SOL     OW37838   6.118   0.038   2.266  0.5080 -0.2191 -0.1065
 8970SOL    HW137839   6.117   0.057   2.168 -0.9316  3.6498  0.5711
 8970SOL    HW237840   6.206   0.064   2.304  0.0450  1.0845  0.0942
 8971SOL     OW37841   3.213   3.666   0.467  0.5338  0.1079 -0.5875
 8971SOL    HW137842   3.281   3.596   0.487 -0.3275 -1.0684 -1.6894
 8971SOL    HW237843   3.228   3.701   0.374 -0.6164 -0.4846 -1.0071
 8972SOL     OW37844   3.043   9.473   3.470  0.4184 -0.1320 -0.4282
 8972SOL    HW137845   2.956   9.424   3.473  0.5387 -0.2780  1.1278
 8972SOL    HW237846   3.025   9.571   3.464  0.1755 -0.2456 -1.9660
 8973SOL     OW37847   3.422   1.549   3.387  0.1495 -0.7588 -0.2309
 8973SOL    HW137848   3.344   1.607   3.411 -0.0004 -1.3689  0.7968
 8973SOL    HW237849   3.389   1.462   3.349  0.2712 -1.5649  1.4472
 8974SOL     OW37850   9.310   6.256   3.726  0.1196  0.4079 -0.1998
 8974SOL    HW137851   9.388   6.214   3.773 -1.0164  0.3892  1.7115
 8974SOL    HW237852   9.342   6.309   3.648  2.1558  1.4664  1.3331
 8975SOL     OW37853   8.765   6.259   1.486  0.1113  0.0293  0.5019
 8975SOL    HW137854   8.795   6.337   1.430 -1.3994  1.7591  2.0046
 8975SOL    HW237855   8.669   6.239   1.466 -0.4845  0.7491  2.5099
 8976SOL     OW37856   1.968   3.518   2.771 -0.2151 -0.1214 -0.4823
 8976SOL    HW137857   1.961   3.426   2.731  0.9802 -0.1210 -0.7047
 8976SOL    HW237858   1.936   3.515   2.866  2.9105 -1.5082  0.6002
 8977SOL     OW37859   7.602   2.015   1.333 -0.1297 -0.2949  0.1448
 8977SOL    HW137860   7.559   2.105   1.322 -1.4185 -0.6847  1.7037
 8977SOL    HW237861   7.567   1.952   1.264 -2.0460 -0.5813  1.3378
 8978SOL     OW37862   7.548   9.718   5.665 -0.3166 -0.0722 -0.3723
 8978SOL    HW137863   7.474   9.662   5.701 -0.3904 -1.0136 -1.9090
 8978SOL    HW237864   7.513   9.775   5.590 -0.2069  1.9358  1.0710
 8979SOL     OW37865   8.387   8.616   3.545  0.1164 -0.0537 -0.0482
 8979SOL    HW137866   8.454   8.688   3.562  3.0074 -3.2680  2.9752
 8979SOL    HW237867   8.328   8.606   3.625 -2.8162  1.4319 -1.9382
 8980SOL     OW37868   8.705   3.378   4.036  0.1801 -0.5138  0.1390
 8980SOL    HW137869   8.699   3.328   3.949 -1.7586 -1.2062  0.6445
 8980SOL    HW237870   8.737   3.471   4.018  2.7783 -1.5528 -0.9353
 8981SOL     OW37871   8.882   4.094   3.016  0.7406  0.2435 -0.6750
 8981SOL    HW137872   8.910   4.028   2.947  1.5356  1.8357 -1.9031
 8981SOL    HW237873   8.962   4.138   3.055  0.2580 -0.1236  0.7456
 8982SOL     OW37874   9.495   8.028   0.310 -0.4307  0.0990 -0.3256
 8982SOL    HW137875   9.451   7.939   0.299  2.0445 -1.0856 -0.8260
 8982SOL    HW237876   9.476   8.084   0.229 -1.5789 -0.1451 -0.2351
 8983SOL     OW37877   2.277   4.607   0.447  0.1117 -0.2334  0.3658
 8983SOL    HW137878   2.209   4.540   0.416  1.3336 -0.1982 -2.5412
 8983SOL    HW237879   2.369   4.573   0.427  0.7687  2.1667 -0.9161
 8984SOL     OW37880   7.391   2.019   3.590 -0.1842 -0.1075 -0.3268
 8984SOL    HW137881   7.425   2.047   3.500  0.5932  0.4954  0.1505
 8984SOL    HW237882   7.310   2.073   3.613 -0.0523  0.1314 -0.4216
 8985SOL     OW37883   2.982   3.236   4.743  0.6316  0.2009 -0.2090
 8985SOL    HW137884   3.030   3.205   4.661  1.0030 -1.4525  0.5901
 8985SOL    HW237885   2.893   3.274   4.718  0.3187 -1.2038 -1.2909
 8986SOL     OW37886   9.075   7.695   3.368 -0.1971 -0.8465  0.4079
 8986SOL    HW137887   9.146   7.679   3.299  0.4161 -1.7954  1.2631
 8986SOL    HW237888   9.052   7.792   3.369 -0.3822 -0.8577 -1.3102
 8987SOL     OW37889   3.809   6.001   2.963 -0.1277  0.1299  0.4126
 8987SOL    HW137890   3.776   5.907   2.965  0.2891  0.0093  1.5972
 8987SOL    HW237891   3.892   6.009   3.018  0.1189  1.0886 -0.0861
 8988SOL     OW37892   1.204   9.884   2.953  0.2157  0.2383 -0.7265
 8988SOL    HW137893   1.137   9.819   2.990 -0.4109  1.5839  0.5424
 8988SOL    HW237894   1.167   9.976   2.955  2.0813  1.0143 -0.0267
 8989SOL     OW37895   1.861   4.966   2.447 -0.4351 -0.0497  0.2924
 8989SOL    HW137896   1.926   4.957   2.372  0.1842 -0.2514  0.8468
 8989SOL    HW237897   1.892   4.911   2.525 -0.1363  1.5334  1.3190
 8990SOL     OW37898   9.563   6.514   5.688  0.1994  0.0454 -0.0596
 8990SOL    HW137899   9.481   6.540   5.738 -0.9927 -3.0758 -0.3063
 8990SOL    HW237900   9.609   6.596   5.654 -0.9201  2.0241  3.0243
 8991SOL     OW37901   6.302   8.915   5.008 -0.0258  0.2824  0.0251
 8991SOL    HW137902   6.302   8.892   5.106 -1.4331  0.0522 -0.0097
 8991SOL    HW237903   6.218   8.965   4.986  1.6172  2.8784 -0.5015
 8992SOL     OW37904   4.967   2.126   1.359 -0.7779  0.5777 -0.0454
 8992SOL    HW137905   4.935   2.127   1.264  0.7035  1.8130 -0.5666
 8992SOL    HW237906   5.049   2.069   1.366 -2.1538 -1.3064  0.9527
 8993SOL     OW37907   5.188   7.128   3.590 -0.7187 -0.6495  0.1081
 8993SOL    HW137908   5.159   7.073   3.668  0.2929 -0.0690  0.9023
 8993SOL    HW237909   5.158   7.222   3.602  1.8564  0.0773  1.1790
 8994SOL     OW37910   6.373   0.028   5.414 -0.0298  0.0873  0.0889
 8994SOL    HW137911   6.280  -0.007   5.402 -0.1537 -0.0022  1.2217
 8994SOL    HW237912   6.372   0.128   5.405 -0.0699  0.0095 -0.8323
 8995SOL     OW37913   3.785   4.417   3.951 -0.2080 -0.5687 -0.6300
 8995SOL    HW137914   3.858   4.445   3.888 -0.1241  0.8108  0.0385
 8995SOL    HW237915   3.770   4.319   3.944  2.9477 -1.1992  0.4490
 8996SOL     OW37916   2.411   3.850   3.944  0.0053 -0.0638  0.6368
 8996SOL    HW137917   2.422   3.944   3.911  0.8224 -1.1752 -2.4501
 8996SOL    HW237918   2.323   3.814   3.912  1.4645 -1.6612 -1.6936
 8997SOL     OW37919   9.643   2.754   0.652  0.3130 -0.4280 -0.0134
 8997SOL    HW137920   9.588   2.729   0.573  0.3532 -0.0264 -0.1706
 8997SOL    HW237921   9.740   2.736   0.633  0.4888  1.0894 -0.6318
 8998SOL     OW37922   8.379   1.370   6.435  0.3812  0.3939 -0.9469
 8998SOL    HW137923   8.336   1.310   6.502  2.8200  0.5532  0.8605
 8998SOL    HW237924   8.418   1.315   6.361 -0.0966 -0.0015 -0.9038
 8999SOL     OW37925   9.312   4.018   3.229  0.2222 -0.8248 -0.0229
 8999SOL    HW137926   9.301   4.004   3.130 -0.4789  1.0445 -0.2246
 8999SOL    HW237927   9.409   4.025   3.251  0.3346 -0.0708 -0.7440
 9000SOL     OW37928   2.931   7.251   2.103 -0.1326 -0.0293  0.0236
 9000SOL    HW137929   2.922   7.337   2.053 -0.8980  0.2340  0.6048
 9000SOL    HW237930   2.844   7.202   2.101  0.2080 -0.6331 -0.0247
 9001SOL     OW37931   1.153   3.741   4.816 -0.1586  0.3887 -0.4154
 9001SOL    HW137932   1.067   3.695   4.838 -0.2132  1.0327  0.7686
 9001SOL    HW237933   1.156   3.829   4.863  1.4780  0.0415  0.1543
 9002SOL     OW37934   7.450   3.739   0.693  0.3593  0.4411  0.3656
 9002SOL    HW137935   7.497   3.651   0.683 -0.0509  0.3246 -0.5678
 9002SOL    HW237936   7.467   3.775   0.785  0.4346 -0.6686  0.8048
 9003SOL     OW37937   9.743   0.896   3.237 -0.1868 -0.0762  0.4622
 9003SOL    HW137938   9.797   0.885   3.153  0.3326 -1.7082  0.9905
 9003SOL    HW237939   9.801   0.884   3.317 -1.0042 -0.2164  1.0504
 9004SOL     OW37940   4.240   8.390   2.122  0.4794  0.5237 -0.0020
 9004SOL    HW137941   4.247   8.345   2.033  0.5982  1.1797 -0.3257
 9004SOL    HW237942   4.330   8.396   2.164  0.2122 -1.2032  0.8765
 9005SOL     OW37943   0.544   8.549   2.370  0.3771  0.0628  0.0675
 9005SOL    HW137944   0.536   8.485   2.446 -0.8232 -0.0605 -0.1619
 9005SOL    HW237945   0.639   8.582   2.364 -0.0074  1.9202  3.0966
 9006SOL     OW37946   4.682   9.054   3.709 -0.2736  0.0931  0.2560
 9006SOL    HW137947   4.665   9.081   3.615 -2.7592 -0.4339  0.5180
 9006SOL    HW237948   4.711   8.958   3.711 -0.4459  0.0370  0.0593
 9007SOL     OW37949   8.478   2.139   2.380 -0.0891  0.2310  0.1886
 9007SOL    HW137950   8.461   2.135   2.282 -0.8413 -0.1991  0.3345
 9007SOL    HW237951   8.403   2.187   2.426 -0.3433 -0.6416  0.6975
 9008SOL     OW37952   8.852   8.837   1.018 -0.2244 -0.6759  0.4273
 9008SOL    HW137953   8.775   8.896   0.996 -0.1499 -0.7020  0.1001
 9008SOL    HW237954   8.828   8.779   1.096  0.0585  0.5177  1.4366
 9009SOL     OW37955   2.096   3.855   2.195 -0.8273  0.1262 -0.2627
 9009SOL    HW137956   2.174   3.908   2.162  1.0069 -0.4511  2.9702
 9009SOL    HW237957   2.037   3.914   2.251 -1.8077  0.1281 -1.2832
 9010SOL     OW37958   0.549   0.752   2.929 -0.1211 -0.3052  0.4051
 9010SOL    HW137959   0.635   0.708   2.906 -1.7368 -4.0439  1.1783
 9010SOL    HW237960   0.502   0.780   2.846  0.8163 -0.2148 -0.0992
 9011SOL     OW37961   1.166   7.705   5.353  0.3816  0.6106 -0.0068
 9011SOL    HW137962   1.190   7.622   5.302  0.3512  0.9200 -0.5263
 9011SOL    HW237963   1.137   7.776   5.289  0.1138  0.9232  0.4644
 9012SOL     OW37964   4.706   8.500   3.535  0.0695  0.0728  0.1281
 9012SOL    HW137965   4.743   8.412   3.566 -0.8260 -0.1506  0.5650
 9012SOL    HW237966   4.630   8.484   3.472 -0.5409  0.5270  0.7439
 9013SOL     OW37967   8.820   0.176   4.274  0.2748  0.0143 -0.1631
 9013SOL    HW137968   8.849   0.080   4.276  0.5156  0.0907  0.0597
 9013SOL    HW237969   8.763   0.194   4.354 -0.2205 -0.0855 -0.4980
 9014SOL     OW37970   6.104   0.054   3.869  0.0427 -0.0771  0.7071
 9014SOL    HW137971   6.032   0.089   3.810  1.4400  0.0660 -0.9293
 9014SOL    HW237972   6.165   0.128   3.895 -0.1081 -0.2900  1.6923
 9015SOL     OW37973   3.203   1.587   4.058  0.0680 -0.5753  0.4364
 9015SOL    HW137974   3.271   1.583   4.131  1.0982 -0.1016 -0.4716
 9015SOL    HW237975   3.213   1.673   4.008 -0.4126 -1.0292 -0.4557
 9016SOL     OW37976   1.264   9.478   3.609 -1.0521 -0.0904 -0.0161
 9016SOL    HW137977   1.224   9.388   3.629 -1.6071  0.4767  1.5599
 9016SOL    HW237978   1.215   9.547   3.662 -0.1331  1.0465 -0.6547
 9017SOL     OW37979   0.537   3.708   4.866  0.3745 -0.2507 -0.2830
 9017SOL    HW137980   0.501   3.796   4.897  0.5670  0.9882 -3.4009
 9017SOL    HW237981   0.472   3.636   4.889 -1.0438  1.0678 -0.0642
 9018SOL     OW37982   8.492   0.345   0.348  0.0377  0.1584 -0.8251
 9018SOL    HW137983   8.455   0.301   0.267  0.0523 -0.6783 -0.3932
 9018SOL    HW237984   8.577   0.298   0.375  0.4086  0.8754 -0.7428
 9019SOL     OW37985   0.673   8.906   2.070  0.1687  0.4228  0.3440
 9019SOL    HW137986   0.657   8.822   2.018 -1.1724  0.1776  1.1207
 9019SOL    HW237987   0.590   8.962   2.068  0.6137  1.1059  0.9550
 9020SOL     OW37988   2.997   3.287   0.998  0.1393 -0.2360  0.3778
 9020SOL    HW137989   3.035   3.194   1.000  3.4664  1.0238  0.0172
 9020SOL    HW237990   3.063   3.350   1.040 -1.6019  2.1068 -0.3263
 9021SOL     OW37991   1.136   7.047   6.388 -0.2451 -0.8551 -0.2022
 9021SOL    HW137992   1.156   6.954   6.418  0.7097 -0.3161  0.8835
 9021SOL    HW237993   1.219   7.088   6.350 -0.2093  0.1440  0.9314
 9022SOL     OW37994   7.103   0.607   2.370 -0.1506  0.3342  0.1410
 9022SOL    HW137995   7.146   0.539   2.430 -1.7718 -1.6094 -0.8211
 9022SOL    HW237996   7.033   0.657   2.422 -0.3352 -0.1286  0.3424
 9023SOL     OW37997   9.765   9.732   2.337 -0.0611  0.3770 -0.3266
 9023SOL    HW137998   9.683   9.676   2.328  0.5194 -0.8855  1.9341
 9023SOL    HW237999   9.844   9.682   2.300 -0.4253  2.0352 -3.5411
 9024SOL     OW38000   1.416   4.002   2.005 -0.6946 -0.0675  0.0220
 9024SOL    HW138001   1.378   3.957   2.086 -0.5482 -1.8961 -0.8849
 9024SOL    HW238002   1.504   4.044   2.028  0.0833 -1.8903  0.4746
 9025SOL     OW38003   3.957   2.644   4.808  0.2679 -0.2896  0.3403
 9025SOL    HW138004   4.040   2.591   4.820  1.2366  0.9979 -0.5206
 9025SOL    HW238005   3.980   2.736   4.776 -1.4940  0.0503 -0.0333
 9026SOL     OW38006   0.425   8.362   0.541  0.3489  0.3445 -0.6933
 9026SOL    HW138007   0.364   8.440   0.530  0.1518  0.1932 -0.6614
 9026SOL    HW238008   0.435   8.341   0.638 -0.2560 -0.1979 -0.7502
 9027SOL     OW38009   9.901   7.595   5.626 -0.1247 -0.7398 -0.3377
 9027SOL    HW138010   9.982   7.595   5.686 -1.2605  1.2606  1.2356
 9027SOL    HW238011   9.921   7.540   5.545  2.6070 -0.7798  0.2936
 9028SOL     OW38012   4.348   0.506   4.583 -0.0730 -0.0808 -0.0830
 9028SOL    HW138013   4.259   0.468   4.557 -0.4228  1.8920 -1.9061
 9028SOL    HW238014   4.341   0.605   4.589  2.2567  0.1712 -1.2684
 9029SOL     OW38015   2.283   4.470   1.791 -0.1534  0.1383 -0.1008
 9029SOL    HW138016   2.196   4.493   1.835 -1.2657 -2.2716 -0.9043
 9029SOL    HW238017   2.359   4.504   1.846 -1.5913  1.6999  0.9672
 9030SOL     OW38018   1.743   0.419   3.467  0.2485  0.2822  0.2325
 9030SOL    HW138019   1.715   0.324   3.453  0.1984  0.4248 -0.6400
 9030SOL    HW238020   1.809   0.445   3.397 -1.6496  1.6760 -1.0734
 9031SOL     OW38021   4.657   3.906   6.308 -0.1487 -0.1792 -0.3144
 9031SOL    HW138022   4.642   3.906   6.210 -2.1099  2.7533 -0.0714
 9031SOL    HW238023   4.716   3.982   6.334 -0.2676 -0.4630  0.8585
 9032SOL     OW38024   4.284   0.142   3.739 -0.2987 -0.4357  0.2797
 9032SOL    HW138025   4.253   0.143   3.834  2.5779  2.2406  1.2752
 9032SOL    HW238026   4.330   0.055   3.720 -0.3345 -0.7417  1.5309
 9033SOL     OW38027   8.606   7.685   4.987 -0.6574  0.0543 -0.6701
 9033SOL    HW138028   8.547   7.654   4.912  1.4306 -0.3552 -2.1909
 9033SOL    HW238029   8.601   7.784   4.995 -1.4053  0.0376 -0.9302
 9034SOL     OW38030   9.741   5.564   0.385 -0.1188 -0.3722  0.3109
 9034SOL    HW138031   9.822   5.613   0.416  1.5885 -1.9571 -1.5242
 9034SOL    HW238032   9.666   5.628   0.371  0.9608  1.1795  1.5262
 9035SOL     OW38033   3.133   1.021   2.514  0.0018  0.4849  0.1285
 9035SOL    HW138034   3.040   1.033   2.479  0.1311 -2.2698 -1.3190
 9035SOL    HW238035   3.198   1.023   2.438  0.7451 -1.1593  0.6866
 9036SOL     OW38036   8.807   7.423   0.548 -0.0526  0.2015  0.0918
 9036SOL    HW138037   8.791   7.415   0.450 -1.9856  0.1118  0.3884
 9036SOL    HW238038   8.730   7.471   0.590 -0.4984 -1.9994  1.9131
 9037SOL     OW38039   9.618   0.280   2.232  0.0483  0.1738  0.2368
 9037SOL    HW138040   9.656   0.331   2.309 -0.4883  1.3168 -0.2433
 9037SOL    HW238041   9.636   0.182   2.245  1.5077  0.5164  0.9238
 9038SOL     OW38042   3.701   1.174   2.330  0.0184  0.3431 -0.1868
 9038SOL    HW138043   3.795   1.164   2.363  0.1866 -0.3231 -0.8654
 9038SOL    HW238044   3.696   1.248   2.263  0.5302 -1.1963 -1.9476
 9039SOL     OW38045   6.030   9.612   1.287 -0.0082  0.1177  0.2492
 9039SOL    HW138046   6.029   9.700   1.240  0.3476 -0.5324 -0.9873
 9039SOL    HW238047   6.120   9.570   1.277 -0.0079 -0.1558  1.2988
 9040SOL     OW38048   9.880   6.246   3.419  0.0253 -0.3425  0.0716
 9040SOL    HW138049   9.797   6.285   3.379 -0.2968 -0.0969  0.9639
 9040SOL    HW238050   9.922   6.314   3.480  0.2471 -0.8776  0.5174
 9041SOL     OW38051   1.906   3.845   2.892 -0.1914  0.2125  0.6738
 9041SOL    HW138052   1.967   3.870   2.817  1.2317  2.4735  2.5337
 9041SOL    HW238053   1.811   3.858   2.863  0.3871  2.9615 -0.1308
 9042SOL     OW38054   8.583   1.030   6.487 -0.1565  0.1474 -0.3788
 9042SOL    HW138055   8.565   0.976   6.569 -0.9000  2.3446  0.9711
 9042SOL    HW238056   8.507   1.019   6.422  0.4575 -1.6344 -0.8041
 9043SOL     OW38057   9.901   0.835   0.801 -0.4221  0.4034  1.0144
 9043SOL    HW138058   9.803   0.818   0.810 -0.4719 -1.2522 -2.1249
 9043SOL    HW238059   9.951   0.754   0.831 -0.1275  0.2538  0.1343
 9044SOL     OW38060   3.701   0.789   2.765 -0.2759  0.4985  0.1858
 9044SOL    HW138061   3.765   0.714   2.747 -1.2320 -0.1078 -0.8049
 9044SOL    HW238062   3.635   0.761   2.835 -0.0999  0.7369  0.4472
 9045SOL     OW38063   3.333   6.786   2.158 -0.2679  0.4025  0.2432
 9045SOL    HW138064   3.356   6.809   2.252 -0.8873  2.0554 -0.0009
 9045SOL    HW238065   3.337   6.686   2.147 -0.6201  0.1546  2.1227
 9046SOL     OW38066   3.579   6.708   4.889 -0.9802  0.2230 -0.0012
 9046SOL    HW138067   3.547   6.729   4.982  0.2163  0.7729  0.2993
 9046SOL    HW238068   3.532   6.627   4.855 -1.2952 -0.0942  1.1718
 9047SOL     OW38069   8.576   6.403   2.574 -0.7014 -0.5639 -0.4369
 9047SOL    HW138070   8.481   6.415   2.548 -0.6387  0.5439 -0.1483
 9047SOL    HW238071   8.581   6.371   2.669 -0.7647 -0.1327 -0.2898
 9048SOL     OW38072   3.397   7.824   4.432  0.0322 -0.8132 -0.3149
 9048SOL    HW138073   3.369   7.855   4.523 -2.3676  0.5869 -1.4867
 9048SOL    HW238074   3.320   7.780   4.386  1.3199 -1.8266 -1.5566
 9049SOL     OW38075   9.259   7.113   1.838  0.0287  0.4886 -0.0782
 9049SOL    HW138076   9.257   7.014   1.849 -0.8090  0.4426 -0.6238
 9049SOL    HW238077   9.168   7.151   1.859  0.5544  1.2216  0.9136
 9050SOL     OW38078   8.794   4.967   3.915 -0.4942  0.2531  0.2051
 9050SOL    HW138079   8.791   4.867   3.916  0.9773  0.1490 -2.2153
 9050SOL    HW238080   8.719   5.002   3.859 -0.7010  0.5076  0.6331
 9051SOL     OW38081   9.862   5.993   3.619  0.2807 -0.3815 -0.3771
 9051SOL    HW138082   9.907   5.906   3.601 -1.2297 -1.1617 -0.4463
 9051SOL    HW238083   9.803   5.983   3.699 -0.5852  0.3311 -0.9230
 9052SOL     OW38084   0.265   5.675   2.768 -0.7368  0.1287  0.2184
 9052SOL    HW138085   0.178   5.671   2.816 -0.7715  0.6718  0.2062
 9052SOL    HW238086   0.280   5.590   2.718 -2.2423  0.8017 -1.4559
 9053SOL     OW38087   7.944   8.702   4.742  0.6594  0.7227 -0.2471
 9053SOL    HW138088   7.862   8.723   4.795  1.6633  1.5225  1.0359
 9053SOL    HW238089   7.945   8.758   4.659 -0.2389  0.4955 -0.4101
 9054SOL     OW38090   8.318   2.919   5.154  0.3074  0.4530 -0.3409
 9054SOL    HW138091   8.247   2.964   5.207 -0.2720  1.2668 -1.7867
 9054SOL    HW238092   8.322   2.822   5.179  0.1738  0.8505  1.2970
 9055SOL     OW38093   9.018   4.370   3.572  0.4342 -0.1781  0.4882
 9055SOL    HW138094   8.965   4.355   3.489 -0.4920  1.4233  0.7680
 9055SOL    HW238095   8.957   4.373   3.651  1.0347  0.6866  0.9386
 9056SOL     OW38096   1.613   5.490   5.526  0.4358 -0.6775 -0.1114
 9056SOL    HW138097   1.559   5.543   5.460  0.6000 -0.1003  0.2221
 9056SOL    HW238098   1.553   5.455   5.598  0.1345 -1.8880 -0.9255
 9057SOL     OW38099   6.836   8.951   3.019 -0.1243 -0.2872  0.8046
 9057SOL    HW138100   6.781   8.869   3.033 -1.5951  0.5116 -0.1650
 9057SOL    HW238101   6.915   8.950   3.081  0.2437 -2.7481  0.3368
 9058SOL     OW38102   1.282   0.154   4.281  0.2604 -0.1024  0.4088
 9058SOL    HW138103   1.279   0.147   4.181  0.0815  1.1557  0.3276
 9058SOL    HW238104   1.332   0.075   4.317  1.9179  0.3487 -0.7888
 9059SOL     OW38105   7.271   0.149   4.596  0.1053 -0.7580  0.1210
 9059SOL    HW138106   7.223   0.147   4.508 -0.0780 -1.0753  0.2279
 9059SOL    HW238107   7.216   0.103   4.665 -1.5580  2.8175  1.3061
 9060SOL     OW38108   4.634   6.260   2.938 -0.1450 -0.6368 -0.8517
 9060SOL    HW138109   4.695   6.181   2.943 -0.7776 -1.2839 -2.9493
 9060SOL    HW238110   4.551   6.241   2.989 -0.2674 -1.3102 -1.2928
 9061SOL     OW38111   0.097   1.422   1.681  0.9255 -0.0901  0.2772
 9061SOL    HW138112   0.191   1.450   1.698  0.7160  1.2741 -0.7563
 9061SOL    HW238113   0.036   1.472   1.742  0.7662 -0.1713  0.1838
 9062SOL     OW38114   0.277   5.598   0.788 -0.1860 -0.7483  0.0426
 9062SOL    HW138115   0.213   5.529   0.754 -0.5685  0.9045 -2.6712
 9062SOL    HW238116   0.367   5.556   0.801 -0.7383 -2.0612 -0.2772
 9063SOL     OW38117   1.388   2.262   0.743 -0.3915 -0.2377  0.1556
 9063SOL    HW138118   1.426   2.353   0.731 -0.6899  0.2483  2.6059
 9063SOL    HW238119   1.316   2.265   0.812 -0.2476 -2.3439  0.4321
 9064SOL     OW38120   2.967   2.616   2.496  0.3524  0.5243  0.1354
 9064SOL    HW138121   2.963   2.558   2.577  1.9850 -1.4393 -1.1413
 9064SOL    HW238122   2.891   2.593   2.435 -0.4990  1.5538  0.7855
 9065SOL     OW38123   0.555   5.419   3.722 -0.4870 -0.0330  0.5258
 9065SOL    HW138124   0.553   5.501   3.780 -1.1900 -0.0329  0.5066
 9065SOL    HW238125   0.469   5.413   3.670  0.1532 -0.0043 -0.5563
 9066SOL     OW38126   8.133   6.516   2.037 -0.4106  0.1186  0.0426
 9066SOL    HW138127   8.041   6.493   2.005 -0.4197 -0.1636  0.2685
 9066SOL    HW238128   8.154   6.461   2.118  0.5527 -0.9676 -0.9334
 9067SOL     OW38129   9.768   9.897   1.601  0.3102  0.1526  0.4936
 9067SOL    HW138130   9.694   9.904   1.668  0.3627  1.7023  0.4193
 9067SOL    HW238131   9.735   9.925   1.511  1.3198  2.2722  0.7415
 9068SOL     OW38132   3.174   4.621   4.227  0.0553  0.1615 -0.2670
 9068SOL    HW138133   3.154   4.528   4.257 -1.7290  0.6668  0.1443
 9068SOL    HW238134   3.261   4.621   4.176  2.0105 -1.0654  2.9014
 9069SOL     OW38135   4.925   5.096   2.589  0.2996  0.1831 -0.1467
 9069SOL    HW138136   4.834   5.114   2.554 -0.8614 -0.0279  2.6302
 9069SOL    HW238137   4.945   4.998   2.584  0.7101  0.3320 -1.5079
 9070SOL     OW38138   6.196   9.492   3.544  0.2134 -0.2412 -0.0940
 9070SOL    HW138139   6.116   9.529   3.494 -1.2333 -0.3351  2.0974
 9070SOL    HW238140   6.202   9.394   3.529 -0.3289 -0.3005  0.0669
 9071SOL     OW38141   5.695   7.823   2.673  0.0525  0.1578 -0.2545
 9071SOL    HW138142   5.745   7.813   2.760 -0.1403  0.7844 -0.0757
 9071SOL    HW238143   5.656   7.734   2.648 -0.3563  0.0924  0.5785
 9072SOL     OW38144   6.990   8.212   4.321  0.1794  0.2565 -1.2134
 9072SOL    HW138145   6.979   8.118   4.287  0.5686 -0.1312 -0.2955
 9072SOL    HW238146   6.965   8.277   4.249 -1.5824 -0.5605 -1.3522
 9073SOL     OW38147   2.269   3.438   6.386  0.6633  0.3527  0.2309
 9073SOL    HW138148   2.360   3.450   6.347  0.3360 -0.1590 -0.7293
 9073SOL    HW238149   2.276   3.426   6.485  1.7949 -1.4190 -0.0395
 9074SOL     OW38150   8.110   3.730   2.215 -0.4155 -0.5004  0.4532
 9074SOL    HW138151   8.048   3.665   2.172  0.0394 -0.5059 -0.2004
 9074SOL    HW238152   8.069   3.821   2.217 -0.1240 -0.3406 -0.6918
 9075SOL     OW38153   9.408   3.533   3.753  0.0357  0.1343 -0.1217
 9075SOL    HW138154   9.380   3.554   3.847  1.6882 -0.8647  0.6174
 9075SOL    HW238155   9.348   3.462   3.715  1.1219 -1.5165  1.2021
 9076SOL     OW38156   3.356   3.728   3.704 -0.0219  0.4706  0.0979
 9076SOL    HW138157   3.366   3.640   3.659  0.2088  0.6861 -0.2741
 9076SOL    HW238158   3.440   3.781   3.692  0.5724 -0.0086  1.9483
 9077SOL     OW38159   8.445   8.228   4.653 -0.5264  0.3427 -0.4252
 9077SOL    HW138160   8.527   8.264   4.698 -1.8223  0.3814  2.0126
 9077SOL    HW238161   8.452   8.243   4.555  2.1179  0.8715 -0.2127
 9078SOL     OW38162   0.946   4.769   3.313  0.1393  0.1334 -0.8403
 9078SOL    HW138163   0.971   4.689   3.259  1.4058  1.1751 -1.8383
 9078SOL    HW238164   0.878   4.823   3.262 -0.8742 -0.4253 -0.0748
 9079SOL     OW38165   8.280   1.496   2.282  0.3222 -0.0854 -0.0066
 9079SOL    HW138166   8.321   1.573   2.332 -1.0433  0.3349  0.4916
 9079SOL    HW238167   8.193   1.525   2.243 -0.4976 -1.5475  0.7117
 9080SOL     OW38168   0.319   1.494   2.119 -0.4445 -0.4643  0.2951
 9080SOL    HW138169   0.264   1.420   2.080 -0.9191 -0.1993  0.4652
 9080SOL    HW238170   0.277   1.582   2.097  1.1934 -0.1168 -1.6604
 9081SOL     OW38171   0.669   4.157   5.298 -0.3726 -0.0999 -0.5052
 9081SOL    HW138172   0.692   4.181   5.392  0.7389  0.4749 -0.9066
 9081SOL    HW238173   0.673   4.058   5.287  0.7793 -0.0831 -0.2680
 9082SOL     OW38174   3.268   8.399   3.520 -0.0596  0.1504 -0.5911
 9082SOL    HW138175   3.281   8.495   3.494  0.2847  0.3134  0.1549
 9082SOL    HW238176   3.196   8.358   3.464  0.1476  0.6977 -1.2683
 9083SOL     OW38177   8.364   7.283   1.568 -0.4432  0.1416  0.6537
 9083SOL    HW138178   8.389   7.342   1.492 -1.4929  0.8263  0.8238
 9083SOL    HW238179   8.427   7.205   1.573  0.8574  1.1642  0.3425
 9084SOL     OW38180   3.196   5.086   2.906 -0.3093  0.2616  0.0160
 9084SOL    HW138181   3.212   5.102   3.004 -0.4225 -0.3625  0.1429
 9084SOL    HW238182   3.203   4.988   2.887 -3.1302  0.0120 -0.0571
 9085SOL     OW38183   2.097   5.615   4.901 -0.1577  0.3739  0.3337
 9085SOL    HW138184   2.176   5.661   4.860 -0.3139  0.5283  0.2049
 9085SOL    HW238185   2.127   5.559   4.978  0.0995  0.3093  0.1877
 9086SOL     OW38186   2.603   5.719   1.270 -0.1941  1.0044 -0.4075
 9086SOL    HW138187   2.645   5.713   1.361  1.3016  0.5146 -1.0998
 9086SOL    HW238188   2.632   5.803   1.225  0.2654  0.5516 -0.9831
 9087SOL     OW38189   4.210   1.214   3.971  0.0888 -0.1332 -0.1819
 9087SOL    HW138190   4.231   1.142   3.904 -0.0180  0.4782 -0.8734
 9087SOL    HW238191   4.142   1.276   3.933  0.1263  0.2914  0.4453
 9088SOL     OW38192   1.260   3.929   4.603  0.1906  0.0477 -0.2032
 9088SOL    HW138193   1.246   3.898   4.510  0.3654 -1.5730  0.3024
 9088SOL    HW238194   1.214   3.867   4.667  3.5287 -1.2350  1.0444
 9089SOL     OW38195   4.974   8.345   2.061 -0.0259 -0.2650  0.1885
 9089SOL    HW138196   4.983   8.411   1.986 -2.0774 -0.2218 -0.0500
 9089SOL    HW238197   5.009   8.387   2.145  1.4100  0.0284 -0.5248
 9090SOL     OW38198   4.708   1.689   2.032 -0.3002 -0.7544 -0.1529
 9090SOL    HW138199   4.751   1.636   2.105 -0.0623 -0.3307  0.0125
 9090SOL    HW238200   4.742   1.658   1.944  0.5037 -0.2842 -0.0159
 9091SOL     OW38201   6.539   2.107   3.044  0.2305  0.2153 -0.0876
 9091SOL    HW138202   6.555   2.015   3.080  1.1755 -0.0445 -1.1189
 9091SOL    HW238203   6.552   2.106   2.945 -0.5189  1.2996 -0.2023
 9092SOL     OW38204   7.945   4.542   1.203  0.7011 -0.1236  0.4709
 9092SOL    HW138205   7.905   4.603   1.134 -0.4871 -1.9912 -0.5326
 9092SOL    HW238206   7.985   4.597   1.277  0.6414  1.8767 -0.9439
 9093SOL     OW38207   1.937   7.921   4.711 -0.5053 -0.2127 -0.0229
 9093SOL    HW138208   1.858   7.867   4.739 -1.4782  2.1090  1.9526
 9093SOL    HW238209   1.916   7.967   4.624 -0.8845 -0.5097 -0.0913
 9094SOL     OW38210   8.326   0.069   0.619 -0.0128 -0.2853 -0.5682
 9094SOL    HW138211   8.326   0.087   0.520  0.7593  0.6955 -0.3984
 9094SOL    HW238212   8.406   0.112   0.660 -0.7260 -0.0554  0.5936
 9095SOL     OW38213   2.909   5.195   2.153  0.3515 -0.1235  0.0236
 9095SOL    HW138214   2.893   5.286   2.115  1.6853  0.3026  0.4256
 9095SOL    HW238215   2.865   5.126   2.096 -1.6386  0.8600  0.3534
 9096SOL     OW38216   9.523   6.757   4.792  0.1882 -0.0895  0.5005
 9096SOL    HW138217   9.497   6.848   4.825  1.7246  0.3919  0.4361
 9096SOL    HW238218   9.477   6.739   4.705  0.5241  0.9844  0.0921
 9097SOL     OW38219   4.030   3.158   2.840 -0.6781  0.1197  0.1995
 9097SOL    HW138220   4.071   3.182   2.929  0.3024 -1.0867  0.0852
 9097SOL    HW238221   3.934   3.186   2.839 -0.4435  1.0191  1.2863
 9098SOL     OW38222   1.566   1.568   4.469  0.3424 -0.2659  0.2289
 9098SOL    HW138223   1.646   1.580   4.528  0.6334 -0.0008 -0.2115
 9098SOL    HW238224   1.524   1.657   4.451 -0.3548 -0.4604  0.8696
 9099SOL     OW38225   8.222   2.075   2.001  0.3686 -0.5628 -0.9492
 9099SOL    HW138226   8.167   2.147   1.959  0.5713  0.8900  1.2088
 9099SOL    HW238227   8.316   2.081   1.967  0.8592  1.4628  0.6770
 9100SOL     OW38228   3.231   5.043   3.978  0.1560  0.1689  0.1583
 9100SOL    HW138229   3.137   5.077   3.978 -0.1633 -0.7099  0.0528
 9100SOL    HW238230   3.276   5.072   4.062  0.2459  1.8129 -0.4337
 9101SOL     OW38231   4.653   3.189   1.307 -0.6602 -0.3437  0.2304
 9101SOL    HW138232   4.587   3.158   1.375 -0.2118 -0.9497  0.3960
 9101SOL    HW238233   4.745   3.160   1.335 -0.1672  1.4763  0.6028
 9102SOL     OW38234   1.532   6.608   5.194  0.3668  0.1443  0.4071
 9102SOL    HW138235   1.631   6.611   5.177  0.5681  0.2106  1.5558
 9102SOL    HW238236   1.487   6.563   5.117  1.1094  1.5257 -0.8760
 9103SOL     OW38237   0.244   7.229   4.638 -0.3860  0.2080  0.0860
 9103SOL    HW138238   0.212   7.208   4.730 -0.1849  0.4957  0.2247
 9103SOL    HW238239   0.254   7.328   4.629 -1.4242  0.2483 -0.5843
 9104SOL     OW38240   2.524   0.749   1.172 -0.4721 -0.3140  0.5578
 9104SOL    HW138241   2.562   0.676   1.115 -1.0203 -0.3397  0.2207
 9104SOL    HW238242   2.598   0.810   1.202 -0.0388 -0.9116  0.7061
 9105SOL     OW38243   0.971   4.885   0.681 -0.1369 -0.1876  0.3127
 9105SOL    HW138244   0.929   4.947   0.615  0.8197 -1.0351 -1.1126
 9105SOL    HW238245   1.060   4.921   0.708 -0.0137 -0.4431  0.2416
 9106SOL     OW38246   9.848   1.195   2.133 -0.0809 -0.4649 -0.1550
 9106SOL    HW138247   9.844   1.293   2.148 -1.3722 -0.3711 -1.0632
 9106SOL    HW238248   9.913   1.175   2.059  0.5915 -0.3380  0.4035
 9107SOL     OW38249   0.385   7.934   1.382  0.5276 -0.1064 -0.1534
 9107SOL    HW138250   0.450   7.858   1.387 -0.7457 -1.0560  3.8065
 9107SOL    HW238251   0.298   7.900   1.347  0.3968 -0.1632  0.2238
 9108SOL     OW38252   5.413   7.089   3.413  0.2247  0.1257 -0.3452
 9108SOL    HW138253   5.496   7.141   3.436 -0.7555  2.8360 -2.6964
 9108SOL    HW238254   5.349   7.094   3.489  0.2364  2.2282 -0.4513
 9109SOL     OW38255   2.379   8.120   2.495  0.1805  0.2725  0.0257
 9109SOL    HW138256   2.283   8.112   2.520  0.0988  0.6507 -0.1678
 9109SOL    HW238257   2.436   8.078   2.565 -0.0742  0.9291  0.6281
 9110SOL     OW38258   3.896   7.028   3.358  0.2927  0.3267 -1.2143
 9110SOL    HW138259   3.954   6.951   3.333  0.5503  0.6541 -1.6062
 9110SOL    HW238260   3.934   7.113   3.323  1.4518  0.9908  1.4878
 9111SOL     OW38261   4.193   1.185   3.662 -0.2009 -0.3792 -0.7628
 9111SOL    HW138262   4.165   1.278   3.640 -1.5831 -0.1031  1.9248
 9111SOL    HW238263   4.293   1.181   3.669 -0.2705  2.1077  3.6727
 9112SOL     OW38264   8.222   1.552   0.187 -0.2454 -0.0384  0.0175
 9112SOL    HW138265   8.192   1.568   0.281 -0.8202  0.1514 -0.1959
 9112SOL    HW238266   8.177   1.617   0.126 -1.1316 -1.2013 -0.6000
 9113SOL     OW38267   1.797   1.622   4.623 -0.3712 -0.2381 -0.5320
 9113SOL    HW138268   1.828   1.690   4.557 -2.7879 -0.8600 -2.4045
 9113SOL    HW238269   1.868   1.553   4.637  1.2973  1.5064 -0.1781
 9114SOL     OW38270   9.570   5.409   3.168  0.4203 -0.8138 -0.3001
 9114SOL    HW138271   9.528   5.346   3.102  1.7786 -1.8914 -0.1293
 9114SOL    HW238272   9.556   5.375   3.260 -0.3751  0.0515 -0.0915
 9115SOL     OW38273   4.364   1.533   2.725 -0.3383 -0.4170  0.0220
 9115SOL    HW138274   4.330   1.496   2.812  0.1256  0.1589  0.4497
 9115SOL    HW238275   4.286   1.561   2.668 -0.6211 -0.1737  0.5253
 9116SOL     OW38276   3.874   9.557   2.457 -0.1813 -0.0278  0.5261
 9116SOL    HW138277   3.800   9.612   2.420  0.7848  1.4275  0.7228
 9116SOL    HW238278   3.959   9.577   2.408  0.0556 -1.8395  0.1492
 9117SOL     OW38279   3.580   4.609   2.480 -0.1854 -0.3642 -0.5984
 9117SOL    HW138280   3.529   4.523   2.492 -1.8285  0.6663 -0.0381
 9117SOL    HW238281   3.527   4.685   2.518 -0.1443  1.3647 -3.8390
 9118SOL     OW38282   9.621   0.387   3.695  0.1588  0.2677 -0.2482
 9118SOL    HW138283   9.645   0.356   3.786 -1.2455  0.6471  0.2665
 9118SOL    HW238284   9.621   0.310   3.632 -2.2552 -0.6617  0.7994
 9119SOL     OW38285   8.622   7.201   4.191 -0.6197  0.5366 -0.2476
 9119SOL    HW138286   8.545   7.186   4.129 -0.4248  3.9098 -1.4161
 9119SOL    HW238287   8.703   7.224   4.139 -0.1567  2.2823  1.1921
 9120SOL     OW38288   9.617   4.259   2.470  0.1979  0.9833 -1.2167
 9120SOL    HW138289   9.712   4.229   2.482 -0.5262 -1.4935 -1.3998
 9120SOL    HW238290   9.572   4.265   2.559  0.3574  1.6488 -1.1751
 9121SOL     OW38291   9.620   6.157   0.866 -0.0525 -0.7011  0.0920
 9121SOL    HW138292   9.597   6.087   0.933 -1.5118 -0.5415 -0.2406
 9121SOL    HW238293   9.717   6.149   0.842 -0.6872 -4.0083 -1.6134
 9122SOL     OW38294   9.928   2.778   4.112  0.0217 -0.0291 -0.4865
 9122SOL    HW138295   9.944   2.834   4.031  1.2188 -1.8854 -1.5668
 9122SOL    HW238296  10.007   2.786   4.173 -0.8299  1.2737  0.4661
 9123SOL     OW38297   1.230   3.871   0.014  0.5814 -0.6817  0.1696
 9123SOL    HW138298   1.227   3.929   0.095  0.0113  0.1505 -0.4470
 9123SOL    HW238299   1.137   3.855  -0.019  0.8388 -0.7368 -0.5331
 9124SOL     OW38300   6.451   8.951   1.791 -0.0048 -0.3777  0.1455
 9124SOL    HW138301   6.403   9.019   1.736 -0.4191 -0.2043  0.7218
 9124SOL    HW238302   6.530   8.993   1.835 -0.5676 -0.1228  0.9367
 9125SOL     OW38303   4.755   1.911   2.188  0.1807 -1.1583  0.1242
 9125SOL    HW138304   4.839   1.956   2.158 -0.7416  0.2804 -0.3840
 9125SOL    HW238305   4.733   1.837   2.125  0.7541 -1.1572 -0.0822
 9126SOL     OW38306   2.894   1.994   2.860  0.4158  0.6285  0.8487
 9126SOL    HW138307   2.816   1.971   2.801  1.9586  0.0045 -0.9950
 9126SOL    HW238308   2.868   2.067   2.923 -0.9318  2.1447 -1.4125
 9127SOL     OW38309   0.962   4.045   0.850 -0.0267  0.0360 -0.1184
 9127SOL    HW138310   0.869   4.033   0.814  0.3359 -0.5091 -0.8937
 9127SOL    HW238311   0.988   3.964   0.902  0.1491  0.0281 -0.2175
 9128SOL     OW38312   4.788   4.079   1.030 -0.1780  0.3935 -0.0454
 9128SOL    HW138313   4.862   4.139   1.000 -0.4589  1.2845  0.9981
 9128SOL    HW238314   4.825   4.001   1.080  0.2674 -0.9044 -2.3301
 9129SOL     OW38315   3.474   8.740   2.184 -0.1687 -0.0098 -0.6506
 9129SOL    HW138316   3.411   8.807   2.146 -0.8073 -0.0614  0.2851
 9129SOL    HW238317   3.423   8.674   2.239  1.1157  2.8028  4.2562
 9130SOL     OW38318   1.630   5.501   2.150  0.7476  0.0672 -0.6098
 9130SOL    HW138319   1.623   5.413   2.196  1.2532  0.4501  0.2191
 9130SOL    HW238320   1.623   5.489   2.051 -2.4869 -0.5608 -0.3493
 9131SOL     OW38321   7.805   2.732   2.684 -0.3881 -0.2284 -0.4154
 9131SOL    HW138322   7.897   2.766   2.668  0.2610 -2.1538 -0.8985
 9131SOL    HW238323   7.795   2.706   2.780  0.0705 -1.4303 -0.6831
 9132SOL     OW38324   7.696   9.609   6.221  0.2510 -0.2187 -0.7325
 9132SOL    HW138325   7.665   9.700   6.247 -0.3527 -0.5513 -0.2717
 9132SOL    HW238326   7.711   9.606   6.122  0.5960  0.4698 -0.7045
 9133SOL     OW38327   0.221   7.708   6.426 -0.1470  0.0269 -0.7230
 9133SOL    HW138328   0.160   7.773   6.473  1.0127  0.0285  0.8408
 9133SOL    HW238329   0.315   7.737   6.437  0.4258 -2.0932  0.2998
 9134SOL     OW38330   0.185   1.998   1.320  0.0502 -0.3771 -0.2135
 9134SOL    HW138331   0.086   1.996   1.307 -0.0002  0.0022  0.0881
 9134SOL    HW238332   0.230   1.960   1.239 -0.3006  0.5887 -0.8826
 9135SOL     OW38333   0.889   6.752   2.456 -0.0935 -0.3082 -0.4067
 9135SOL    HW138334   0.926   6.782   2.368 -0.9275  0.5313 -0.4720
 9135SOL    HW238335   0.896   6.827   2.523 -1.3282 -0.2525 -0.3214
 9136SOL     OW38336   3.316   1.032   4.179  0.0677  0.4104  0.3018
 9136SOL    HW138337   3.255   1.108   4.157 -0.4030 -0.1372 -0.3280
 9136SOL    HW238338   3.353   0.993   4.095  2.1545  1.4188  0.7271
 9137SOL     OW38339   7.975   8.084   3.022 -0.3138 -0.6139  0.0705
 9137SOL    HW138340   7.967   8.171   2.973  2.2780  0.5599  1.6287
 9137SOL    HW238341   8.044   8.026   2.978  0.9412 -0.1644  1.3890
 9138SOL     OW38342   3.213   1.000   1.245  0.0374  0.4434 -0.2674
 9138SOL    HW138343   3.184   0.914   1.204  0.6205  1.2926 -2.5451
 9138SOL    HW238344   3.310   0.995   1.269 -0.3472 -0.1179  1.2502
 9139SOL     OW38345   1.258   8.743   5.348 -0.2865  0.6836 -0.2097
 9139SOL    HW138346   1.164   8.778   5.351 -0.1634  1.4648 -3.3409
 9139SOL    HW238347   1.256   8.643   5.354 -0.9977  0.8541  3.5273
 9140SOL     OW38348   8.778   1.029   1.197  0.0582 -0.4116  0.2772
 9140SOL    HW138349   8.682   1.000   1.200  0.0956 -0.9395 -2.4147
 9140SOL    HW238350   8.783   1.126   1.175  0.1658 -0.7989 -1.4564
 9141SOL     OW38351   1.936   7.735   2.665  0.5354 -0.0131  0.1281
 9141SOL    HW138352   1.993   7.724   2.747 -0.1918 -0.4507  0.5840
 9141SOL    HW238353   1.853   7.786   2.689 -0.0408 -0.8021 -0.1659
 9142SOL     OW38354   0.322   3.561   0.304  0.3282 -0.0559 -0.2013
 9142SOL    HW138355   0.271   3.601   0.227 -0.9435  0.9923  1.1648
 9142SOL    HW238356   0.399   3.620   0.327  0.9900 -0.6128 -0.9650
 9143SOL     OW38357   0.218   2.805   0.799  0.1171  0.1674 -0.1390
 9143SOL    HW138358   0.258   2.814   0.890  0.7339 -0.2052 -0.3634
 9143SOL    HW238359   0.291   2.808   0.731 -0.4070  1.0938 -0.6608
 9144SOL     OW38360   7.855   1.806   5.812  0.6589  0.0326 -0.7245
 9144SOL    HW138361   7.849   1.782   5.909 -1.7744 -0.3837 -0.9332
 9144SOL    HW238362   7.823   1.728   5.757 -1.1337  1.4233 -1.7005
 9145SOL     OW38363   0.926   3.052   5.097  0.4769  0.0291 -0.4015
 9145SOL    HW138364   0.993   3.021   5.164  1.4187  1.0667 -0.8449
 9145SOL    HW238365   0.948   3.013   5.008 -1.5723 -2.4653  0.1264
 9146SOL     OW38366   2.054   5.575   0.824 -0.1153  0.4013 -0.0904
 9146SOL    HW138367   2.121   5.565   0.898  0.6800 -1.2996 -1.0205
 9146SOL    HW238368   2.087   5.644   0.759 -0.3886  1.2451  0.6534
 9147SOL     OW38369   4.053   3.073   1.872 -0.4217  0.2992 -0.8310
 9147SOL    HW138370   4.083   2.978   1.870 -2.6889 -0.5440  2.1411
 9147SOL    HW238371   3.964   3.081   1.827 -1.2995  0.5892  0.9415
 9148SOL     OW38372   5.198   1.458   4.136 -0.0110  0.2994  0.0237
 9148SOL    HW138373   5.208   1.557   4.132  1.0901  0.1559 -0.9981
 9148SOL    HW238374   5.283   1.414   4.106 -0.5316 -0.9516  0.3361
 9149SOL     OW38375   0.610   2.756   2.110  0.2219 -0.5337 -0.1922
 9149SOL    HW138376   0.564   2.730   2.194  0.7603 -0.9593 -0.0286
 9149SOL    HW238377   0.547   2.809   2.053 -1.2375 -2.9446 -0.9455
 9150SOL     OW38378   8.223   0.623   0.884  0.5383 -0.1402 -0.2817
 9150SOL    HW138379   8.280   0.705   0.891  2.2070 -1.2639 -0.2290
 9150SOL    HW238380   8.211   0.583   0.975  2.8554 -1.9689 -0.7151
 9151SOL     OW38381   9.099   1.386   1.405  0.3472 -0.0639  0.0486
 9151SOL    HW138382   9.128   1.468   1.356  0.1687  1.3662  2.2594
 9151SOL    HW238383   9.163   1.312   1.387  0.4531  0.5037 -2.0665
 9152SOL     OW38384   0.783   8.762   3.314 -0.0929 -0.1594  0.4742
 9152SOL    HW138385   0.797   8.766   3.215 -0.3305  0.1945  0.4541
 9152SOL    HW238386   0.745   8.849   3.346 -3.3844 -1.4831  0.3631
 9153SOL     OW38387   6.690   9.609   4.779 -0.1460 -0.0820  0.4586
 9153SOL    HW138388   6.744   9.529   4.753 -1.3126 -0.5805 -0.4684
 9153SOL    HW238389   6.602   9.606   4.732 -0.6628  1.1397  1.3407
 9154SOL     OW38390   2.259   0.054   3.330  0.2560 -0.3648  0.3745
 9154SOL    HW138391   2.341   0.062   3.387  0.1062 -0.9987  0.6798
 9154SOL    HW238392   2.283   0.008   3.244  0.5262  0.7800 -0.1747
 9155SOL     OW38393   2.339   1.637   3.846  0.4646  0.0479 -0.6703
 9155SOL    HW138394   2.297   1.672   3.929  2.4667  0.6057  0.1263
 9155SOL    HW238395   2.341   1.537   3.849  2.1031  0.1051  0.7654
 9156SOL     OW38396   8.764   2.627   1.379 -0.1073  0.2642  0.1916
 9156SOL    HW138397   8.779   2.678   1.294 -0.8166 -0.0047 -0.0998
 9156SOL    HW238398   8.751   2.530   1.358  0.7711  0.0281  0.7038
 9157SOL     OW38399   2.411   2.765   3.603  0.1107 -0.2703 -0.1015
 9157SOL    HW138400   2.467   2.847   3.610 -0.0761 -0.1364 -0.1556
 9157SOL    HW238401   2.320   2.790   3.569 -0.2966 -0.3491  0.9123
 9158SOL     OW38402   2.188   2.868   3.455  0.0323  0.2386 -0.4243
 9158SOL    HW138403   2.092   2.845   3.443 -0.4218  0.7852  1.9480
 9158SOL    HW238404   2.229   2.887   3.366 -1.8956 -0.5848 -1.5100
 9159SOL     OW38405   2.377   0.039   4.660  0.4535  0.1706  0.5129
 9159SOL    HW138406   2.469   0.028   4.698  0.8104 -0.1550 -0.4562
 9159SOL    HW238407   2.313  -0.020   4.710  0.8683 -0.0185  0.8208
 9160SOL     OW38408   3.834   5.407   2.735  0.3313  0.2070 -0.6382
 9160SOL    HW138409   3.849   5.477   2.665  0.6939  0.9457  0.1687
 9160SOL    HW238410   3.779   5.445   2.809  1.6840  0.0521  0.4542
 9161SOL     OW38411   8.487   0.245   2.673  0.2618 -0.1401 -0.5233
 9161SOL    HW138412   8.541   0.172   2.632  1.9233  0.6102  0.3220
 9161SOL    HW238413   8.542   0.295   2.740 -1.0456  1.5030 -0.6408
 9162SOL     OW38414   7.408   9.020   5.821  0.5710 -0.2207 -0.4649
 9162SOL    HW138415   7.475   9.068   5.877  0.2515 -0.7364  0.3690
 9162SOL    HW238416   7.383   8.934   5.865 -1.7981  0.6768  0.0378
 9163SOL     OW38417   6.289   9.646   1.671  0.6823  0.2961 -0.5187
 9163SOL    HW138418   6.294   9.577   1.744  0.1392  1.7050  0.8676
 9163SOL    HW238419   6.197   9.684   1.668  0.6463  0.1001 -2.1000
 9164SOL     OW38420   9.991   5.789   4.711  0.0477  0.1313 -0.5223
 9164SOL    HW138421  10.051   5.864   4.684 -0.7391 -0.3257 -3.8605
 9164SOL    HW238422  10.039   5.702   4.702  0.2063  0.0423  1.0219
 9165SOL     OW38423   4.773   1.157   1.401 -0.0581  0.1056  0.4025
 9165SOL    HW138424   4.711   1.124   1.329 -0.3860  0.9556  0.2939
 9165SOL    HW238425   4.805   1.079   1.455  0.5679 -0.6088 -0.9612
 9166SOL     OW38426   7.885   1.539   2.373  0.2938  0.3107 -0.7467
 9166SOL    HW138427   7.958   1.571   2.313 -0.7869  0.7479 -1.8483
 9166SOL    HW238428   7.922   1.522   2.464  2.0159 -0.6077 -1.5862
 9167SOL     OW38429   5.341   3.740   2.141  0.3906 -0.3275  0.0974
 9167SOL    HW138430   5.401   3.811   2.104  1.8548 -1.6380 -0.1217
 9167SOL    HW238431   5.312   3.679   2.068  1.0991 -1.3494  0.6541
 9168SOL     OW38432   8.624   4.693   4.661  0.2063  0.1118 -0.0902
 9168SOL    HW138433   8.647   4.789   4.678  1.5160 -0.2527  0.2240
 9168SOL    HW238434   8.547   4.667   4.719  0.9885  0.4803  1.1355
 9169SOL     OW38435   6.649   1.294   2.781  0.7299 -0.9868  0.0889
 9169SOL    HW138436   6.659   1.262   2.687  0.2540  1.2818 -0.7638
 9169SOL    HW238437   6.553   1.292   2.806  0.2862  2.7669 -1.1069
 9170SOL     OW38438   8.224   5.990   4.153 -0.8435  0.2876 -0.4223
 9170SOL    HW138439   8.131   5.981   4.118 -0.5247  0.4524 -1.3129
 9170SOL    HW238440   8.285   5.928   4.103 -0.2726  0.9806 -0.5997
 9171SOL     OW38441   4.343   8.735   4.557  0.3471  0.0510 -0.1788
 9171SOL    HW138442   4.428   8.684   4.574  1.7170  1.6555 -1.9610
 9171SOL    HW238443   4.299   8.700   4.475 -1.4848 -1.6774  1.4815
 9172SOL     OW38444   5.249   0.985   2.191 -0.3669 -0.4631  0.3846
 9172SOL    HW138445   5.331   0.984   2.249 -0.1245  0.6694  0.0772
 9172SOL    HW238446   5.277   0.992   2.095 -0.8475  1.7297  0.3799
 9173SOL     OW38447   9.264   3.331   0.240 -0.8011  0.2391 -0.0929
 9173SOL    HW138448   9.349   3.376   0.267 -1.1880  0.9251  0.0049
 9173SOL    HW238449   9.243   3.256   0.303 -0.3090  0.1199 -0.0757
 9174SOL     OW38450   7.636   0.303   0.868  0.1211 -0.2172  0.3747
 9174SOL    HW138451   7.710   0.238   0.847  0.8479  0.4509  0.8299
 9174SOL    HW238452   7.548   0.257   0.860  0.5980 -1.0875  0.0401
 9175SOL     OW38453   0.048   0.016   4.358 -0.3481 -0.6398  0.0567
 9175SOL    HW138454   0.004  -0.031   4.434  2.1182  0.6959  2.4074
 9175SOL    HW238455  -0.008   0.094   4.330 -0.9950 -0.8158  0.8636
 9176SOL     OW38456   7.731   6.458   3.227 -0.1083  0.3526  0.0829
 9176SOL    HW138457   7.736   6.536   3.164 -1.5742  0.6660  0.3252
 9176SOL    HW238458   7.643   6.460   3.274  1.1050  0.2996  2.4151
 9177SOL     OW38459   2.255   1.286   3.939 -0.0666 -0.3430  0.1366
 9177SOL    HW138460   2.305   1.305   3.855 -0.7382  0.6237 -0.0489
 9177SOL    HW238461   2.241   1.187   3.947 -0.0595 -0.4380 -0.9191
 9178SOL     OW38462   9.329   2.950   2.279 -0.7550  0.1678  0.2932
 9178SOL    HW138463   9.351   2.987   2.369  0.3885  1.3301 -0.4596
 9178SOL    HW238464   9.309   2.852   2.287 -0.4574  0.2209  1.7630
 9179SOL     OW38465   9.543   0.815   1.446  0.3428 -0.0283 -0.2963
 9179SOL    HW138466   9.469   0.818   1.513 -0.5173 -0.6740 -1.2017
 9179SOL    HW238467   9.531   0.735   1.387  1.8197 -0.1959 -0.3853
 9180SOL     OW38468   4.733   2.307   3.854  0.2500 -0.0279  0.1963
 9180SOL    HW138469   4.732   2.218   3.808 -2.2445 -0.4182  0.9625
 9180SOL    HW238470   4.816   2.356   3.828  1.1974 -2.1723 -0.9956
 9181SOL     OW38471   7.822   2.096   3.409 -0.3791  0.1135  0.8794
 9181SOL    HW138472   7.789   2.085   3.503  0.8101 -2.8726  1.0121
 9181SOL    HW238473   7.921   2.108   3.410 -0.5905  1.9700  0.0998
 9182SOL     OW38474   8.942   4.958   5.453  0.8269  0.3117 -0.5825
 9182SOL    HW138475   8.941   5.026   5.380 -0.2990  0.0067 -0.8615
 9182SOL    HW238476   8.867   4.976   5.517  1.5512  0.3316  0.2848
 9183SOL     OW38477   7.221   9.510   3.023  0.5808  0.0711  0.1063
 9183SOL    HW138478   7.149   9.451   3.062  1.9505 -1.4289  0.4198
 9183SOL    HW238479   7.281   9.541   3.096  1.4245 -0.3237 -0.4161
 9184SOL     OW38480   1.881   9.055   1.590 -0.0596  0.0044  0.3695
 9184SOL    HW138481   1.872   8.984   1.660  0.1771 -0.4812 -0.0888
 9184SOL    HW238482   1.857   9.017   1.501  2.1013 -0.0769 -0.1973
 9185SOL     OW38483   4.467   4.015   4.409  0.1424 -0.4100  0.1953
 9185SOL    HW138484   4.429   3.959   4.482 -0.3406  0.7700  0.8689
 9185SOL    HW238485   4.406   4.014   4.330 -0.2283 -0.2325  0.4802
 9186SOL     OW38486   9.594   6.018   1.364 -0.0452  0.1127 -0.1825
 9186SOL    HW138487   9.555   6.039   1.454  0.4478 -0.4393  0.1628
 9186SOL    HW238488   9.585   5.920   1.346  0.0988  0.1804 -0.6226
 9187SOL     OW38489   8.832   0.348   3.232 -0.2287  0.0667  0.7141
 9187SOL    HW138490   8.862   0.334   3.138 -0.8338 -1.2316  0.7105
 9187SOL    HW238491   8.800   0.443   3.243  0.3527  0.3743 -0.2411
 9188SOL     OW38492   1.433   8.125   4.991  0.3809 -0.3396 -0.3916
 9188SOL    HW138493   1.486   8.166   5.066 -0.1002 -0.2878 -0.0758
 9188SOL    HW238494   1.336   8.129   5.014  0.2440 -0.4703 -0.9523
 9189SOL     OW38495   0.414   0.540   2.505 -0.5306 -0.4674 -0.0845
 9189SOL    HW138496   0.484   0.607   2.530  0.6045 -1.0172 -1.6757
 9189SOL    HW238497   0.410   0.469   2.575  1.1300 -0.8970 -0.4012
 9190SOL     OW38498   4.927   2.959   2.257  0.3865  0.6169 -0.4414
 9190SOL    HW138499   4.936   2.986   2.161  0.0338  0.4667 -0.5155
 9190SOL    HW238500   5.018   2.936   2.293  0.1335 -2.4922 -1.6695
 9191SOL     OW38501   4.330   5.975   0.764 -0.5796  0.4176 -0.4152
 9191SOL    HW138502   4.424   6.006   0.750 -0.2825  0.0668  0.6815
 9191SOL    HW238503   4.287   6.032   0.834 -0.8522 -0.0337 -0.2139
 9192SOL     OW38504   4.522   7.009   2.824  0.6202 -0.3836  0.6572
 9192SOL    HW138505   4.488   7.103   2.824  1.4135 -0.0846  2.1985
 9192SOL    HW238506   4.620   7.009   2.800  0.5445 -0.8482  0.3419
 9193SOL     OW38507   9.979   1.611   2.448  0.2052  0.1583 -0.2504
 9193SOL    HW138508   9.986   1.524   2.497  1.1794 -0.5214 -1.5617
 9193SOL    HW238509  10.065   1.630   2.400 -0.9784  0.4015 -2.3416
 9194SOL     OW38510   4.358   3.887   0.435  0.1270 -0.6421 -0.1959
 9194SOL    HW138511   4.273   3.841   0.459  0.1256 -1.4100 -1.5648
 9194SOL    HW238512   4.349   3.928   0.344  0.9450 -0.0518 -0.0131
 9195SOL     OW38513   0.490   2.594   5.696  0.4399  0.2662 -0.2375
 9195SOL    HW138514   0.573   2.538   5.698 -1.5553 -2.7927 -0.2235
 9195SOL    HW238515   0.463   2.616   5.789  0.2102 -0.3641 -0.1489
 9196SOL     OW38516   2.039   3.533   0.959 -0.4663  0.6177  0.0191
 9196SOL    HW138517   2.093   3.473   1.018 -1.7926 -1.2081 -0.5607
 9196SOL    HW238518   2.041   3.626   0.995  0.9877  0.0841  1.3832
 9197SOL     OW38519   5.321   8.947   2.974  0.2363 -0.6403  0.3452
 9197SOL    HW138520   5.401   8.891   2.951  1.0963  1.2195 -1.3570
 9197SOL    HW238521   5.251   8.935   2.904 -0.5446 -1.3769  1.2341
 9198SOL     OW38522   3.228   4.094   2.119  0.0743 -0.1334 -0.8555
 9198SOL    HW138523   3.324   4.069   2.111  0.3862 -0.1989  2.4528
 9198SOL    HW238524   3.171   4.022   2.079  1.2931 -1.4965 -0.1817
 9199SOL     OW38525   2.086   9.743   3.061  0.1866 -0.5807  0.2484
 9199SOL    HW138526   1.987   9.745   3.048 -0.2114 -0.2894  3.2124
 9199SOL    HW238527   2.123   9.835   3.053  0.0183 -0.4741  0.7260
 9200SOL     OW38528   9.445   6.295   2.356  0.0403  0.0900 -0.1288
 9200SOL    HW138529   9.543   6.297   2.378  0.2098 -1.4731 -0.6725
 9200SOL    HW238530   9.428   6.351   2.275  0.5365  0.1121 -0.2195
 9201SOL     OW38531   4.237   3.168   1.640 -0.3280  0.6418  0.9103
 9201SOL    HW138532   4.258   3.071   1.648 -1.1492  0.4265  0.5582
 9201SOL    HW238533   4.149   3.186   1.685 -2.2848  0.4283 -2.7080
 9202SOL     OW38534   9.405   0.921   3.018 -0.3896  0.2009 -0.7940
 9202SOL    HW138535   9.324   0.978   3.031 -1.9163 -1.6973 -1.7276
 9202SOL    HW238536   9.384   0.827   3.044  2.9313  0.5196  3.5424
 9203SOL     OW38537   6.379   1.730   2.108 -0.1581  0.2310 -0.0379
 9203SOL    HW138538   6.293   1.754   2.062 -0.3059 -0.3715 -0.0884
 9203SOL    HW238539   6.376   1.633   2.134  1.0550 -0.1555 -1.2555
 9204SOL     OW38540   2.979   8.063   4.895  0.0889  0.3508 -0.0366
 9204SOL    HW138541   2.890   8.022   4.917  1.2637 -1.9258  0.6012
 9204SOL    HW238542   3.019   8.103   4.978  0.9131 -1.1372  0.2998
 9205SOL     OW38543   4.643   2.324   4.956 -0.5289  0.0608 -0.3836
 9205SOL    HW138544   4.705   2.395   4.923 -0.0973 -0.5030 -0.7876
 9205SOL    HW238545   4.683   2.234   4.939 -1.3104 -0.2966 -0.3467
 9206SOL     OW38546   6.919   9.983   0.803  0.0553  0.1333  0.5744
 9206SOL    HW138547   6.989   9.955   0.869  0.2043 -2.6303 -0.6766
 9206SOL    HW238548   6.960  10.046   0.737  0.9743 -0.2405  0.7694
 9207SOL     OW38549   8.294   1.382   5.980 -0.0076 -0.5691 -0.1085
 9207SOL    HW138550   8.202   1.372   6.016 -0.4628 -0.0056 -1.1007
 9207SOL    HW238551   8.302   1.470   5.932  0.6625 -1.1803 -1.1367
 9208SOL     OW38552   8.275   1.751   3.993  0.0096 -0.7683 -0.4949
 9208SOL    HW138553   8.373   1.751   4.010 -0.5816  0.0150  3.3367
 9208SOL    HW238554   8.240   1.845   3.999 -0.7625 -0.7896 -3.6203
 9209SOL     OW38555   2.517   8.902   2.540 -0.4355 -0.2670  0.1138
 9209SOL    HW138556   2.502   8.971   2.470 -1.9532  0.6913  1.3496
 9209SOL    HW238557   2.450   8.913   2.613  2.3402  0.0944  2.7476
 9210SOL     OW38558   2.368   8.687   5.129 -0.1706  0.2615 -0.1999
 9210SOL    HW138559   2.461   8.653   5.136 -0.0810  0.4347 -0.5270
 9210SOL    HW238560   2.362   8.752   5.053 -0.3033  1.0946  0.5130
 9211SOL     OW38561   8.812   8.627   4.100 -0.3856 -0.0415 -0.6614
 9211SOL    HW138562   8.786   8.532   4.114 -0.7385  0.1079 -0.2840
 9211SOL    HW238563   8.742   8.673   4.044 -0.2043 -0.0129 -0.8632
 9212SOL     OW38564   9.856   4.724   5.802  0.2412  0.0344 -0.6019
 9212SOL    HW138565   9.767   4.697   5.766  0.1253  0.7873 -0.8954
 9212SOL    HW238566   9.926   4.661   5.769  0.0208  0.2829 -1.5465
 9213SOL     OW38567   1.624   5.808   2.894  0.3910 -0.0344  0.1406
 9213SOL    HW138568   1.681   5.726   2.893  3.4011  1.9853  0.3742
 9213SOL    HW238569   1.666   5.877   2.953 -1.9753  1.7611 -0.2129
 9214SOL     OW38570   2.618   6.692   6.647  0.0542 -0.8756  0.0617
 9214SOL    HW138571   2.597   6.740   6.562 -1.8020 -1.3495  0.2316
 9214SOL    HW238572   2.644   6.598   6.626 -2.1674 -1.5354  0.0906
 9215SOL     OW38573   2.018   3.669   6.729 -0.8432 -0.0521 -0.2682
 9215SOL    HW138574   2.085   3.683   6.802 -1.9479 -0.6947  0.9011
 9215SOL    HW238575   1.989   3.757   6.692  0.7180  0.2179 -0.8432
 9216SOL     OW38576   9.424   4.477   5.609  0.8751 -0.7907 -0.3922
 9216SOL    HW138577   9.385   4.568   5.595  1.9727  0.0374  1.6404
 9216SOL    HW238578   9.358   4.419   5.655  0.8554 -0.4253  0.0421
 9217SOL     OW38579   0.045   5.758   2.940 -0.5253 -0.5673 -0.8568
 9217SOL    HW138580  -0.021   5.832   2.953  0.7470  0.7707 -1.7947
 9217SOL    HW238581   0.094   5.742   3.025  0.5377  1.0168 -1.1495
 9218SOL     OW38582   0.589   4.050   0.657  0.3358 -0.5783 -0.1692
 9218SOL    HW138583   0.637   4.027   0.572 -1.6744 -1.7637 -1.0086
 9218SOL    HW238584   0.610   3.983   0.727  0.4841 -0.6768 -0.3083
 9219SOL     OW38585   0.429   6.888   0.796 -0.1058  0.5019  0.0758
 9219SOL    HW138586   0.431   6.983   0.827  0.1090  0.4495  0.2177
 9219SOL    HW238587   0.349   6.842   0.836  0.8540  0.0804  1.5985
 9220SOL     OW38588   8.560   2.039   3.201  0.1903 -0.2598 -0.1167
 9220SOL    HW138589   8.580   2.026   3.298 -0.5445  0.0185  0.0753
 9220SOL    HW238590   8.461   2.039   3.187  0.3064 -3.4281 -1.3008
 9221SOL     OW38591   9.009   9.570   4.735 -0.5387 -0.2848 -0.1107
 9221SOL    HW138592   8.990   9.569   4.833  0.9757 -0.6987  0.1919
 9221SOL    HW238593   8.964   9.492   4.692  0.1648 -1.0494  0.5221
 9222SOL     OW38594   0.608   0.811   4.353  0.4939 -0.0112  0.2056
 9222SOL    HW138595   0.648   0.749   4.286  0.4089 -1.4012  1.4148
 9222SOL    HW238596   0.647   0.902   4.342  1.2704 -0.4759 -1.0090
 9223SOL     OW38597   3.601   3.492   2.708 -0.2974 -0.1985  0.5578
 9223SOL    HW138598   3.650   3.558   2.765 -0.2202 -0.8507  1.2599
 9223SOL    HW238599   3.666   3.424   2.674 -0.3609  0.1305 -0.2371
 9224SOL     OW38600   2.834   7.983   0.259  0.8978 -0.1829  0.2271
 9224SOL    HW138601   2.757   8.004   0.320  0.3184 -0.8444 -0.2687
 9224SOL    HW238602   2.806   7.912   0.194  2.3036 -1.2793  0.8018
 9225SOL     OW38603   4.000   4.359   6.745  0.0418  0.4919  0.1929
 9225SOL    HW138604   3.901   4.375   6.750  0.1624  1.0328  1.2238
 9225SOL    HW238605   4.048   4.443   6.772  0.8304  1.1725 -3.1757
 9226SOL     OW38606   3.218   5.776   0.384  0.1051  0.3379 -0.4541
 9226SOL    HW138607   3.312   5.759   0.355 -0.5846  0.6847 -2.9911
 9226SOL    HW238608   3.168   5.689   0.385  0.2180  0.2780  0.0517
 9227SOL     OW38609   9.008   4.548   6.367  0.3177 -0.1300  0.2664
 9227SOL    HW138610   9.058   4.635   6.371  0.5306 -0.1438 -1.5362
 9227SOL    HW238611   8.913   4.563   6.391  0.1841  0.7603 -0.7567
 9228SOL     OW38612   8.936   4.796   4.640  0.2816 -0.4319 -0.8529
 9228SOL    HW138613   8.965   4.756   4.727 -1.6981 -0.8162 -0.3335
 9228SOL    HW238614   8.996   4.764   4.567  1.7955 -0.3314  0.3176
 9229SOL     OW38615   6.129   1.260   4.744 -0.0371  0.0917 -0.4215
 9229SOL    HW138616   6.094   1.243   4.836  0.1299  0.4088 -0.2999
 9229SOL    HW238617   6.228   1.254   4.743  0.1643  2.7574  0.0013
 9230SOL     OW38618   7.350   1.538   5.942 -0.5133 -0.6588 -1.1118
 9230SOL    HW138619   7.359   1.440   5.959 -0.9859 -0.7653 -1.4684
 9230SOL    HW238620   7.388   1.560   5.852  1.9379 -0.1028  0.0290
 9231SOL     OW38621   0.094   7.400   5.890  0.1683  0.5140 -0.2851
 9231SOL    HW138622   0.114   7.496   5.909 -2.3181  0.4575  3.0359
 9231SOL    HW238623   0.107   7.346   5.973 -1.2049 -1.5579 -1.3828
 9232SOL     OW38624   3.307   6.920   4.324 -0.2585  0.2126  0.1756
 9232SOL    HW138625   3.308   6.825   4.356 -1.2876  0.2834  0.4638
 9232SOL    HW238626   3.371   6.931   4.248 -1.7859 -1.2591 -1.3623
 9233SOL     OW38627   7.728   6.476   4.549 -0.3481  0.1022 -0.4139
 9233SOL    HW138628   7.770   6.566   4.560 -0.7345  0.0363  1.8443
 9233SOL    HW238629   7.665   6.478   4.471  0.7409  1.3476 -1.2917
 9234SOL     OW38630   2.822   6.689   0.992  0.2918  0.0446 -0.1267
 9234SOL    HW138631   2.791   6.775   1.033 -0.5673  0.2692 -1.2177
 9234SOL    HW238632   2.771   6.613   1.032 -2.0572  0.4417 -2.1773
 9235SOL     OW38633   1.880   6.965   2.487 -0.2057 -0.4312  0.3611
 9235SOL    HW138634   1.953   6.999   2.546 -0.1682  0.9182 -0.4387
 9235SOL    HW238635   1.791   6.986   2.528 -0.1812  0.6197 -0.1147
 9236SOL     OW38636   9.968   2.742   0.704 -0.8937  0.1040 -0.2589
 9236SOL    HW138637  10.056   2.772   0.741 -0.6533 -1.7972  0.7433
 9236SOL    HW238638   9.955   2.782   0.613  0.1563  1.8843  0.3614
 9237SOL     OW38639   3.007   4.950   5.841 -0.4710 -0.0538 -0.5540
 9237SOL    HW138640   2.979   5.030   5.893 -1.9347 -0.7357 -0.2439
 9237SOL    HW238641   2.925   4.906   5.802  0.3338 -1.2621 -0.9074
 9238SOL     OW38642   9.017   3.898   2.278  0.6423 -0.6327  0.3103
 9238SOL    HW138643   8.972   3.859   2.197 -1.3831  0.0086  1.0933
 9238SOL    HW238644   9.038   3.994   2.261 -2.2766  0.2638  1.4797
 9239SOL     OW38645   8.263   5.792   1.110  0.0808  0.0643  0.1457
 9239SOL    HW138646   8.262   5.801   1.010  2.2049  0.0135  0.1060
 9239SOL    HW238647   8.258   5.882   1.152  0.3677  0.1544 -0.0158
 9240SOL     OW38648   5.460   0.799   2.277  0.2096  0.3708  0.6625
 9240SOL    HW138649   5.549   0.823   2.317  0.8649 -0.2743 -0.3943
 9240SOL    HW238650   5.455   0.700   2.266 -1.3331  0.2352  2.2944
 9241SOL     OW38651   2.208   4.779   2.837 -0.2930 -0.1516  0.0178
 9241SOL    HW138652   2.200   4.710   2.908  2.9652 -1.8116 -1.1263
 9241SOL    HW238653   2.250   4.739   2.755  2.0476  3.2070 -0.5512
 9242SOL     OW38654   1.091   5.435   0.462 -0.4678  0.2575  0.1692
 9242SOL    HW138655   0.994   5.427   0.437 -0.5022  1.2237 -0.0234
 9242SOL    HW238656   1.120   5.531   0.454  0.1526  0.1901  1.5356
 9243SOL     OW38657   0.984   3.217   3.846  0.1569 -0.2794  0.2396
 9243SOL    HW138658   0.914   3.247   3.910 -0.4760 -0.4612 -0.3619
 9243SOL    HW238659   0.978   3.271   3.762 -0.1436 -1.1845 -0.3379
 9244SOL     OW38660   6.460   8.781   4.628  0.2086  0.3101 -0.0068
 9244SOL    HW138661   6.492   8.874   4.645  0.8657  0.0431  0.2646
 9244SOL    HW238662   6.486   8.754   4.536 -0.7190  0.6949 -0.3805
 9245SOL     OW38663   5.070   7.056   3.808 -0.0145 -0.2850  0.1746
 9245SOL    HW138664   4.973   7.033   3.794  0.1133 -0.6649 -0.0924
 9245SOL    HW238665   5.085   7.078   3.905 -0.4726  0.2995  0.1179
 9246SOL     OW38666   7.323   8.579   3.930  0.2034  0.2748  0.2378
 9246SOL    HW138667   7.305   8.513   3.857  0.6516 -0.0717  0.4448
 9246SOL    HW238668   7.352   8.531   4.013  0.3360  0.7185  0.4500
 9247SOL     OW38669   2.929   8.372   5.130  0.0650  0.8553 -0.2606
 9247SOL    HW138670   2.991   8.303   5.167 -1.3713 -0.4856 -0.3117
 9247SOL    HW238671   2.963   8.403   5.042  1.0946  0.7367  0.0844
 9248SOL     OW38672   6.325   0.960   4.421  0.4206  0.0663 -0.4852
 9248SOL    HW138673   6.235   0.916   4.426 -0.7405  2.0983 -2.6064
 9248SOL    HW238674   6.365   0.945   4.331  1.6753  0.2325  0.0347
 9249SOL     OW38675   3.326   9.599   4.191  0.4657  0.0377 -0.2762
 9249SOL    HW138676   3.404   9.654   4.163 -0.4868  0.4791 -2.1316
 9249SOL    HW238677   3.304   9.534   4.118 -0.9126 -0.0714  0.2297
 9250SOL     OW38678   0.550   4.046   1.140 -0.0441  0.6392 -0.4229
 9250SOL    HW138679   0.647   4.039   1.117  0.0042  1.2849 -0.4288
 9250SOL    HW238680   0.520   4.141   1.131 -0.6104  0.4911 -0.1498
 9251SOL     OW38681   9.794   2.581   2.555  0.6139  0.3828  0.3950
 9251SOL    HW138682   9.727   2.590   2.483  0.2116 -2.8099  0.3011
 9251SOL    HW238683   9.886   2.594   2.517  0.2662  0.9418 -0.2534
 9252SOL     OW38684   3.805   4.228   3.079  0.3605  0.1348 -0.1839
 9252SOL    HW138685   3.893   4.257   3.116 -0.2029  0.0122  1.2915
 9252SOL    HW238686   3.814   4.137   3.038  0.8749  0.0336  0.1531
 9253SOL     OW38687   9.063   8.778   2.702  0.1676 -0.2491  0.1423
 9253SOL    HW138688   9.009   8.861   2.692 -1.4373 -1.5249 -2.3510
 9253SOL    HW238689   9.052   8.743   2.795 -0.1730  1.6092  0.8233
 9254SOL     OW38690   8.439   9.139   2.994 -0.5492 -0.2086 -0.4073
 9254SOL    HW138691   8.340   9.145   3.011 -0.5196  1.9863 -0.8306
 9254SOL    HW238692   8.460   9.184   2.907  1.1219  1.5428  0.8793
 9255SOL     OW38693   7.332   7.033   3.647  0.5115  0.1369 -0.0310
 9255SOL    HW138694   7.272   7.112   3.633 -0.0756  0.1019  2.1250
 9255SOL    HW238695   7.400   7.056   3.717  1.7411 -0.5463 -0.9654
 9256SOL     OW38696   3.961   6.677   1.983  0.5426  0.4010  0.2323
 9256SOL    HW138697   4.010   6.630   1.910  0.8548  0.5266  0.3608
 9256SOL    HW238698   3.925   6.764   1.948 -1.1345 -0.5164 -0.3627
 9257SOL     OW38699   2.166   9.849   4.744  0.0542 -0.4337 -0.0897
 9257SOL    HW138700   2.139   9.848   4.648  2.2760 -0.7035 -0.7410
 9257SOL    HW238701   2.126   9.928   4.789  0.4368  0.6853 -1.6698
 9258SOL     OW38702   8.377   3.353   5.596 -0.3411  0.0897  0.1003
 9258SOL    HW138703   8.476   3.348   5.610 -0.3044 -1.0407 -0.4963
 9258SOL    HW238704   8.341   3.435   5.641  1.0761  1.3503 -1.0220
 9259SOL     OW38705   4.829   9.150   1.064  0.0229  0.0925 -0.5600
 9259SOL    HW138706   4.795   9.166   0.971 -1.3989 -0.6174 -0.1755
 9259SOL    HW238707   4.788   9.217   1.126 -1.5267 -1.4060  0.0788
 9260SOL     OW38708   3.184   4.734   3.932  0.2143  0.1292  0.8306
 9260SOL    HW138709   3.171   4.832   3.915 -0.6592  0.2610  2.2212
 9260SOL    HW238710   3.114   4.682   3.882  0.8172  0.1967 -0.0885
 9261SOL     OW38711   9.937   0.473   3.272  0.0973 -0.1804  0.0605
 9261SOL    HW138712   9.913   0.393   3.218 -3.5238  0.4278  0.6581
 9261SOL    HW238713   9.956   0.445   3.366  0.1883 -0.4944 -0.0511
 9262SOL     OW38714   1.043   4.223   1.444  0.1559  0.3146 -0.2326
 9262SOL    HW138715   1.128   4.183   1.412 -0.4093 -1.9946  1.0825
 9262SOL    HW238716   1.031   4.204   1.541 -1.3304  1.5690 -0.1457
 9263SOL     OW38717   5.010   8.182   2.911 -0.3853  0.7929  0.4573
 9263SOL    HW138718   5.075   8.113   2.941  0.6553  2.0924  1.2125
 9263SOL    HW238719   4.951   8.144   2.839  1.8052 -0.0982 -0.9033
 9264SOL     OW38720   9.597   4.139   1.447  0.2175 -1.2863  0.1019
 9264SOL    HW138721   9.514   4.135   1.390  0.4450  1.1106 -0.4664
 9264SOL    HW238722   9.665   4.196   1.401  1.0263 -0.6812  2.0288
 9265SOL     OW38723   9.922   9.944   0.615 -0.6538  0.0505  0.2594
 9265SOL    HW138724   9.875   9.881   0.553  0.1759  1.2859 -1.6692
 9265SOL    HW238725   9.917   9.908   0.708 -0.2901 -2.8097 -0.7677
 9266SOL     OW38726   8.054   2.919   2.642  0.2942 -0.1310  0.3884
 9266SOL    HW138727   8.032   2.982   2.568  0.0858 -0.1318  0.4491
 9266SOL    HW238728   8.131   2.862   2.616  1.1171  0.8145  0.7119
 9267SOL     OW38729   4.995   4.770   1.458  0.1531  0.0987  0.0859
 9267SOL    HW138730   5.046   4.839   1.406 -1.2557  0.3553 -0.9921
 9267SOL    HW238731   4.908   4.752   1.413 -0.6431 -0.4714  1.7948
 9268SOL     OW38732   8.517   0.874   1.668  0.1186 -0.3353  0.1745
 9268SOL    HW138733   8.422   0.905   1.665  0.3972  0.4946 -0.7062
 9268SOL    HW238734   8.577   0.949   1.639  1.0433 -0.8287  0.8010
 9269SOL     OW38735   9.570   4.828   3.109  0.7502  0.7822 -0.1050
 9269SOL    HW138736   9.537   4.736   3.087 -1.5458  1.4728  0.3836
 9269SOL    HW238737   9.670   4.828   3.105  0.8157 -1.8186  0.2192
 9270SOL     OW38738   3.494   2.103   3.026  0.1160  0.0193 -0.4509
 9270SOL    HW138739   3.523   2.174   2.962 -1.8932  0.2356 -1.1522
 9270SOL    HW238740   3.395   2.110   3.042  0.5704  0.0399  2.7565
 9271SOL     OW38741   5.192   0.724   2.074  0.2262  0.3320 -0.5167
 9271SOL    HW138742   5.282   0.756   2.105  0.3685 -0.5644  0.0109
 9271SOL    HW238743   5.131   0.716   2.153 -0.3258  0.9329 -0.8737
 9272SOL     OW38744   5.437   4.427   1.408  0.0198  0.0491  0.4207
 9272SOL    HW138745   5.401   4.335   1.397 -0.1635  0.2635 -0.8285
 9272SOL    HW238746   5.363   4.490   1.431 -0.1391  0.2001 -0.5059
 9273SOL     OW38747   9.604   2.565   1.277  0.3924  0.7310 -0.6595
 9273SOL    HW138748   9.519   2.516   1.295 -0.8820  3.3610  0.9199
 9273SOL    HW238749   9.590   2.627   1.199 -0.3042  3.6777  1.7178
 9274SOL     OW38750   5.153   6.917   2.739  0.0334 -0.2580  0.0503
 9274SOL    HW138751   5.104   6.865   2.809 -0.4964 -0.8042 -0.7322
 9274SOL    HW238752   5.179   6.857   2.664 -2.9378  1.1204 -2.1458
 9275SOL     OW38753   1.800   9.805   4.478 -0.2361 -0.1024 -0.4082
 9275SOL    HW138754   1.762   9.743   4.410  2.2737 -0.5961 -1.4346
 9275SOL    HW238755   1.797   9.898   4.443  1.0518 -0.3551 -1.2344
 9276SOL     OW38756   3.044   2.250   2.078  0.2752  0.2413  0.4423
 9276SOL    HW138757   3.046   2.178   2.009  0.5168  0.8098 -0.1537
 9276SOL    HW238758   3.135   2.263   2.116  0.4989  1.0984 -0.3679
 9277SOL     OW38759   9.034   6.863   2.635 -0.0416  0.1265 -0.0343
 9277SOL    HW138760   9.025   6.894   2.541 -0.4017 -0.4979 -0.2083
 9277SOL    HW238761   9.104   6.917   2.682  0.2196  0.3556 -0.6901
 9278SOL     OW38762   2.370   4.197   6.104  0.1176  0.8452  0.3566
 9278SOL    HW138763   2.292   4.157   6.055 -1.1352  2.7534  0.7212
 9278SOL    HW238764   2.442   4.129   6.114 -1.2845 -0.7956 -0.4840
 9279SOL     OW38765   3.952   6.177   1.790 -0.4634 -0.7023 -0.2659
 9279SOL    HW138766   3.937   6.081   1.814  0.2881 -0.6053  0.6276
 9279SOL    HW238767   4.045   6.203   1.816 -0.2763 -0.0423 -1.5568
 9280SOL     OW38768   0.281   8.238   2.737  0.4502  0.3385  0.0968
 9280SOL    HW138769   0.334   8.322   2.751  0.5420  0.2462  0.2945
 9280SOL    HW238770   0.183   8.260   2.744  0.4691  0.4591 -0.0077
 9281SOL     OW38771   6.390   9.959   1.364  0.4057  0.1469 -0.4471
 9281SOL    HW138772   6.449   9.949   1.444 -0.2586  0.9161  0.1354
 9281SOL    HW238773   6.294   9.951   1.391  0.2203 -0.9031 -1.3631
 9282SOL     OW38774   7.915   0.569   3.305 -0.0805 -0.2680  1.2694
 9282SOL    HW138775   7.876   0.657   3.278 -0.7655 -0.8196  0.4286
 9282SOL    HW238776   8.006   0.583   3.344  0.3675  0.6829 -0.0981
 9283SOL     OW38777   8.424   9.685   1.950  0.0116  0.5784 -0.4840
 9283SOL    HW138778   8.443   9.641   2.038  0.9213 -0.9864 -1.4342
 9283SOL    HW238779   8.489   9.759   1.935  0.8044 -0.1126 -0.4879
 9284SOL     OW38780   8.516   5.848   4.856  0.1670  0.2806 -0.1464
 9284SOL    HW138781   8.561   5.869   4.943  1.5294  1.1073 -1.0302
 9284SOL    HW238782   8.418   5.867   4.863  0.2961  0.4984  1.1469
 9285SOL     OW38783   9.478   2.062   5.361 -0.2354  0.0189  0.4810
 9285SOL    HW138784   9.452   1.973   5.324  1.4202 -0.5751  0.7125
 9285SOL    HW238785   9.567   2.056   5.405 -0.8605  1.3810  2.0506
 9286SOL     OW38786   0.809   5.387   5.276  0.1960  0.7161 -0.5741
 9286SOL    HW138787   0.854   5.356   5.360  1.2548  0.6803 -1.1447
 9286SOL    HW238788   0.711   5.370   5.283  0.3280  0.3297  0.4901
 9287SOL     OW38789   3.071   7.951   3.999  0.2911 -0.1777  0.3619
 9287SOL    HW138790   3.106   7.998   4.080  0.1211 -1.5472  1.2515
 9287SOL    HW238791   2.997   7.889   4.026 -1.1152  0.8088 -1.1376
 9288SOL     OW38792   4.507   0.597   4.356  0.0585 -0.3612 -0.0045
 9288SOL    HW138793   4.592   0.649   4.343 -0.1668 -0.1710 -0.7811
 9288SOL    HW238794   4.498   0.571   4.452  0.4658  0.5441  0.2854
 9289SOL     OW38795   4.554   0.193   2.478 -0.3832 -0.0960  0.0978
 9289SOL    HW138796   4.532   0.096   2.463 -2.4788  0.0709  1.7757
 9289SOL    HW238797   4.653   0.204   2.485 -0.0870 -2.0529 -0.5995
 9290SOL     OW38798   4.923   1.020   2.872 -0.0639 -0.1668 -0.2950
 9290SOL    HW138799   5.020   1.010   2.851 -0.1887 -1.9168 -0.0978
 9290SOL    HW238800   4.910   1.028   2.971 -0.1150  0.1520 -0.3269
 9291SOL     OW38801   1.643   3.084   2.607 -0.2482 -0.0919  0.6425
 9291SOL    HW138802   1.602   3.033   2.532 -0.9988  0.4862  0.6511
 9291SOL    HW238803   1.578   3.089   2.683 -0.1277  0.7444  0.6959
 9292SOL     OW38804   0.538   1.293   4.706 -0.3690  0.5201  0.3823
 9292SOL    HW138805   0.598   1.373   4.707  0.2671  0.0553  0.4932
 9292SOL    HW238806   0.582   1.218   4.756 -1.1600  0.2488  0.6757
 9293SOL     OW38807   1.667   6.197   4.221 -0.0474 -0.1354 -0.1817
 9293SOL    HW138808   1.579   6.150   4.216  0.2368 -0.4961 -2.6023
 9293SOL    HW238809   1.655   6.294   4.197 -0.0974  0.2995  1.5307
 9294SOL     OW38810   2.858   8.523   2.238 -0.3201  0.1177 -0.4845
 9294SOL    HW138811   2.872   8.426   2.257 -1.8257  0.0329  0.2525
 9294SOL    HW238812   2.885   8.544   2.144 -2.4520 -1.5454 -1.4950
 9295SOL     OW38813   1.381   3.435   6.327  0.2324 -0.0918 -0.3252
 9295SOL    HW138814   1.405   3.505   6.394 -1.3235 -0.6730  0.8602
 9295SOL    HW238815   1.443   3.443   6.248  0.4224  2.2695  0.0023
 9296SOL     OW38816   5.043   7.715   2.815  0.3965 -0.5959  0.2425
 9296SOL    HW138817   4.970   7.687   2.752 -1.5397  0.8670  1.7718
 9296SOL    HW238818   5.039   7.658   2.897 -0.4430  0.9389  1.2754
 9297SOL     OW38819   8.028   9.596   3.485  0.6930 -0.0445  0.8537
 9297SOL    HW138820   8.071   9.621   3.571  1.7084  1.8664 -0.1853
 9297SOL    HW238821   8.050   9.664   3.415 -1.5615 -0.6149 -0.4724
 9298SOL     OW38822   2.906   3.172   5.216 -0.2328  0.3144  0.0538
 9298SOL    HW138823   2.991   3.130   5.183 -0.0297  0.9162 -0.1874
 9298SOL    HW238824   2.916   3.271   5.217 -1.1683  0.4205 -0.6364
 9299SOL     OW38825   5.434   0.760   3.378 -0.2592 -0.2252  0.3655
 9299SOL    HW138826   5.349   0.739   3.425 -0.5456 -1.9782 -0.9006
 9299SOL    HW238827   5.426   0.736   3.281  1.4283  0.2873  0.0710
 9300SOL     OW38828   7.176   9.260   2.314  0.1783  0.4762  0.5871
 9300SOL    HW138829   7.173   9.350   2.270  0.5663  1.2936  2.2159
 9300SOL    HW238830   7.085   9.220   2.315  0.0655  0.6755 -0.4638
 9301SOL     OW38831   3.273   5.708   4.321 -0.6999  0.1784  0.2530
 9301SOL    HW138832   3.229   5.777   4.378  1.4666  0.9924  1.0222
 9301SOL    HW238833   3.352   5.670   4.370 -0.6154 -1.3312 -1.0051
 9302SOL     OW38834   8.477   9.092   4.586 -0.0108 -0.8699  0.1402
 9302SOL    HW138835   8.443   9.137   4.668  0.5991 -0.1828  0.0179
 9302SOL    HW238836   8.574   9.068   4.598  0.7535  1.3425 -1.2342
 9303SOL     OW38837   0.827   2.085   1.182 -0.1071 -0.3624  0.6426
 9303SOL    HW138838   0.742   2.087   1.131 -0.5688 -1.6263  1.3201
 9303SOL    HW238839   0.887   2.159   1.152 -1.4749  0.5760  0.2236
 9304SOL     OW38840   3.320   4.587   1.329  0.2203 -0.4785  0.3786
 9304SOL    HW138841   3.242   4.570   1.390  0.1627 -0.6551  0.2557
 9304SOL    HW238842   3.367   4.501   1.310 -0.9116 -0.7475 -1.3800
 9305SOL     OW38843   0.784   6.216   5.784 -0.3253  0.2149  0.8520
 9305SOL    HW138844   0.745   6.256   5.701  0.1541 -2.6468 -0.7978
 9305SOL    HW238845   0.788   6.286   5.855 -2.4779  2.2411 -0.9295
 9306SOL     OW38846   9.343   7.161   2.776  0.1193  0.3524  0.5192
 9306SOL    HW138847   9.439   7.140   2.761  0.0346 -0.9600  1.7285
 9306SOL    HW238848   9.306   7.207   2.695  1.6661  0.5647 -0.0817
 9307SOL     OW38849   5.045   4.583   6.680 -0.5055 -0.2469  0.0992
 9307SOL    HW138850   4.963   4.531   6.701 -1.5849  0.7567 -1.4977
 9307SOL    HW238851   5.023   4.681   6.677  0.8615  0.0823  0.1761
 9308SOL     OW38852   3.362   6.977   3.099 -0.4086 -0.1457  0.2936
 9308SOL    HW138853   3.280   6.996   3.153 -0.0940 -0.8141  1.0129
 9308SOL    HW238854   3.443   6.988   3.155  0.0867  1.8095 -0.7701
 9309SOL     OW38855   4.781   4.983   2.950 -0.1483  0.5147  0.0204
 9309SOL    HW138856   4.834   5.066   2.932 -1.0613  1.1623  0.2416
 9309SOL    HW238857   4.684   5.001   2.929 -0.3143 -0.5727 -0.1704
 9310SOL     OW38858   1.821   6.569   5.260 -0.2752  0.4285 -0.2429
 9310SOL    HW138859   1.860   6.538   5.173 -1.6166 -0.4781 -0.5416
 9310SOL    HW238860   1.894   6.591   5.324  0.8291  4.1843 -2.6531
 9311SOL     OW38861   4.678   2.521   1.973  0.2506 -0.0804 -0.4143
 9311SOL    HW138862   4.663   2.429   2.007  0.2738  0.7746  1.9551
 9311SOL    HW238863   4.771   2.550   1.995 -0.1598  0.9722 -0.0159
 9312SOL     OW38864   4.087   5.904   2.790 -0.0444 -0.1790 -0.5653
 9312SOL    HW138865   4.129   5.830   2.739 -0.2172 -0.1902 -0.6921
 9312SOL    HW238866   4.044   5.969   2.726 -0.8396 -0.5426 -0.4142
 9313SOL     OW38867   6.166   0.026   1.536  0.0286  0.3352  0.2854
 9313SOL    HW138868   6.100   0.017   1.611 -1.0189  0.0997 -0.6613
 9313SOL    HW238869   6.150   0.112   1.487 -1.6549 -1.2273 -1.9395
 9314SOL     OW38870   3.954   1.283   3.320 -0.1110 -0.0852  0.2490
 9314SOL    HW138871   3.905   1.240   3.244 -0.9379  0.2398  0.5877
 9314SOL    HW238872   4.052   1.287   3.299 -0.4500  0.8754 -1.2215
 9315SOL     OW38873   9.122   9.751   0.868  0.1154  0.4447  0.0150
 9315SOL    HW138874   9.126   9.851   0.867  0.0502  0.4762  1.3300
 9315SOL    HW238875   9.215   9.714   0.878 -0.0438  0.4501  1.7867
 9316SOL     OW38876   2.159   6.155   2.999  0.2209 -0.1835 -0.6141
 9316SOL    HW138877   2.239   6.205   2.967  0.6240 -0.2837  0.2374
 9316SOL    HW238878   2.136   6.083   2.934  0.0017  0.7059 -1.5441
 9317SOL     OW38879   3.314   3.502   5.082  0.1746  0.1841  0.5119
 9317SOL    HW138880   3.245   3.574   5.095  1.5626  1.6212  0.1128
 9317SOL    HW238881   3.293   3.451   4.999 -0.8236  0.1179  0.7932
 9318SOL     OW38882   4.785   9.668   1.023  0.6109 -0.2091 -0.4610
 9318SOL    HW138883   4.849   9.686   1.097 -3.0996 -1.2678  3.2342
 9318SOL    HW238884   4.717   9.742   1.018 -0.8892 -1.5822 -0.8561
 9319SOL     OW38885   1.775   5.157   0.334  0.5074  0.0162  0.3830
 9319SOL    HW138886   1.763   5.224   0.261  1.0182 -0.2541  0.0490
 9319SOL    HW238887   1.815   5.201   0.414  1.3417  0.0114 -0.0192
 9320SOL     OW38888   8.616   4.520   4.453 -0.0050 -0.2912  0.2235
 9320SOL    HW138889   8.618   4.575   4.536  1.2968  1.1815 -0.7359
 9320SOL    HW238890   8.687   4.449   4.458  0.1237 -0.1542  0.3526
 9321SOL     OW38891   2.243   8.813   4.660 -0.0107 -0.2016 -0.2109
 9321SOL    HW138892   2.246   8.847   4.566 -0.7203  1.2860  0.2794
 9321SOL    HW238893   2.207   8.720   4.661  0.4157 -0.3928 -1.4436
 9322SOL     OW38894   8.807   8.815   4.320  0.3749 -0.4355 -0.9277
 9322SOL    HW138895   8.885   8.814   4.382 -0.4240 -2.0969  0.0843
 9322SOL    HW238896   8.808   8.731   4.265 -1.3160 -1.0205 -0.0888
 9323SOL     OW38897   1.978   3.133   2.221 -0.0527 -0.0762  0.3121
 9323SOL    HW138898   1.941   3.172   2.306 -0.4700 -2.1273  1.1028
 9323SOL    HW238899   2.074   3.161   2.211  0.1399 -0.1616  1.7155
 9324SOL     OW38900   0.029   8.704   2.166  1.0171 -0.0553 -0.4870
 9324SOL    HW138901  -0.059   8.693   2.212 -0.9013  0.7003 -3.8176
 9324SOL    HW238902   0.081   8.618   2.172 -0.6302 -1.0328  0.1348
 9325SOL     OW38903   5.863   7.120   2.442 -0.5777  0.1312 -0.1290
 9325SOL    HW138904   5.921   7.114   2.524 -0.7470 -0.2434 -0.0364
 9325SOL    HW238905   5.887   7.202   2.390 -1.4309  1.1610  1.0489
 9326SOL     OW38906   8.042   3.439   4.499  0.3054  0.3145  0.6211
 9326SOL    HW138907   8.115   3.376   4.523 -0.2543 -0.2981  0.7075
 9326SOL    HW238908   7.954   3.404   4.532 -0.3477 -0.0757 -1.4442
 9327SOL     OW38909   1.594   4.289   4.494 -0.0092  0.1893  0.5081
 9327SOL    HW138910   1.497   4.267   4.492  0.1760 -0.7796  1.5337
 9327SOL    HW238911   1.614   4.360   4.427 -1.2624 -0.2456 -0.3327
 9328SOL     OW38912   3.120   8.228   1.548  0.1663 -0.4242  0.0018
 9328SOL    HW138913   3.188   8.300   1.558 -0.0149 -0.5404  2.2522
 9328SOL    HW238914   3.112   8.203   1.451  0.9195  1.8864 -0.6803
 9329SOL     OW38915   6.240   0.442   0.363 -0.2106  0.0046 -0.1107
 9329SOL    HW138916   6.339   0.438   0.379  0.0206 -1.2761 -1.7267
 9329SOL    HW238917   6.210   0.537   0.366  1.3551  0.5645 -1.2171
 9330SOL     OW38918   6.374   7.409   3.972  0.2909 -0.2369 -0.1534
 9330SOL    HW138919   6.333   7.403   4.063 -0.0507  2.0320 -0.1134
 9330SOL    HW238920   6.306   7.442   3.907  1.2071  0.5563 -0.7189
 9331SOL     OW38921   3.212   3.751   6.687 -0.3325  0.8282 -0.1487
 9331SOL    HW138922   3.209   3.785   6.593 -2.0583 -0.3878 -0.5721
 9331SOL    HW238923   3.119   3.744   6.722  0.3834  3.0113  2.3282
 9332SOL     OW38924   9.156   4.952   5.725  0.3922 -0.6084  0.0104
 9332SOL    HW138925   9.065   4.918   5.700 -0.4702 -0.5491  2.8934
 9332SOL    HW238926   9.149   5.049   5.749  0.8292 -1.0376  1.9969
 9333SOL     OW38927   9.685   7.556   6.285 -0.1867 -0.0765  0.0153
 9333SOL    HW138928   9.689   7.481   6.350 -0.7507 -0.7169 -0.6831
 9333SOL    HW238929   9.593   7.563   6.247  0.1563  0.2179 -0.7847
 9334SOL     OW38930   7.457   2.057   5.075  0.1301  0.5997 -0.2121
 9334SOL    HW138931   7.362   2.068   5.104  0.4227  1.8587  0.3256
 9334SOL    HW238932   7.478   1.960   5.065 -0.6987  0.2322  1.4176
 9335SOL     OW38933   3.806   7.476   2.062 -0.3416 -0.5850 -0.5637
 9335SOL    HW138934   3.717   7.513   2.086 -1.2511 -3.5721  1.0078
 9335SOL    HW238935   3.870   7.490   2.137  0.0668  0.1693 -1.0508
 9336SOL     OW38936   6.684   3.546   0.262 -0.0396 -0.4508  0.7035
 9336SOL    HW138937   6.685   3.540   0.162 -1.4750 -0.4376  0.6774
 9336SOL    HW238938   6.778   3.536   0.297  0.4174 -0.9176 -0.6096
 9337SOL     OW38939   8.935   5.611   6.635 -0.0712 -0.0074  0.3598
 9337SOL    HW138940   8.865   5.636   6.568 -1.0518 -0.2306  1.2923
 9337SOL    HW238941   8.994   5.690   6.653  1.3704 -0.4450 -2.1344
 9338SOL     OW38942   3.497   6.217   0.609 -0.4990 -0.3661 -0.0329
 9338SOL    HW138943   3.493   6.290   0.678 -1.6291 -0.0963 -0.3678
 9338SOL    HW238944   3.444   6.244   0.529  1.7537 -0.1926 -1.4986
 9339SOL     OW38945   3.257   9.545   1.013  0.2442 -0.2296  0.1990
 9339SOL    HW138946   3.169   9.582   1.043 -0.0229 -0.1889 -0.6198
 9339SOL    HW238947   3.242   9.460   0.964  0.4495  0.9785 -1.9936
 9340SOL     OW38948   0.695   7.817   6.278 -0.3720  0.2270  0.1328
 9340SOL    HW138949   0.711   7.797   6.182  2.1317  0.5487  0.4581
 9340SOL    HW238950   0.613   7.874   6.287 -1.4673 -1.0193 -1.6662
 9341SOL     OW38951   9.400   1.557   2.488  0.3540 -0.3019  0.1325
 9341SOL    HW138952   9.485   1.504   2.495  0.5201 -0.1020 -0.3244
 9341SOL    HW238953   9.321   1.497   2.501  0.4783 -1.0061 -2.1426
 9342SOL     OW38954   0.667   7.697   2.666 -1.4248  0.2197 -0.5693
 9342SOL    HW138955   0.597   7.626   2.662 -0.1728 -1.1016  0.5281
 9342SOL    HW238956   0.713   7.704   2.577 -1.3459 -0.5604 -0.5916
 9343SOL     OW38957   2.363   7.407   0.455 -0.0658 -0.2978  0.2242
 9343SOL    HW138958   2.387   7.338   0.523 -3.1212  0.1361  1.8460
 9343SOL    HW238959   2.323   7.363   0.374  0.6045 -0.6048  0.0605
 9344SOL     OW38960   8.463   3.310   4.891 -0.2220 -0.5407  0.3983
 9344SOL    HW138961   8.417   3.386   4.937 -1.1487 -2.3117  2.4865
 9344SOL    HW238962   8.433   3.224   4.931  1.6926 -1.9682 -1.1361
 9345SOL     OW38963   3.975   3.476   1.239  0.2518  0.1103 -0.0764
 9345SOL    HW138964   4.021   3.424   1.311 -0.2628 -0.4588 -0.1513
 9345SOL    HW238965   4.015   3.567   1.232  0.4451  0.0918  0.7913
 9346SOL     OW38966   9.055   9.606   5.574 -0.0189  0.7370  0.4580
 9346SOL    HW138967   9.145   9.569   5.552 -0.4360  0.7585 -1.3575
 9346SOL    HW238968   9.029   9.675   5.506 -2.4093 -0.9432 -0.4042
 9347SOL     OW38969   8.555   1.968   3.947  0.3054 -0.3693  0.1628
 9347SOL    HW138970   8.581   1.895   4.009  3.3769  0.3783 -0.1566
 9347SOL    HW238971   8.553   2.055   3.996 -1.9628 -0.4281  0.2308
 9348SOL     OW38972   6.717   7.797   2.992 -0.3505  0.3371  0.5160
 9348SOL    HW138973   6.623   7.802   3.027 -0.7816 -0.1059 -0.5735
 9348SOL    HW238974   6.744   7.701   2.984 -0.6023  0.4040 -1.2699
 9349SOL     OW38975   2.364   1.939   1.359 -0.1328  0.3551  0.4707
 9349SOL    HW138976   2.346   2.035   1.380 -2.0799 -0.1396  1.1700
 9349SOL    HW238977   2.367   1.886   1.444 -1.9526 -0.6603 -0.0724
 9350SOL     OW38978   7.487   8.382   4.157  0.2323 -0.1493  0.6871
 9350SOL    HW138979   7.571   8.371   4.211  1.0387 -0.5455 -0.6163
 9350SOL    HW238980   7.506   8.357   4.062 -1.1535  0.5929  0.2131
 9351SOL     OW38981   4.062   5.135   1.014  0.5959  0.2217  0.0532
 9351SOL    HW138982   4.059   5.146   1.113  0.1797  1.4316 -0.0952
 9351SOL    HW238983   4.045   5.222   0.970 -0.7020 -0.6088 -1.1054
 9352SOL     OW38984   4.542   8.082   4.075  0.1611  0.4426  0.1238
 9352SOL    HW138985   4.636   8.089   4.043 -0.1986 -0.8732 -1.2551
 9352SOL    HW238986   4.495   8.010   4.025 -0.4524 -1.6160  3.5217
 9353SOL     OW38987   6.778   8.876   5.371 -0.3152  0.5359 -0.5364
 9353SOL    HW138988   6.681   8.902   5.373 -0.3654  0.3547 -0.6511
 9353SOL    HW238989   6.811   8.879   5.277 -0.4446 -0.2808 -0.6112
 9354SOL     OW38990   8.589   9.786   3.619 -0.8065 -0.0600 -0.1774
 9354SOL    HW138991   8.601   9.688   3.602 -2.3961 -0.3274  0.1295
 9354SOL    HW238992   8.600   9.804   3.717  3.4516  0.7179 -0.7035
 9355SOL     OW38993   6.418   4.296   0.204  0.1796 -0.0787  0.6591
 9355SOL    HW138994   6.336   4.330   0.158 -0.5213  1.1459  2.7526
 9355SOL    HW238995   6.484   4.370   0.213  0.2727 -0.2691  1.6647
 9356SOL     OW38996   4.070   1.625   4.599  0.2151  0.4395  0.1823
 9356SOL    HW138997   4.081   1.652   4.504 -1.6370 -2.7018 -1.0133
 9356SOL    HW238998   3.981   1.658   4.633  0.1475  0.1222  0.3128
 9357SOL     OW38999   8.584   8.639   3.180  0.5024 -0.2715  1.0470
 9357SOL    HW139000   8.653   8.608   3.245  0.0399 -3.8956 -0.0846
 9357SOL    HW239001   8.617   8.623   3.087 -1.0228 -0.1448  0.4754
 9358SOL     OW39002   4.304   4.824   3.310 -0.7264 -0.6397 -0.3743
 9358SOL    HW139003   4.379   4.873   3.353 -0.5505  0.5556 -1.9743
 9358SOL    HW239004   4.340   4.751   3.252 -0.7723 -0.1318 -1.0615
 9359SOL     OW39005   1.394   9.944   4.353 -0.1078  0.3151  0.0686
 9359SOL    HW139006   1.448   9.865   4.323 -1.9969 -0.4327 -1.4786
 9359SOL    HW239007   1.387   9.942   4.453  1.3696 -0.4529  0.1848
 9360SOL     OW39008   1.811   6.691   1.546  0.1355 -0.0957 -0.2652
 9360SOL    HW139009   1.730   6.687   1.489  0.2646  0.4772 -0.4979
 9360SOL    HW239010   1.829   6.602   1.587 -0.3978 -0.3104 -0.5075
 9361SOL     OW39011   9.978   0.520   4.280 -0.0689  0.1880 -1.1910
 9361SOL    HW139012  10.074   0.541   4.262  0.1157  0.6312  0.2345
 9361SOL    HW239013   9.941   0.586   4.346 -0.4989 -1.7126  0.5384
 9362SOL     OW39014   3.024   6.592   0.818 -0.1908 -0.0422 -0.1826
 9362SOL    HW139015   2.980   6.661   0.876  0.4351  0.5480 -0.4111
 9362SOL    HW239016   3.031   6.506   0.869 -1.4092 -0.0835 -0.0680
 9363SOL     OW39017   9.763   4.093   5.036 -0.3026  0.3193  0.2055
 9363SOL    HW139018   9.678   4.118   5.083 -0.0224 -0.4146  1.1046
 9363SOL    HW239019   9.841   4.126   5.089  0.0072  0.0866 -0.1045
 9364SOL     OW39020   5.684   1.272   5.693  0.1831  0.1458 -0.7614
 9364SOL    HW139021   5.682   1.176   5.722  1.6313  0.7541  1.4430
 9364SOL    HW239022   5.593   1.299   5.662 -0.7894 -1.2791  0.8003
 9365SOL     OW39023   8.404   6.788   0.512 -0.7107  0.3130  0.0615
 9365SOL    HW139024   8.437   6.878   0.483 -0.3337  0.5670  1.2561
 9365SOL    HW239025   8.474   6.743   0.568 -1.2232 -0.3803  0.1555
 9366SOL     OW39026   9.060   5.262   1.293  0.3340  0.3961  0.0965
 9366SOL    HW139027   9.012   5.178   1.270  0.1861 -0.5331  3.5292
 9366SOL    HW239028   9.144   5.241   1.344  0.9847  2.2694 -0.1341
 9367SOL     OW39029   9.537   4.480   4.567  0.2639 -0.0786 -1.0255
 9367SOL    HW139030   9.514   4.476   4.470  1.0187 -0.2095 -1.2018
 9367SOL    HW239031   9.576   4.569   4.589 -1.2928  0.5105 -0.5171
 9368SOL     OW39032   8.481   9.391   3.424 -0.9312 -0.7532  0.3653
 9368SOL    HW139033   8.480   9.454   3.502  2.1730 -0.8462  0.5254
 9368SOL    HW239034   8.429   9.431   3.348 -0.1950  1.4008  0.9603
 9369SOL     OW39035   9.489   2.959   4.122  0.3772 -0.1388 -0.2338
 9369SOL    HW139036   9.399   2.957   4.166  0.3655 -1.2764 -0.3138
 9369SOL    HW239037   9.479   2.944   4.024  0.5432  0.9805 -0.4343
 9370SOL     OW39038   2.482   3.388   0.855  0.1421 -0.1408 -0.3061
 9370SOL    HW139039   2.403   3.348   0.903 -0.1399  1.7325  0.8622
 9370SOL    HW239040   2.451   3.434   0.772  0.2919 -1.2286 -0.9650
 9371SOL     OW39041   0.004   1.449   0.753 -0.1332  0.0288 -0.1326
 9371SOL    HW139042  -0.095   1.439   0.753 -0.0993 -0.4163  1.1776
 9371SOL    HW239043   0.041   1.417   0.840  0.9308  2.3641  0.3346
 9372SOL     OW39044   2.929   9.653   4.101 -0.0872 -0.6597  0.3044
 9372SOL    HW139045   2.939   9.617   4.009  0.4180 -1.6699  0.7496
 9372SOL    HW239046   3.017   9.687   4.133 -0.3601  0.1163  0.2443
 9373SOL     OW39047   9.000   2.629   0.812  0.2479 -0.0468 -0.0872
 9373SOL    HW139048   9.016   2.532   0.793  0.4774  0.0881 -0.5796
 9373SOL    HW239049   8.921   2.661   0.761 -1.9476 -0.8282  2.7065
 9374SOL     OW39050   7.140   1.772   2.190  0.0431 -0.3879 -0.0488
 9374SOL    HW139051   7.106   1.730   2.274 -0.9392 -1.6721 -1.0616
 9374SOL    HW239052   7.239   1.762   2.186 -0.0648 -1.6469  0.2599
 9375SOL     OW39053   2.052   0.791   4.068  0.0896  0.2783 -0.0163
 9375SOL    HW139054   1.983   0.750   4.008  0.1408 -1.1891  0.9064
 9375SOL    HW239055   2.056   0.889   4.052 -1.3388  0.1960 -0.9500
 9376SOL     OW39056   2.852   1.610   3.526 -0.0978 -0.1273  0.5333
 9376SOL    HW139057   2.914   1.638   3.599 -0.7459 -0.7690  1.3392
 9376SOL    HW239058   2.836   1.511   3.532  1.2739 -0.5061 -1.5761
 9377SOL     OW39059   9.973   6.538   0.928 -0.2363  0.1300 -0.4478
 9377SOL    HW139060  10.004   6.444   0.912 -0.9403 -0.6002  2.2470
 9377SOL    HW239061   9.903   6.562   0.861 -1.8712 -2.1874  0.3908
 9378SOL     OW39062   3.557   7.270   0.377 -0.3096 -0.4911 -0.5817
 9378SOL    HW139063   3.521   7.350   0.329  0.4127 -0.9892 -1.9813
 9378SOL    HW239064   3.564   7.290   0.475 -0.7911  0.9126 -0.8236
 9379SOL     OW39065   9.182   8.015   1.983  0.7260 -0.1257  0.4637
 9379SOL    HW139066   9.162   8.099   2.033 -0.2641  0.7606 -1.3849
 9379SOL    HW239067   9.279   7.992   1.994  0.6687  0.4343  2.1917
 9380SOL     OW39068   2.845   8.317   0.523  0.0257 -0.2421  0.3881
 9380SOL    HW139069   2.808   8.354   0.608  0.5517 -0.4764  0.7269
 9380SOL    HW239070   2.916   8.378   0.488  1.5202 -1.3232  1.4181
 9381SOL     OW39071   3.869   1.506   1.125  0.1605 -0.4332  0.3296
 9381SOL    HW139072   3.901   1.571   1.194  2.7424  0.0584 -1.2821
 9381SOL    HW239073   3.784   1.464   1.157 -0.8635  2.7199  2.0104
 9382SOL     OW39074   1.748   1.909   4.215 -0.0338 -0.1779  0.4078
 9382SOL    HW139075   1.731   1.893   4.312 -0.9767  1.1560  0.4831
 9382SOL    HW239076   1.663   1.939   4.171  0.9558  1.6954 -0.2819
 9383SOL     OW39077   8.953   7.967   0.982 -0.0675 -0.3814  0.1571
 9383SOL    HW139078   8.853   7.970   0.981 -0.0760 -0.6923 -1.1752
 9383SOL    HW239079   8.989   8.033   0.915  0.6683  0.8520  1.7180
 9384SOL     OW39080   4.780   1.557   1.773  0.2390  0.2433 -0.0929
 9384SOL    HW139081   4.756   1.470   1.815  1.1622  0.7089  1.4723
 9384SOL    HW239082   4.867   1.548   1.724  0.7898  0.4816  0.8184
 9385SOL     OW39083   1.439   5.735   2.201  0.3019  0.3587 -0.2674
 9385SOL    HW139084   1.506   5.663   2.187 -0.1734  0.1712 -1.6391
 9385SOL    HW239085   1.469   5.818   2.153  0.9366  1.1428  1.4432
 9386SOL     OW39086   1.128   3.028   2.158  0.4589 -0.0858  0.6373
 9386SOL    HW139087   1.094   3.044   2.066 -1.2419 -1.8594  0.9397
 9386SOL    HW239088   1.167   2.936   2.165 -0.1255 -0.2534  1.8955
 9387SOL     OW39089   1.017   0.987   4.903 -0.3398 -0.1339  0.3167
 9387SOL    HW139090   1.011   0.996   4.803 -0.9991  0.2441  0.3818
 9387SOL    HW239091   0.991   0.894   4.930  0.6533 -0.4834  0.0752
 9388SOL     OW39092   7.918   4.074   1.414  0.0948  0.5289  0.1375
 9388SOL    HW139093   7.939   4.037   1.324  1.7973  1.9605 -0.0772
 9388SOL    HW239094   7.913   4.174   1.410  1.9900  0.7394  1.9558
 9389SOL     OW39095   1.811   4.029   4.819 -0.2353 -0.1900 -0.0226
 9389SOL    HW139096   1.905   4.059   4.805 -0.5361  0.6990 -0.1314
 9389SOL    HW239097   1.811   3.945   4.874  0.5606  0.3636  0.8262
 9390SOL     OW39098   3.969   9.203   1.321  0.3722 -0.9305  0.0033
 9390SOL    HW139099   3.988   9.106   1.312 -0.5741 -1.0157 -1.1142
 9390SOL    HW239100   3.871   9.220   1.306  0.3960  0.1072  0.8806
 9391SOL     OW39101   0.134   4.577   3.610 -1.1364 -0.0546 -0.3092
 9391SOL    HW139102   0.187   4.655   3.644 -0.4409 -1.2218  1.3650
 9391SOL    HW239103   0.052   4.566   3.666 -1.7594  0.1142 -1.1949
 9392SOL     OW39104   2.162   4.037   3.579 -0.0965 -0.3795 -0.1182
 9392SOL    HW139105   2.095   3.963   3.577  0.4672 -0.9563  1.7162
 9392SOL    HW239106   2.141   4.100   3.653 -0.4852  1.2516 -1.5798
 9393SOL     OW39107   0.203   4.922   0.961 -0.3580 -0.0144  0.1789
 9393SOL    HW139108   0.142   4.844   0.970 -1.3379  0.9561  1.9591
 9393SOL    HW239109   0.153   5.006   0.976  1.1458  0.8677  0.3420
 9394SOL     OW39110   2.956   6.092   1.357  0.2400 -0.2975 -0.3544
 9394SOL    HW139111   2.995   6.184   1.368 -0.1918  0.1157 -2.1054
 9394SOL    HW239112   2.900   6.070   1.437 -0.4872  1.4011 -0.3659
 9395SOL     OW39113   0.315   0.510   4.127 -0.2233 -0.0541  0.3829
 9395SOL    HW139114   0.274   0.498   4.217 -1.0063 -1.3341 -0.1359
 9395SOL    HW239115   0.246   0.545   4.063  0.1293  0.1210  0.0956
 9396SOL     OW39116   1.404   9.800   2.345 -0.0250 -0.4134  0.3901
 9396SOL    HW139117   1.397   9.725   2.411  0.1994 -1.0808 -0.3481
 9396SOL    HW239118   1.404   9.887   2.395 -1.2438 -0.8475  1.1920
 9397SOL     OW39119   5.472   3.390   6.600  0.2665 -1.0069 -0.2288
 9397SOL    HW139120   5.385   3.439   6.608 -0.4698 -2.4837  1.1397
 9397SOL    HW239121   5.525   3.403   6.684  2.0742  1.1434 -1.6501
 9398SOL     OW39122   7.671   8.583   1.901 -0.0570  0.0791  0.0526
 9398SOL    HW139123   7.755   8.636   1.919  0.5375 -1.1228  0.8522
 9398SOL    HW239124   7.684   8.489   1.932 -1.8866  0.0067  0.6123
 9399SOL     OW39125   1.802   5.139   1.947  0.2594 -0.4830  0.5298
 9399SOL    HW139126   1.890   5.173   1.914  0.3446 -1.4298 -0.2433
 9399SOL    HW239127   1.778   5.185   2.032  0.4746  1.3487 -0.3687
 9400SOL     OW39128   8.823   3.583   3.366 -0.1809  0.1518 -0.1301
 9400SOL    HW139129   8.751   3.526   3.327  0.8862 -0.2147 -1.6118
 9400SOL    HW239130   8.786   3.672   3.392 -1.0990  0.0562 -1.1113
 9401SOL     OW39131   3.292   4.066   6.461 -0.2688  0.1331 -0.4675
 9401SOL    HW139132   3.228   3.990   6.449 -0.0874  0.0092 -0.6424
 9401SOL    HW239133   3.243   4.144   6.502 -0.0732 -0.6345  1.2569
 9402SOL     OW39134   4.590   0.274   3.386 -0.4197 -0.1183  0.0632
 9402SOL    HW139135   4.543   0.352   3.428  1.0078  1.0925 -0.5471
 9402SOL    HW239136   4.686   0.275   3.413 -0.1581 -1.0442 -0.8214
 9403SOL     OW39137   9.835   5.302   0.517  0.5842  0.5490  0.0661
 9403SOL    HW139138   9.913   5.257   0.473  0.3907  1.2426 -1.0219
 9403SOL    HW239139   9.796   5.368   0.454 -0.0551  1.1729  1.1078
 9404SOL     OW39140   3.077   6.770   4.485 -0.0368 -0.2641  0.1651
 9404SOL    HW139141   3.115   6.833   4.417  0.5754 -1.9501 -1.0740
 9404SOL    HW239142   3.149   6.740   4.547  0.1962 -1.6516 -0.7622
 9405SOL     OW39143   4.917   0.589   4.186  0.3629 -0.2055 -0.1804
 9405SOL    HW139144   4.864   0.566   4.104 -1.3162  0.0246  0.8253
 9405SOL    HW239145   4.993   0.649   4.160  0.5210 -1.0387 -1.7315
 9406SOL     OW39146   9.882   5.181   0.109 -0.8392  0.5037  0.4947
 9406SOL    HW139147   9.849   5.268   0.147 -2.3626 -0.2375  0.9059
 9406SOL    HW239148   9.959   5.199   0.047 -0.3845  2.0331  1.4604
 9407SOL     OW39149   4.116   6.232   4.082  0.0731  0.0946 -0.1518
 9407SOL    HW139150   4.137   6.309   4.143  0.3237 -0.1486  0.0721
 9407SOL    HW239151   4.073   6.266   3.999  3.0784  0.8359 -1.4683
 9408SOL     OW39152   9.619   5.129   0.945  0.9252 -0.0334  0.1140
 9408SOL    HW139153   9.604   5.068   0.868  1.8747  1.1895 -1.0708
 9408SOL    HW239154   9.691   5.092   1.004  1.1652 -0.2788 -0.3342
 9409SOL     OW39155   8.742   7.617   4.133 -0.1030  0.0828  0.1106
 9409SOL    HW139156   8.751   7.521   4.107  0.4695  0.3876 -0.8453
 9409SOL    HW239157   8.783   7.632   4.223  0.3170 -0.4567  0.0080
 9410SOL     OW39158   9.582   5.909   2.077 -0.6474 -0.1230 -0.1552
 9410SOL    HW139159   9.621   5.930   1.987 -1.7861 -1.5691 -0.9919
 9410SOL    HW239160   9.539   5.991   2.114  2.1678  1.2345  0.3025
 9411SOL     OW39161   1.317   0.310   2.936 -0.5975 -0.1025  0.3965
 9411SOL    HW139162   1.281   0.316   2.843 -0.9408 -1.4151  0.4341
 9411SOL    HW239163   1.261   0.247   2.990  0.1027 -0.0040  1.2559
 9412SOL     OW39164   0.793   7.424   0.515  0.1089 -0.3464 -0.0331
 9412SOL    HW139165   0.730   7.496   0.484  0.9301  0.9660  1.2781
 9412SOL    HW239166   0.868   7.465   0.567  0.6301 -2.1535  0.6932
 9413SOL     OW39167   4.255   7.993   3.096  0.2579 -0.2879  0.1415
 9413SOL    HW139168   4.159   7.987   3.123 -0.0400  2.0133 -0.2746
 9413SOL    HW239169   4.269   7.943   3.011 -0.9199  0.5681 -0.5830
 9414SOL     OW39170   5.731   0.414   2.216 -0.0315  0.1119 -0.4520
 9414SOL    HW139171   5.722   0.367   2.304 -2.6134  0.3815 -0.5415
 9414SOL    HW239172   5.657   0.479   2.205  1.2071  1.2833 -2.1375
 9415SOL     OW39173   9.709   0.036   2.333  0.2333 -0.3307  0.0887
 9415SOL    HW139174   9.685  -0.060   2.317  0.7972 -0.7380  1.5839
 9415SOL    HW239175   9.792   0.058   2.281 -0.1850 -0.5061 -0.6611
 9416SOL     OW39176   5.105   9.912   2.682 -0.0032 -0.2437 -0.3769
 9416SOL    HW139177   5.023   9.928   2.737  0.6962  1.8922  0.1087
 9416SOL    HW239178   5.184   9.956   2.726  1.0019 -0.4596 -1.9253
 9417SOL     OW39179   3.959   7.547   3.387  0.4880  0.0083 -0.3999
 9417SOL    HW139180   4.012   7.617   3.436 -1.7451  0.7938  0.9516
 9417SOL    HW239181   3.868   7.583   3.366 -0.5151 -2.3292 -0.1430
 9418SOL     OW39182   5.012   5.149   0.882  0.0922 -0.6028  0.4728
 9418SOL    HW139183   4.956   5.227   0.911  0.0178 -0.4720 -0.0274
 9418SOL    HW239184   4.973   5.107   0.801 -0.1811 -1.5212  1.0684
 9419SOL     OW39185   0.054   1.855   4.110  0.0427 -0.5355  0.3280
 9419SOL    HW139186   0.124   1.917   4.146  0.5236 -2.4646  2.8577
 9419SOL    HW239187   0.091   1.805   4.031  1.0884 -0.5682  0.8251
 9420SOL     OW39188   9.919   3.406   1.558  0.1803  0.0629  0.0187
 9420SOL    HW139189   9.830   3.450   1.545  0.5946  0.6500 -0.9257
 9420SOL    HW239190   9.990   3.476   1.561  0.9241 -0.5662 -2.1581
 9421SOL     OW39191   3.319   6.455   5.122  0.4621  0.9945 -0.3264
 9421SOL    HW139192   3.247   6.415   5.180  1.3903  0.4671  0.4778
 9421SOL    HW239193   3.293   6.548   5.097 -0.4236  0.8760  0.1040
 9422SOL     OW39194   1.795   4.672   3.870  0.0504  0.4108  0.5415
 9422SOL    HW139195   1.745   4.641   3.789  1.9117 -1.0787 -0.0794
 9422SOL    HW239196   1.878   4.721   3.841  0.0598  1.0087  1.5518
 9423SOL     OW39197   4.088   6.117   3.823  0.0443  1.0188 -0.0149
 9423SOL    HW139198   4.069   6.018   3.826  2.3198  0.5177 -1.1624
 9423SOL    HW239199   4.113   6.148   3.914 -1.7139  0.7805  0.5775
 9424SOL     OW39200   1.869   2.748   1.879  0.2342 -0.3689  0.1125
 9424SOL    HW139201   1.783   2.699   1.869 -0.6394  1.1466 -0.0696
 9424SOL    HW239202   1.909   2.726   1.968 -0.6961 -0.5635  0.4938
 9425SOL     OW39203   0.319   9.569   2.499 -0.2185 -0.2564  0.0606
 9425SOL    HW139204   0.222   9.592   2.509 -0.1416  0.3103 -0.4821
 9425SOL    HW239205   0.328   9.475   2.466 -0.5724 -0.4404  0.4748
 9426SOL     OW39206   8.333   1.633   5.432  0.4281 -0.4002  0.1176
 9426SOL    HW139207   8.392   1.566   5.386  0.5076 -0.5913  0.4979
 9426SOL    HW239208   8.361   1.725   5.404  0.6148 -0.5055 -0.0519
 9427SOL     OW39209   9.876   7.521   4.827  0.6757  0.6265  0.1788
 9427SOL    HW139210   9.882   7.451   4.756  1.7217  0.1799  0.6985
 9427SOL    HW239211   9.875   7.478   4.917  1.0905  1.2652  0.4946
 9428SOL     OW39212   5.303   6.975   1.858  0.0818  0.1465  0.4363
 9428SOL    HW139213   5.243   6.936   1.929 -0.1758 -1.0162 -0.3991
 9428SOL    HW239214   5.375   6.909   1.836  1.5433  1.4384  1.2578
 9429SOL     OW39215   9.634   6.818   4.324 -0.4140 -0.0953 -0.2639
 9429SOL    HW139216   9.579   6.870   4.389 -2.5644  0.4310 -2.4359
 9429SOL    HW239217   9.670   6.878   4.254  1.0524 -0.8066 -0.1332
 9430SOL     OW39218   3.897   7.909   4.926  0.4328  0.1251  0.1938
 9430SOL    HW139219   3.826   7.860   4.875  0.8961  1.0930 -1.4565
 9430SOL    HW239220   3.856   7.960   5.001 -0.3453 -0.8896  0.4705
 9431SOL     OW39221   9.424   5.478   0.335  0.4449 -0.5442  0.3959
 9431SOL    HW139222   9.431   5.380   0.356  0.9705 -0.8422 -1.1209
 9431SOL    HW239223   9.411   5.529   0.420 -2.8855 -2.2048  0.9656
 9432SOL     OW39224   9.741   8.100   4.142 -0.4705  0.5147 -0.1096
 9432SOL    HW139225   9.698   8.184   4.174 -0.8501  0.4400 -0.4142
 9432SOL    HW239226   9.675   8.047   4.089 -0.0022  0.3947 -0.5785
 9433SOL     OW39227   0.315   4.315   4.733 -0.7685 -0.4002 -0.6427
 9433SOL    HW139228   0.242   4.384   4.731 -1.4878 -1.1258  0.1920
 9433SOL    HW239229   0.321   4.270   4.645 -0.1805  0.8435 -1.2545
 9434SOL     OW39230   9.550   5.169   4.447 -0.3154 -0.2435 -0.1507
 9434SOL    HW139231   9.471   5.151   4.389  0.3999 -0.5649 -1.0300
 9434SOL    HW239232   9.528   5.146   4.542 -1.7958  1.1678 -0.1252
 9435SOL     OW39233   1.849   4.416   1.900  0.0750  0.1938  0.1382
 9435SOL    HW139234   1.859   4.318   1.914  0.9172  0.3238  0.4185
 9435SOL    HW239235   1.798   4.456   1.976 -0.2936 -0.0215  0.0096
 9436SOL     OW39236   2.072   9.943   2.150  0.6265 -0.6098 -0.2936
 9436SOL    HW139237   1.988   9.975   2.194  0.7648 -0.2902 -0.2599
 9436SOL    HW239238   2.063   9.953   2.050  0.4281 -1.0533 -0.3195
 9437SOL     OW39239   5.867   3.605   6.656  0.0554 -0.2719  0.4872
 9437SOL    HW139240   5.830   3.543   6.725 -1.9141 -0.4478 -0.6910
 9437SOL    HW239241   5.794   3.632   6.593  1.6707  0.4144 -1.1333
 9438SOL     OW39242   0.513   2.497   3.316 -0.1373  0.5657  0.5163
 9438SOL    HW139243   0.474   2.463   3.231  0.7714 -0.7134  0.5940
 9438SOL    HW239244   0.601   2.452   3.332  0.7043  2.3551  1.0488
 9439SOL     OW39245   1.202   6.006   3.149 -0.0277  0.2225  0.4863
 9439SOL    HW139246   1.176   6.085   3.204 -0.7083 -0.0443  0.5521
 9439SOL    HW239247   1.264   6.036   3.076 -0.9669  0.9701 -0.0245
 9440SOL     OW39248   2.549   7.837   4.508 -0.0105  0.4192 -0.1598
 9440SOL    HW139249   2.631   7.885   4.537  1.1036 -0.9153 -1.0064
 9440SOL    HW239250   2.489   7.899   4.458  0.0994  1.6012  1.1512
 9441SOL     OW39251   7.800   0.370   4.147 -0.0877 -0.2154 -0.1261
 9441SOL    HW139252   7.740   0.359   4.226  1.0193  1.1752  0.9508
 9441SOL    HW239253   7.826   0.466   4.138  1.7892 -0.7432 -0.6708
 9442SOL     OW39254   8.881   9.242   2.398 -0.6533 -0.8785  0.0657
 9442SOL    HW139255   8.915   9.296   2.321 -1.5039 -0.2701  0.1143
 9442SOL    HW239256   8.877   9.145   2.371  2.8082 -1.2212  0.6572
 9443SOL     OW39257   2.688   6.462   1.337  0.3328 -0.1693  0.2433
 9443SOL    HW139258   2.690   6.483   1.435  2.0691 -1.1052  0.4406
 9443SOL    HW239259   2.754   6.521   1.290  1.2264 -1.3239  0.0068
 9444SOL     OW39260   4.849   2.680   1.395 -0.1769 -0.7366  0.4618
 9444SOL    HW139261   4.865   2.778   1.407 -3.1244 -0.1387 -0.0327
 9444SOL    HW239262   4.818   2.663   1.301 -0.5008 -2.0216  0.7918
 9445SOL     OW39263   9.000   3.496   1.954  0.3138  0.8275 -0.0760
 9445SOL    HW139264   8.950   3.499   1.867 -1.6787 -2.9361  0.7912
 9445SOL    HW239265   9.061   3.417   1.954  1.1016  1.4151  1.5534
 9446SOL     OW39266   7.983   3.548   0.596  0.4211  0.0769 -0.2134
 9446SOL    HW139267   7.904   3.501   0.635  0.0070  1.4898  0.6427
 9446SOL    HW239268   7.961   3.580   0.504 -0.6365  2.1464  0.7558
 9447SOL     OW39269   1.260   1.230   2.841  0.1543 -0.6055  0.3796
 9447SOL    HW139270   1.205   1.214   2.922 -0.8046  0.0519 -0.1342
 9447SOL    HW239271   1.268   1.329   2.826  1.0402 -0.7054  0.1551
 9448SOL     OW39272   3.983   3.249   3.792 -0.1909 -0.2468  0.2313
 9448SOL    HW139273   4.010   3.327   3.735  0.9917 -1.3459 -0.7694
 9448SOL    HW239274   3.967   3.170   3.733 -1.5566 -0.7156  1.2188
 9449SOL     OW39275   6.190   0.240   5.739  0.4055  0.0127  0.4071
 9449SOL    HW139276   6.223   0.315   5.681 -0.9096  2.3419  2.5889
 9449SOL    HW239277   6.091   0.247   5.749 -0.0300 -3.2667 -1.0140
 9450SOL     OW39278   2.871   7.067   5.745  0.8668 -0.3793  0.2496
 9450SOL    HW139279   2.842   7.060   5.840  1.8514  0.9122  0.6647
 9450SOL    HW239280   2.804   7.121   5.693 -0.0674 -1.7459  0.0275
 9451SOL     OW39281   7.646   6.707   3.453 -0.5824 -0.5353  0.5016
 9451SOL    HW139282   7.618   6.628   3.508  0.2290 -0.0361  1.6612
 9451SOL    HW239283   7.743   6.725   3.467 -0.5399  0.0792 -0.5092
 9452SOL     OW39284   9.003   8.811   4.504  0.5610  0.0692 -0.0646
 9452SOL    HW139285   8.988   8.716   4.533 -0.9203  0.1837 -0.4117
 9452SOL    HW239286   9.056   8.859   4.574  0.1839 -0.6542  0.7238
 9453SOL     OW39287   2.801   5.721   0.697 -0.3114  0.2409 -0.1116
 9453SOL    HW139288   2.876   5.784   0.719 -0.1825 -0.1045  0.4603
 9453SOL    HW239289   2.779   5.727   0.600  0.3486  0.4621 -0.2495
 9454SOL     OW39290   8.221   1.877   4.365  0.1619 -0.3399 -0.9621
 9454SOL    HW139291   8.200   1.897   4.461  0.7555 -1.1907 -0.6520
 9454SOL    HW239292   8.151   1.919   4.306 -0.4697 -0.2160 -0.1305
 9455SOL     OW39293   3.030   5.100   6.555 -0.2280  0.2680  0.4294
 9455SOL    HW139294   2.932   5.119   6.548 -0.2142  0.8619  1.6634
 9455SOL    HW239295   3.050   5.011   6.513 -1.2704  0.1896  0.0791
 9456SOL     OW39296   8.882   8.087   3.793  0.1936  0.1780  0.2121
 9456SOL    HW139297   8.840   7.998   3.776  0.1959  0.3943 -0.9576
 9456SOL    HW239298   8.965   8.075   3.847 -0.7817 -0.3480  1.6325
 9457SOL     OW39299   3.582   3.393   2.113 -0.5987  0.5719  0.2482
 9457SOL    HW139300   3.528   3.313   2.140  0.5753 -0.0668  0.7323
 9457SOL    HW239301   3.596   3.392   2.014  0.4385 -0.4760  0.4027
 9458SOL     OW39302   1.547   7.305   6.115 -0.5257 -0.5335  0.5909
 9458SOL    HW139303   1.560   7.369   6.039  1.1334  1.1919  2.2332
 9458SOL    HW239304   1.607   7.226   6.102 -1.2480 -0.8958 -0.5668
 9459SOL     OW39305   4.073   2.315   1.972  0.6846  0.4347 -0.1143
 9459SOL    HW139306   4.117   2.389   2.024 -0.4176  1.0258 -0.0115
 9459SOL    HW239307   4.127   2.231   1.981  0.6004  0.5685  1.8758
 9460SOL     OW39308   8.936   6.110   0.521  0.3324  0.3040 -0.3253
 9460SOL    HW139309   8.887   6.087   0.437  1.7698 -0.5457 -0.9526
 9460SOL    HW239310   8.929   6.208   0.538 -1.9567  0.1322 -0.1490
 9461SOL     OW39311   0.847   6.746   3.812 -0.0656  0.0253  0.3365
 9461SOL    HW139312   0.917   6.692   3.765 -0.7999 -0.9366  0.3371
 9461SOL    HW239313   0.878   6.768   3.904  1.7012  2.5458 -0.8202
 9462SOL     OW39314   9.621   7.997   2.746 -0.4242 -0.0421  0.2488
 9462SOL    HW139315   9.529   8.015   2.710 -1.7819 -1.5302  2.8154
 9462SOL    HW239316   9.629   7.899   2.766  1.6154  0.1535  0.3995
 9463SOL     OW39317   5.211   0.363   3.287 -0.0696 -0.0755 -0.3143
 9463SOL    HW139318   5.188   0.457   3.265 -0.4286  0.0871  0.7532
 9463SOL    HW239319   5.173   0.302   3.217 -0.0759  0.5392 -0.8500
 9464SOL     OW39320   3.291   5.342   6.278 -0.1153  0.5642  0.3274
 9464SOL    HW139321   3.316   5.257   6.232  0.1414  0.2772  0.9974
 9464SOL    HW239322   3.371   5.380   6.324 -0.4081  0.7677  0.6682
 9465SOL     OW39323   4.920   0.693   1.603 -0.3111  0.3509 -0.2056
 9465SOL    HW139324   4.893   0.678   1.508  0.2135  1.0095 -0.4612
 9465SOL    HW239325   4.949   0.607   1.644  1.2972  0.4051 -1.2208
 9466SOL     OW39326   6.821   8.996   5.896  0.1288  0.0583 -0.1244
 9466SOL    HW139327   6.860   8.990   5.805 -0.7662  0.5133 -0.5427
 9466SOL    HW239328   6.842   8.912   5.947  0.5777 -0.2201 -0.7686
 9467SOL     OW39329   8.155   4.421   4.189 -0.2688 -0.4533  0.0188
 9467SOL    HW139330   8.076   4.409   4.248 -0.1740 -1.0287  0.0264
 9467SOL    HW239331   8.238   4.394   4.237  0.1525  1.7790  0.6215
 9468SOL     OW39332   1.247   8.671   0.862  0.0811 -0.3911 -0.3160
 9468SOL    HW139333   1.309   8.632   0.794  0.3962  1.7774 -1.3053
 9468SOL    HW239334   1.163   8.617   0.865  1.2377 -2.2112 -0.3425
 9469SOL     OW39335   6.011   0.499   4.547 -0.2455 -0.3869 -0.5809
 9469SOL    HW139336   6.057   0.556   4.480 -2.2783  0.1691 -1.5457
 9469SOL    HW239337   5.983   0.555   4.625 -2.1362 -0.0610 -1.4738
 9470SOL     OW39338   8.834   6.433   6.656 -0.0088  0.2451 -0.2280
 9470SOL    HW139339   8.874   6.458   6.568 -0.5645  1.1148 -0.2387
 9470SOL    HW239340   8.855   6.338   6.676 -0.5006 -0.1810 -1.6510
 9471SOL     OW39341   9.639   6.740   0.362  0.4268 -0.0586 -0.2550
 9471SOL    HW139342   9.559   6.755   0.420  1.2675  0.5293  0.7729
 9471SOL    HW239343   9.661   6.642   0.360 -0.8913 -0.3479 -1.3345
 9472SOL     OW39344   2.456   0.465   2.491 -0.2443 -0.4498 -0.1430
 9472SOL    HW139345   2.509   0.502   2.567 -0.0735  0.7945 -0.8565
 9472SOL    HW239346   2.363   0.444   2.522 -0.7286  1.7874 -0.0231
 9473SOL     OW39347   0.035   7.376   2.488 -0.2989 -0.3136  0.1557
 9473SOL    HW139348   0.020   7.290   2.537 -0.5524 -0.6225 -0.4492
 9473SOL    HW239349   0.046   7.357   2.390 -1.5591  0.4493 -0.1484
 9474SOL     OW39350   8.214   0.998   5.923  0.0360  0.1438  0.6247
 9474SOL    HW139351   8.187   1.094   5.923  1.1594  0.4639  1.9358
 9474SOL    HW239352   8.213   0.963   6.016  4.1041  0.1600  0.7418
 9475SOL     OW39353   2.842   5.818   6.586 -0.1451 -0.2618 -0.0333
 9475SOL    HW139354   2.743   5.831   6.580 -0.1460  0.7802  2.0401
 9475SOL    HW239355   2.861   5.723   6.611 -0.5748 -0.5965 -0.9155
 9476SOL     OW39356   1.072   4.748   5.116  0.1612  0.0477 -0.1423
 9476SOL    HW139357   1.003   4.691   5.071  0.0947 -0.3964  0.5148
 9476SOL    HW239358   1.074   4.838   5.073 -0.2487 -0.2102 -0.7088
 9477SOL     OW39359   1.561   8.262   5.218  0.4772 -0.0390 -0.3731
 9477SOL    HW139360   1.582   8.275   5.315 -0.9720  1.9209 -0.2919
 9477SOL    HW239361   1.538   8.351   5.177  1.0705 -0.8587 -2.5023
 9478SOL     OW39362   9.420   8.916   1.762  0.4468  0.2188  0.1258
 9478SOL    HW139363   9.439   8.888   1.856  1.1934 -1.0586 -0.4056
 9478SOL    HW239364   9.499   8.965   1.725  1.2403 -1.6943 -0.7616
 9479SOL     OW39365   5.174   3.601   1.172 -0.1276 -0.2478 -0.3618
 9479SOL    HW139366   5.266   3.618   1.137 -0.5606 -0.2434 -1.5086
 9479SOL    HW239367   5.108   3.609   1.098 -1.3904  2.6632  0.9604
 9480SOL     OW39368   0.375   6.728   4.115 -0.5632  0.0542  0.3334
 9480SOL    HW139369   0.449   6.737   4.047  0.0690 -2.4567  0.6659
 9480SOL    HW239370   0.289   6.710   4.068 -0.0019 -2.3835  0.2104
 9481SOL     OW39371   9.060   1.526   2.280  0.5435 -0.0085  0.3018
 9481SOL    HW139372   9.106   1.477   2.354 -0.6123  0.1343  1.1217
 9481SOL    HW239373   9.034   1.617   2.311 -1.2437 -0.4631  0.2221
 9482SOL     OW39374   5.410   2.185   2.546  0.0807 -0.3950  0.7068
 9482SOL    HW139375   5.447   2.206   2.637  1.5222 -0.9058  0.2518
 9482SOL    HW239376   5.482   2.145   2.489 -1.0073 -0.7742 -0.4272
 9483SOL     OW39377   8.711   9.218   2.654  0.6531 -0.1912 -0.1004
 9483SOL    HW139378   8.772   9.195   2.579  2.4288 -1.2024  1.6012
 9483SOL    HW239379   8.628   9.162   2.649 -0.0657  1.0322 -2.2988
 9484SOL     OW39380   0.206   2.254   2.219  0.2629 -0.1622  0.2592
 9484SOL    HW139381   0.151   2.294   2.145  1.3811  1.5161  0.3159
 9484SOL    HW239382   0.152   2.251   2.303  0.3614  1.7848  0.4007
 9485SOL     OW39383   2.807   4.833   5.693  0.7027 -0.1149  0.1322
 9485SOL    HW139384   2.829   4.744   5.734 -1.9357 -0.4740  0.8912
 9485SOL    HW239385   2.838   4.834   5.598 -0.8067 -2.5698 -0.4546
 9486SOL     OW39386   3.487   5.145   3.513 -0.4849  0.5190 -0.7684
 9486SOL    HW139387   3.459   5.083   3.439  0.1301  0.5640 -1.0473
 9486SOL    HW239388   3.549   5.214   3.477  0.2236  0.2338 -0.1099
 9487SOL     OW39389   3.096   2.810   1.429 -0.5332  0.1352  0.6379
 9487SOL    HW139390   3.140   2.723   1.408  0.7777  1.0506 -0.6148
 9487SOL    HW239391   3.021   2.826   1.365  0.4140  0.7490 -0.3436
 9488SOL     OW39392   0.365   4.302   4.049  0.4705 -0.2153 -0.0274
 9488SOL    HW139393   0.347   4.313   3.952 -0.9709 -0.7757  0.1614
 9488SOL    HW239394   0.435   4.368   4.078  1.1170 -0.2384 -1.4836
 9489SOL     OW39395   1.908   5.529   4.481 -0.4787  0.2148 -0.8505
 9489SOL    HW139396   1.934   5.447   4.429 -2.5909 -1.8708  1.2205
 9489SOL    HW239397   1.836   5.578   4.432 -1.5397 -1.0290 -0.5970
 9490SOL     OW39398   2.843   2.021   1.333 -0.2400  0.1792  0.0302
 9490SOL    HW139399   2.792   1.961   1.272  1.0411 -1.7499  0.8269
 9490SOL    HW239400   2.880   2.098   1.281 -0.8998 -0.3337 -1.2055
 9491SOL     OW39401   9.322   6.787   5.276 -0.3609  0.0517 -0.1760
 9491SOL    HW139402   9.227   6.817   5.285 -0.2595  0.5927 -0.7826
 9491SOL    HW239403   9.349   6.793   5.179  0.3792  0.2062  0.0357
 9492SOL     OW39404   1.418   4.310   0.240  0.0634 -0.0286  0.2811
 9492SOL    HW139405   1.387   4.215   0.235  3.9706 -1.5392  2.6226
 9492SOL    HW239406   1.484   4.327   0.167  0.1870  0.5925  0.5384
 9493SOL     OW39407   2.599   6.502   3.612  0.3281 -0.2593  0.3195
 9493SOL    HW139408   2.640   6.421   3.571  0.3750  0.0423 -0.2429
 9493SOL    HW239409   2.664   6.578   3.609  0.4921 -0.3504  1.3634
 9494SOL     OW39410   7.465   7.148   4.808 -0.4075 -0.7189  0.6630
 9494SOL    HW139411   7.400   7.083   4.769  0.3319 -1.6568  0.9756
 9494SOL    HW239412   7.418   7.207   4.874 -1.0365 -1.0621  0.5247
 9495SOL     OW39413   3.526   2.062   2.729  0.6365  0.3579  0.8291
 9495SOL    HW139414   3.624   2.059   2.746  0.8369 -1.0028 -0.4458
 9495SOL    HW239415   3.495   1.971   2.701 -0.4258  1.4946 -1.7459
 9496SOL     OW39416   8.626   9.850   1.911  0.5052 -0.0339 -0.0091
 9496SOL    HW139417   8.711   9.820   1.868  0.2344 -0.1330 -0.4832
 9496SOL    HW239418   8.646   9.890   2.000  1.2580  1.6806 -0.9251
 9497SOL     OW39419   0.332   9.804   3.966  0.4844  0.4181  0.1839
 9497SOL    HW139420   0.293   9.847   4.047  0.6635 -1.2665  1.1921
 9497SOL    HW239421   0.430   9.823   3.962  0.1062  2.2689 -0.8065
 9498SOL     OW39422   1.063   9.707   2.284 -0.2196 -0.6062 -0.3557
 9498SOL    HW139423   1.050   9.745   2.193  0.5944  0.5525 -0.0054
 9498SOL    HW239424   1.075   9.608   2.278  2.9492 -0.1997 -1.8464
 9499SOL     OW39425   5.737   9.370   2.300  0.5115 -0.2561  0.4905
 9499SOL    HW139426   5.766   9.275   2.312 -1.7239 -1.1005 -0.5300
 9499SOL    HW239427   5.728   9.390   2.203 -0.4779  0.5392  0.7395
 9500SOL     OW39428   1.627   4.718   1.139 -0.2323 -0.4844  1.2164
 9500SOL    HW139429   1.700   4.781   1.113  0.1175 -0.9982  0.9603
 9500SOL    HW239430   1.541   4.769   1.147 -0.1392 -0.1307  0.1054
 9501SOL     OW39431   1.398   4.128   2.356 -0.6680 -0.1129 -0.1413
 9501SOL    HW139432   1.305   4.151   2.330 -1.9626 -2.1577  2.4423
 9501SOL    HW239433   1.405   4.122   2.456  2.0807 -0.5424 -0.3121
 9502SOL     OW39434   7.993   4.023   2.528  0.0863  0.5270 -0.4129
 9502SOL    HW139435   8.086   4.029   2.490 -0.0661 -0.1837 -0.9118
 9502SOL    HW239436   7.958   4.115   2.544  0.7264  0.8102 -0.6056
 9503SOL     OW39437   7.424   9.984   2.922 -0.1826 -0.2714  0.1965
 9503SOL    HW139438   7.375   9.905   2.958  0.2156 -0.3954  0.4674
 9503SOL    HW239439   7.372  10.067   2.943 -0.2921 -0.4067  0.4608
 9504SOL     OW39440   8.102   0.944   3.075  0.0705  0.1309 -0.4549
 9504SOL    HW139441   8.068   1.037   3.090  0.5703  0.0804  1.1015
 9504SOL    HW239442   8.032   0.878   3.102 -0.1085  0.0538 -1.1108
 9505SOL     OW39443   8.842   5.660   2.171  0.0309 -0.1852 -0.3294
 9505SOL    HW139444   8.832   5.748   2.217  0.2587 -0.1979 -0.2585
 9505SOL    HW239445   8.772   5.597   2.204 -1.3700  0.5663 -1.7778
 9506SOL     OW39446   1.604   8.037   2.495  0.5700 -0.0667  0.2687
 9506SOL    HW139447   1.529   7.972   2.508  1.0114 -0.8351 -0.9461
 9506SOL    HW239448   1.567   8.124   2.462 -0.0437  0.3691  2.0734
 9507SOL     OW39449   7.498   9.811   3.199  0.3531  0.3794 -0.3340
 9507SOL    HW139450   7.465   9.901   3.229 -1.8641 -0.9648  1.3478
 9507SOL    HW239451   7.598   9.809   3.205  0.3491  2.3388  0.7675
 9508SOL     OW39452   0.256   6.949   1.788 -0.1863  0.3233  0.0049
 9508SOL    HW139453   0.175   6.996   1.753  0.0383 -0.2859 -1.3620
 9508SOL    HW239454   0.229   6.882   1.856 -1.2436 -2.3429 -2.9263
 9509SOL     OW39455   8.675   4.487   2.138 -0.1001  0.2421 -0.3487
 9509SOL    HW139456   8.586   4.441   2.146 -0.5119  0.8091 -1.5787
 9509SOL    HW239457   8.679   4.536   2.052  0.8555  1.4257  0.3615
 9510SOL     OW39458   9.849   1.989   5.125  0.0977  0.0460  0.3732
 9510SOL    HW139459   9.939   2.031   5.111  1.4225 -2.8990 -0.1569
 9510SOL    HW239460   9.800   1.988   5.038  0.4077 -0.2956  0.2027
 9511SOL     OW39461   5.311   3.455   2.669 -0.1040 -0.0001 -0.1678
 9511SOL    HW139462   5.341   3.535   2.720 -0.2131 -0.7806  1.1285
 9511SOL    HW239463   5.378   3.382   2.678 -0.8633 -0.6709  0.1307
 9512SOL     OW39464   9.564   6.531   3.798  0.5164 -0.1071 -0.0388
 9512SOL    HW139465   9.559   6.468   3.721 -0.3807  0.8074 -0.7397
 9512SOL    HW239466   9.488   6.596   3.794 -0.1181 -0.6673  2.1686
 9513SOL     OW39467   8.764   8.730   5.120  0.9739  0.1342 -0.2204
 9513SOL    HW139468   8.723   8.805   5.171  0.6488  1.6662 -2.6995
 9513SOL    HW239469   8.700   8.653   5.116  0.0276  0.9326 -0.4665
 9514SOL     OW39470   9.293   3.112   1.163 -0.1918 -0.1895 -0.5943
 9514SOL    HW139471   9.248   3.091   1.076 -0.3664  0.0252 -0.5571
 9514SOL    HW239472   9.388   3.079   1.161 -0.2503 -0.3445 -0.7969
 9515SOL     OW39473   4.136   1.767   4.367 -0.0867  0.1187 -0.0543
 9515SOL    HW139474   4.063   1.793   4.304 -1.0355 -0.2650  0.8732
 9515SOL    HW239475   4.180   1.849   4.401 -0.2292  0.3616 -0.4438
 9516SOL     OW39476   4.111   4.540   3.736  0.0046  0.3068 -0.5740
 9516SOL    HW139477   4.183   4.532   3.668  0.3211  0.4356 -0.2555
 9516SOL    HW239478   4.053   4.619   3.714  0.3884  0.6279 -0.4282
 9517SOL     OW39479   5.195   6.453   2.476  0.7082  0.2724  0.2517
 9517SOL    HW139480   5.187   6.551   2.491  1.4256  0.2862  0.5874
 9517SOL    HW239481   5.144   6.403   2.545  0.7798  0.4038  0.3995
 9518SOL     OW39482   4.334   1.901   1.310  0.4672 -0.0958  0.0849
 9518SOL    HW139483   4.297   1.933   1.223  0.0346 -0.5460  0.0953
 9518SOL    HW239484   4.401   1.966   1.344 -0.1831  0.6486 -0.0314
 9519SOL     OW39485   1.236   7.109   3.275 -0.7092  0.2890 -0.2106
 9519SOL    HW139486   1.188   7.191   3.304 -0.7466  0.9133 -1.9551
 9519SOL    HW239487   1.326   7.104   3.319 -0.9162  0.9988  0.2844
 9520SOL     OW39488   0.047   8.058   2.195  0.2556  0.4937 -0.0590
 9520SOL    HW139489   0.036   8.105   2.107 -2.1198  2.1917  1.0910
 9520SOL    HW239490   0.118   8.103   2.248  4.0798 -2.5413 -2.3330
 9521SOL     OW39491   7.596   1.306   5.499  0.3036  0.2582  0.1239
 9521SOL    HW139492   7.669   1.284   5.434  0.6349 -0.8710  0.8705
 9521SOL    HW239493   7.566   1.400   5.484  1.2567  0.4228 -0.8202
 9522SOL     OW39494   0.592   2.340   1.303 -0.4304  0.4994 -0.1684
 9522SOL    HW139495   0.534   2.422   1.301 -0.1026  0.8239  1.7982
 9522SOL    HW239496   0.676   2.357   1.251  0.4578  2.1025  1.7146
 9523SOL     OW39497   2.148   7.800   5.343 -0.1057  0.3637  0.1081
 9523SOL    HW139498   2.239   7.817   5.307  0.5573  1.3563  2.2210
 9523SOL    HW239499   2.096   7.885   5.344 -0.5026  0.1190  0.4501
 9524SOL     OW39500   1.724   2.775   3.477  0.3419  0.1416 -0.3511
 9524SOL    HW139501   1.746   2.827   3.395  1.1051  1.2395  0.5321
 9524SOL    HW239502   1.729   2.835   3.557 -3.3848 -0.1439  0.1995
 9525SOL     OW39503   2.451   3.604   3.167 -0.0034 -0.5712 -0.2274
 9525SOL    HW139504   2.379   3.659   3.209 -0.2220 -1.2603  0.3136
 9525SOL    HW239505   2.414   3.551   3.091 -0.0655 -0.9119  0.0392
 9526SOL     OW39506   1.366   6.736   0.149 -0.3858  0.4512 -0.3418
 9526SOL    HW139507   1.365   6.836   0.152 -1.1284  0.4026  1.4802
 9526SOL    HW239508   1.460   6.703   0.158 -0.1786  0.9604 -0.5890
 9527SOL     OW39509   3.562   9.651   2.915  0.2273 -0.0818  0.2283
 9527SOL    HW139510   3.536   9.564   2.956  1.1371 -1.1146 -1.3585
 9527SOL    HW239511   3.561   9.644   2.816  1.8926  1.2227  0.0820
 9528SOL     OW39512   8.097   2.347   0.571  0.5267  0.3499  0.1746
 9528SOL    HW139513   8.036   2.392   0.507  1.7842  1.0297 -0.5699
 9528SOL    HW239514   8.118   2.255   0.538 -0.0115  0.1505  0.3837
 9529SOL     OW39515   1.959   3.766   1.983 -1.2130  0.2920  0.4058
 9529SOL    HW139516   1.881   3.819   2.016 -0.4840  1.0335  0.9502
 9529SOL    HW239517   2.043   3.802   2.023 -0.6411 -0.8224  0.2148
 9530SOL     OW39518   7.901   8.203   4.563 -0.0047 -0.1519 -0.8442
 9530SOL    HW139519   7.805   8.231   4.569 -0.5274 -2.1504  0.6410
 9530SOL    HW239520   7.957   8.263   4.619 -0.6599 -0.0987 -0.2445
 9531SOL     OW39521   2.047   9.682   1.137  0.0387 -0.6534  0.1498
 9531SOL    HW139522   2.132   9.674   1.190  0.4158 -1.9807 -0.6069
 9531SOL    HW239523   1.986   9.606   1.161 -0.2575 -0.6157 -0.4769
 9532SOL     OW39524   9.282   9.472   2.075  0.0062 -0.9247  0.0606
 9532SOL    HW139525   9.217   9.490   2.001 -0.6972 -1.3610  0.5644
 9532SOL    HW239526   9.292   9.374   2.088  0.4856 -0.8565  0.2359
 9533SOL     OW39527   9.133   1.328   3.007 -0.0268  0.1443  0.2689
 9533SOL    HW139528   9.232   1.319   3.016  0.1112  1.2069 -0.0671
 9533SOL    HW239529   9.088   1.256   3.060  0.9316 -0.9599 -0.3953
 9534SOL     OW39530   8.754   3.843   4.861  0.1449  0.0410 -0.0531
 9534SOL    HW139531   8.700   3.827   4.943 -0.8266  0.3134 -0.6259
 9534SOL    HW239532   8.715   3.920   4.810  1.9452  1.1858  0.2754
 9535SOL     OW39533   0.339   8.626   1.962  0.4062  0.4446  0.5927
 9535SOL    HW139534   0.303   8.718   1.974  0.3646  0.2694  1.8736
 9535SOL    HW239535   0.290   8.580   1.888  0.5446  1.5095 -0.1643
 9536SOL     OW39536   7.632   1.215   2.107 -0.0758 -0.1376  0.6581
 9536SOL    HW139537   7.713   1.159   2.124  2.1013  2.2866 -1.3297
 9536SOL    HW239538   7.650   1.309   2.137 -2.2894  0.3882  0.4321
 9537SOL     OW39539   6.916   8.739   2.380 -0.1565 -0.3413  0.2988
 9537SOL    HW139540   6.968   8.679   2.440  0.4481 -1.0432 -0.9096
 9537SOL    HW239541   6.954   8.735   2.288 -1.6121  0.0621 -0.3293
 9538SOL     OW39542   5.067   3.342   1.245 -0.7170 -0.2980  0.0773
 9538SOL    HW139543   5.120   3.416   1.206  0.2394 -1.0557 -0.0629
 9538SOL    HW239544   5.100   3.254   1.210 -0.7771 -0.8911  1.4741
 9539SOL     OW39545   4.950   0.740   3.863 -0.2840  0.4048  0.4506
 9539SOL    HW139546   4.873   0.687   3.900 -0.0690  0.6273  1.2294
 9539SOL    HW239547   4.972   0.815   3.926 -0.4818  1.3301 -0.5579
 9540SOL     OW39548   6.065   4.829   0.119  0.3089 -0.1549  0.1561
 9540SOL    HW139549   6.001   4.807   0.045  0.2542 -0.0123  0.1606
 9540SOL    HW239550   6.053   4.765   0.194 -0.6738  0.6081  0.6701
 9541SOL     OW39551   7.067   1.672   2.453  0.0026 -0.0931  0.2610
 9541SOL    HW139552   7.031   1.753   2.500  2.9136  0.1732  2.1280
 9541SOL    HW239553   7.127   1.622   2.515  0.7468 -1.9556 -1.9276
 9542SOL     OW39554   1.434   6.459   6.194 -0.2758  0.6078 -0.0638
 9542SOL    HW139555   1.480   6.542   6.228 -1.0371  0.2881  1.7679
 9542SOL    HW239556   1.440   6.457   6.094  0.7123  2.3181 -0.0613
 9543SOL     OW39557   0.915   3.812   2.484 -0.1746  0.2340  0.4526
 9543SOL    HW139558   0.945   3.747   2.414 -0.5496  0.2968  0.2304
 9543SOL    HW239559   0.858   3.765   2.551  2.3188 -0.3796  2.1685
 9544SOL     OW39560   4.312   7.170   1.059 -0.0763 -0.4183  0.3238
 9544SOL    HW139561   4.282   7.133   1.147 -0.6006  0.0071  0.3306
 9544SOL    HW239562   4.243   7.235   1.026 -0.0745 -0.8810 -0.5939
 9545SOL     OW39563   3.834   9.552   3.938  0.0307 -0.0526 -0.0891
 9545SOL    HW139564   3.841   9.510   3.847 -3.1925  0.3152 -0.5705
 9545SOL    HW239565   3.838   9.481   4.008  1.6549 -0.4265 -0.5473
 9546SOL     OW39566   7.407   7.043   3.977 -0.2662  0.3920 -0.1692
 9546SOL    HW139567   7.379   6.949   3.999  0.3600  0.1714 -0.3057
 9546SOL    HW239568   7.504   7.044   3.952 -0.0927  1.1903  0.5274
 9547SOL     OW39569   7.807   8.908   3.642 -0.2777  0.0411  0.2595
 9547SOL    HW139570   7.767   8.819   3.666 -1.2657  0.4878  0.2822
 9547SOL    HW239571   7.827   8.958   3.726 -0.8759  0.3487  0.2191
 9548SOL     OW39572   5.088   6.087   1.276 -0.1079 -0.0099  0.1093
 9548SOL    HW139573   5.014   6.148   1.248  1.0256  1.7023  0.7043
 9548SOL    HW239574   5.100   6.093   1.375  0.4798 -0.6715  0.0792
 9549SOL     OW39575   3.298   9.466   3.950 -0.3827  0.0499  0.5686
 9549SOL    HW139576   3.229   9.417   3.897 -0.4368  0.5951  0.1280
 9549SOL    HW239577   3.384   9.415   3.949  0.0763  0.8341 -1.3790
 9550SOL     OW39578   1.272   6.995   6.141  0.2095  0.0843 -0.2727
 9550SOL    HW139579   1.275   7.033   6.049  0.9861 -0.4593 -0.4820
 9550SOL    HW239580   1.280   6.895   6.136 -0.7748 -0.0303  0.3236
 9551SOL     OW39581   5.902   1.921   4.401 -0.6623  0.4062 -0.6486
 9551SOL    HW139582   5.967   1.930   4.325  1.1385 -0.5908  0.7426
 9551SOL    HW239583   5.919   1.994   4.468  0.0369 -0.7206  0.4316
 9552SOL     OW39584   3.259   8.644   3.401  0.0299  0.2008  0.1558
 9552SOL    HW139585   3.166   8.678   3.392  0.2762  0.9094  0.2638
 9552SOL    HW239586   3.307   8.653   3.313  0.1585  0.3260  0.2379
 9553SOL     OW39587   3.488   6.483   1.350 -0.1750  0.4727 -0.6342
 9553SOL    HW139588   3.551   6.525   1.414 -0.1023 -0.7201  0.0982
 9553SOL    HW239589   3.398   6.471   1.393 -0.0776 -0.4930 -0.6743
 9554SOL     OW39590   1.994   2.942   1.068 -0.0984 -0.1033 -0.2123
 9554SOL    HW139591   2.077   2.943   1.012 -1.5442 -0.0592 -2.4131
 9554SOL    HW239592   2.019   2.931   1.164  2.4485 -0.1145 -0.8379
 9555SOL     OW39593   1.930   6.406   4.530 -0.2089 -0.1590  0.0875
 9555SOL    HW139594   1.863   6.340   4.563 -0.9634  1.1714  1.2539
 9555SOL    HW239595   2.009   6.407   4.592  0.1916 -0.5852 -0.4103
 9556SOL     OW39596   0.511   5.395   5.310 -0.1229  0.1834  0.5718
 9556SOL    HW139597   0.488   5.490   5.286 -0.4014  0.6870  2.7762
 9556SOL    HW239598   0.506   5.383   5.409  0.3914 -2.0275  0.3564
 9557SOL     OW39599   2.159   5.338   2.758  0.3086 -0.1803  0.5341
 9557SOL    HW139600   2.099   5.298   2.826  0.7850  2.3087  2.4816
 9557SOL    HW239601   2.230   5.272   2.733 -1.8929 -2.3478 -0.1718
 9558SOL     OW39602   2.260   3.687   2.619 -0.2002  0.4107  0.5098
 9558SOL    HW139603   2.224   3.644   2.536  0.2344 -0.0761  0.5760
 9558SOL    HW239604   2.263   3.620   2.693  2.7793 -0.1156 -0.0417
 9559SOL     OW39605   0.991   3.403   5.357 -0.6200 -0.2833  0.6412
 9559SOL    HW139606   1.003   3.376   5.262  0.3071 -1.6769  1.1301
 9559SOL    HW239607   0.893   3.417   5.375 -0.8540 -0.5425 -0.3771
 9560SOL     OW39608   3.750   4.464   0.019 -0.0367 -0.2767  0.1513
 9560SOL    HW139609   3.701   4.483  -0.066 -1.3190  0.3274  1.0016
 9560SOL    HW239610   3.826   4.528   0.029  1.2982 -1.5685 -1.4421
 9561SOL     OW39611   6.657   0.629   3.319  0.0152  0.2010 -0.4570
 9561SOL    HW139612   6.658   0.688   3.238 -1.3202 -1.0649 -1.4019
 9561SOL    HW239613   6.593   0.554   3.305  1.1534 -1.0661  1.0521
 9562SOL     OW39614   0.928   5.782   3.700  0.0698  0.0897 -0.0228
 9562SOL    HW139615   0.925   5.763   3.798 -3.7585 -2.0049 -0.4460
 9562SOL    HW239616   0.943   5.697   3.650  1.4415  1.0678 -1.3303
 9563SOL     OW39617   3.703   8.320   0.695 -0.1891  0.0662 -0.0723
 9563SOL    HW139618   3.672   8.356   0.784 -0.8665  1.7294 -0.9610
 9563SOL    HW239619   3.631   8.334   0.627  0.1432 -1.6346 -0.7956
 9564SOL     OW39620   8.904   9.434   1.659 -0.6027  0.6304 -0.8595
 9564SOL    HW139621   8.987   9.489   1.651  0.8630 -1.5488 -1.0379
 9564SOL    HW239622   8.841   9.477   1.724  0.9853  1.9246 -0.1599
 9565SOL     OW39623   2.858   7.095   3.425 -0.7324 -0.2289 -0.4509
 9565SOL    HW139624   2.810   7.040   3.494 -0.9414  0.9686  0.3863
 9565SOL    HW239625   2.823   7.073   3.334 -1.4275 -0.8437 -0.0381
 9566SOL     OW39626   3.531   3.118   2.566 -0.4201 -0.1194  0.7613
 9566SOL    HW139627   3.630   3.124   2.558 -0.4796 -1.0300 -0.9381
 9566SOL    HW239628   3.490   3.204   2.536 -0.2074 -0.3248 -0.1392
 9567SOL     OW39629   9.548   3.912   5.632 -0.1493 -0.0544  0.4669
 9567SOL    HW139630   9.642   3.896   5.662  0.0938  0.2804 -0.1090
 9567SOL    HW239631   9.508   3.826   5.601  0.3557  0.0058 -0.3682
 9568SOL     OW39632   7.010   9.913   2.213 -0.0424 -0.3376  0.3324
 9568SOL    HW139633   6.968  10.003   2.227 -0.3824 -0.7657  2.1463
 9568SOL    HW239634   7.038   9.875   2.301  2.5056 -0.8778 -0.6563
 9569SOL     OW39635   3.950   0.312   4.196 -0.0697  0.3296  0.7666
 9569SOL    HW139636   3.904   0.392   4.234  1.6251  1.8971 -0.4491
 9569SOL    HW239637   3.884   0.255   4.148 -0.8407  2.3903 -0.6845
 9570SOL     OW39638   5.607   8.577   4.616 -0.0307 -0.1154 -0.5766
 9570SOL    HW139639   5.612   8.551   4.519 -1.0097  0.0341 -0.6708
 9570SOL    HW239640   5.630   8.674   4.626 -0.9125  0.1172 -0.7835
 9571SOL     OW39641   3.824   0.556   2.686 -0.4489  0.7063  0.1274
 9571SOL    HW139642   3.744   0.498   2.698 -2.1283  2.0192 -3.8071
 9571SOL    HW239643   3.900   0.500   2.653 -1.6157  0.4379 -2.1911
 9572SOL     OW39644   5.673   7.682   4.881 -0.3721 -0.0567 -0.3939
 9572SOL    HW139645   5.588   7.712   4.925  0.4635  1.0087  0.5405
 9572SOL    HW239646   5.673   7.583   4.871 -0.3421 -0.4167  2.6056
 9573SOL     OW39647   7.399   0.149   5.838 -0.6872 -0.0878  0.0494
 9573SOL    HW139648   7.498   0.161   5.843 -0.6321 -0.6888  0.4632
 9573SOL    HW239649   7.357   0.234   5.805 -0.1745  0.7584  1.4942
 9574SOL     OW39650   6.114   9.198   3.903  0.2876 -0.1492 -0.1134
 9574SOL    HW139651   6.193   9.136   3.901  0.2076 -0.2046 -1.7047
 9574SOL    HW239652   6.036   9.154   3.859 -1.0212 -0.5805  2.5008
 9575SOL     OW39653   2.841   7.426   3.520  0.0826 -0.2355  0.0384
 9575SOL    HW139654   2.894   7.488   3.462 -1.1480  2.2293  1.4226
 9575SOL    HW239655   2.871   7.436   3.615 -0.4182 -1.4776  0.3302
 9576SOL     OW39656   9.530   7.715   2.010 -0.3769  0.2496  0.2940
 9576SOL    HW139657   9.603   7.703   2.078 -0.2183  2.2556  0.5057
 9576SOL    HW239658   9.562   7.681   1.922  0.2373 -0.3351  0.7348
 9577SOL     OW39659   3.090   9.072   1.762 -0.5768 -0.4253 -0.1842
 9577SOL    HW139660   3.041   9.010   1.824 -0.3330 -1.3182 -0.8827
 9577SOL    HW239661   3.188   9.050   1.763 -0.5771 -0.4713 -0.9222
 9578SOL     OW39662   0.166   7.717   2.796  0.5533  0.1969  0.0155
 9578SOL    HW139663   0.127   7.693   2.707 -1.0250  0.9833  0.4876
 9578SOL    HW239664   0.222   7.799   2.786 -0.7784  1.1231 -0.0019
 9579SOL     OW39665   3.358   9.822   1.424  0.8753 -0.1751 -0.0273
 9579SOL    HW139666   3.290   9.869   1.478  0.7461  1.9807 -1.9901
 9579SOL    HW239667   3.420   9.888   1.382  1.3091 -1.7730 -2.0371
 9580SOL     OW39668   8.531   0.103   4.255  0.0639  0.1566 -0.4668
 9580SOL    HW139669   8.615   0.103   4.309  0.7968  0.6886 -1.5832
 9580SOL    HW239670   8.456   0.139   4.310  0.4913 -0.6141  0.6375
 9581SOL     OW39671   8.591   1.975   4.650 -0.2302  0.1849 -0.2193
 9581SOL    HW139672   8.571   1.878   4.644  1.0866 -0.0055 -1.9908
 9581SOL    HW239673   8.687   1.989   4.673 -0.3953  1.0684 -0.0177
 9582SOL     OW39674   9.921   4.715   2.862 -0.3188  0.8639  0.1337
 9582SOL    HW139675   9.920   4.615   2.865 -1.5870  0.8781  0.5159
 9582SOL    HW239676   9.886   4.746   2.774 -0.9685  0.9855  0.4331
 9583SOL     OW39677   0.980   8.352   5.619 -0.5492 -0.4095 -0.2744
 9583SOL    HW139678   0.924   8.271   5.639 -1.8234  0.8374  1.3750
 9583SOL    HW239679   0.927   8.417   5.566  0.2236 -0.3297 -0.9518
 9584SOL     OW39680   0.677   3.999   4.688 -0.0772  0.3185 -0.2824
 9584SOL    HW139681   0.677   3.929   4.617  0.5835 -0.8765  0.8637
 9584SOL    HW239682   0.583   4.022   4.714 -0.2920 -0.7243 -0.1214
 9585SOL     OW39683   7.988   2.266   2.728  0.1943 -0.7404  0.0477
 9585SOL    HW139684   8.054   2.196   2.754 -0.1531 -0.6492  1.2196
 9585SOL    HW239685   8.033   2.354   2.721  0.2512 -0.7270  0.5737
 9586SOL     OW39686   8.075   3.371   3.945  0.2534  0.0485 -0.7103
 9586SOL    HW139687   8.112   3.337   3.859  2.5712  0.8881 -0.0843
 9586SOL    HW239688   7.995   3.428   3.927 -1.0059 -2.0701 -2.0720
 9587SOL     OW39689   4.684   6.374   2.432 -0.0199 -0.2316  0.1383
 9587SOL    HW139690   4.761   6.318   2.403 -0.0542 -0.7019  0.9404
 9587SOL    HW239691   4.679   6.375   2.532 -1.3936 -0.6559  0.0886
 9588SOL     OW39692   1.038   4.096   4.266 -0.1490 -0.6083  0.3455
 9588SOL    HW139693   1.055   4.009   4.312  0.1514 -0.0420  1.3146
 9588SOL    HW239694   0.998   4.079   4.176  1.5663 -1.8033 -0.2122
 9589SOL     OW39695   1.363   8.013   4.751 -0.8247  0.3867 -0.5622
 9589SOL    HW139696   1.412   7.927   4.739 -1.3246  0.4124 -3.2609
 9589SOL    HW239697   1.394   8.059   4.834  2.9571 -0.0582 -1.6548
 9590SOL     OW39698   1.236   1.993   4.416  0.4527 -0.2203 -0.1775
 9590SOL    HW139699   1.220   2.045   4.332  0.7445 -0.1402 -0.1850
 9590SOL    HW239700   1.208   2.046   4.495 -3.1465 -1.6385 -0.4066
 9591SOL     OW39701   1.388   7.583   1.367  0.0613  0.1641 -0.2516
 9591SOL    HW139702   1.310   7.645   1.357 -0.9907 -1.3517 -1.5677
 9591SOL    HW239703   1.398   7.529   1.284  1.7182 -0.5974  0.4289
 9592SOL     OW39704   2.708   7.597   6.490 -0.0574 -0.4279  0.3143
 9592SOL    HW139705   2.646   7.582   6.413  1.1370 -2.2703 -0.3181
 9592SOL    HW239706   2.717   7.513   6.543  0.9633  0.1574  1.1021
 9593SOL     OW39707   1.012   5.005   0.047  0.3298  0.1414 -0.5466
 9593SOL    HW139708   1.059   5.042   0.127 -1.6240  0.1700  0.6122
 9593SOL    HW239709   0.914   4.998   0.066 -0.0385 -0.6767 -2.6305
 9594SOL     OW39710   8.444   9.009   0.732  0.0109  0.4719 -0.2381
 9594SOL    HW139711   8.474   9.081   0.795  0.2103 -0.0900  0.3107
 9594SOL    HW239712   8.489   8.923   0.755  0.2134  0.2997 -1.2588
 9595SOL     OW39713   9.972   1.121   2.938 -0.3898  0.0310 -0.3687
 9595SOL    HW139714   9.938   1.032   2.968 -0.3438 -0.3735 -1.5181
 9595SOL    HW239715   9.922   1.151   2.858 -0.0663  0.8193 -0.2810
 9596SOL     OW39716   6.834   0.439   2.606 -0.2619  0.5026 -0.3235
 9596SOL    HW139717   6.916   0.486   2.638  0.8618 -0.4540 -1.7372
 9596SOL    HW239718   6.804   0.374   2.676  0.9290 -0.0585 -0.3233
 9597SOL     OW39719   7.917   5.565   1.956  0.1002 -0.4704  0.0931
 9597SOL    HW139720   7.897   5.662   1.971 -0.9208 -0.7098  0.3023
 9597SOL    HW239721   7.864   5.531   1.878  0.0940 -0.9723  0.3102
 9598SOL     OW39722   5.305   4.287   0.904 -0.0577  0.5602  0.7826
 9598SOL    HW139723   5.241   4.308   0.978  1.0354 -0.0243  1.9150
 9598SOL    HW239724   5.333   4.372   0.859 -2.9455  0.7000 -0.8953
 9599SOL     OW39725   8.626   4.882   3.508  0.7694 -0.2150 -0.4705
 9599SOL    HW139726   8.642   4.785   3.493 -0.0190 -0.7804  2.1542
 9599SOL    HW239727   8.620   4.900   3.606  1.1280  2.5254 -0.9098
 9600SOL     OW39728   2.757   8.170   4.299 -0.4450  0.2443 -0.1008
 9600SOL    HW139729   2.734   8.156   4.202 -0.0973 -0.9134 -0.0153
 9600SOL    HW239730   2.822   8.245   4.306  0.3788 -0.3826 -0.8731
 9601SOL     OW39731   1.285   8.804   1.526 -0.1263 -0.5175 -0.5453
 9601SOL    HW139732   1.357   8.740   1.552 -0.0865 -1.1118 -2.1053
 9601SOL    HW239733   1.325   8.879   1.473 -0.1741  0.8213  1.2331
 9602SOL     OW39734   6.704   8.699   3.992  0.0822  0.0612  0.2765
 9602SOL    HW139735   6.716   8.777   3.931  0.3803  0.4485  0.8230
 9602SOL    HW239736   6.744   8.617   3.951 -0.0145  0.2525 -0.1894
 9603SOL     OW39737   1.113   2.654   4.687 -0.2554 -0.0698 -0.2480
 9603SOL    HW139738   1.017   2.644   4.712  0.1606  2.5865  2.6882
 9603SOL    HW239739   1.170   2.649   4.769  2.0736 -0.7913 -1.8537
 9604SOL     OW39740   8.646   6.675   0.618 -0.4100  0.1091  0.0839
 9604SOL    HW139741   8.654   6.609   0.693 -3.4292  0.4552  0.7726
 9604SOL    HW239742   8.717   6.745   0.628  2.1557 -2.4141 -0.0526
 9605SOL     OW39743   5.174   5.020   2.352 -0.4507 -0.0272  0.4726
 9605SOL    HW139744   5.088   4.978   2.324 -0.4789  0.3800 -0.0672
 9605SOL    HW239745   5.197   5.094   2.288  0.7934 -0.7715  0.0429
 9606SOL     OW39746   3.015   5.589   2.773  0.6232  0.1374  0.5905
 9606SOL    HW139747   3.046   5.568   2.680 -1.1370 -1.6405  0.3802
 9606SOL    HW239748   3.092   5.581   2.836  1.9559  1.8513 -0.7521
 9607SOL     OW39749   8.530   6.936   4.576 -0.1855 -0.2701  0.3730
 9607SOL    HW139750   8.456   6.876   4.549 -1.1296  1.1716 -0.3151
 9607SOL    HW239751   8.588   6.956   4.498 -0.3821  0.3928  0.3888
 9608SOL     OW39752   7.201   0.568   1.876  0.1616 -0.1429 -0.4485
 9608SOL    HW139753   7.162   0.482   1.908 -0.2374  0.6241  1.2182
 9608SOL    HW239754   7.134   0.615   1.818 -0.6054  0.1727  0.6611
 9609SOL     OW39755   0.294   5.429   4.918 -0.5341  0.2195  0.3061
 9609SOL    HW139756   0.355   5.509   4.918 -0.4629  0.1829 -1.0418
 9609SOL    HW239757   0.316   5.370   4.996  0.8168  0.4620  0.1286
 9610SOL     OW39758   0.616   5.649   4.174 -0.1651  0.3230  0.6029
 9610SOL    HW139759   0.697   5.610   4.219  1.6401  0.6229 -2.2791
 9610SOL    HW239760   0.621   5.748   4.177  0.0359  0.3426 -0.3659
 9611SOL     OW39761   0.259   1.342   4.575  0.2010 -0.4323  0.0257
 9611SOL    HW139762   0.353   1.367   4.599  0.6298 -0.9305 -1.1279
 9611SOL    HW239763   0.216   1.296   4.652  0.6116  0.5888  0.8750
 9612SOL     OW39764   7.233   0.949   5.983  0.1857 -0.6819 -0.5709
 9612SOL    HW139765   7.211   0.857   5.953 -0.0942 -0.9413  0.3998
 9612SOL    HW239766   7.154   1.009   5.969 -0.6597 -1.2532  1.4373
 9613SOL     OW39767   1.849   0.659   2.164  0.4392  0.2470 -0.4866
 9613SOL    HW139768   1.942   0.643   2.197  0.9221  1.1540 -1.3721
 9613SOL    HW239769   1.840   0.755   2.136  0.5006 -0.7945 -4.3712
 9614SOL     OW39770   9.264   6.091   6.507  0.3586  0.0863 -0.5942
 9614SOL    HW139771   9.290   6.058   6.416  1.1006 -0.7514 -0.0854
 9614SOL    HW239772   9.296   6.026   6.576  0.2784  0.9966  0.3049
 9615SOL     OW39773   0.843   4.131   5.890 -0.2639  0.4643  0.1545
 9615SOL    HW139774   0.928   4.086   5.862 -0.2658 -0.3386  1.3841
 9615SOL    HW239775   0.778   4.063   5.924 -0.9731  1.1950  0.2986
 9616SOL     OW39776   0.070   8.324   5.295  0.0299  0.2845  0.2362
 9616SOL    HW139777   0.127   8.290   5.220 -0.3853  2.2616 -1.0019
 9616SOL    HW239778   0.118   8.396   5.344 -1.3467  1.8974 -0.7548
 9617SOL     OW39779   0.793   3.952   4.940 -0.2987 -0.0583  0.3091
 9617SOL    HW139780   0.777   3.943   4.841  1.3720  0.4861 -0.0156
 9617SOL    HW239781   0.790   4.048   4.966  0.1458 -0.1360  0.6468
 9618SOL     OW39782   8.245   8.243   2.979  0.2102 -0.4973 -0.0280
 9618SOL    HW139783   8.163   8.257   2.922  0.2709 -1.1502 -0.2839
 9618SOL    HW239784   8.229   8.281   3.070  0.7561  2.1501 -0.9838
 9619SOL     OW39785   7.800   2.023   0.800  0.3873  0.3535 -0.2146
 9619SOL    HW139786   7.826   1.974   0.883 -0.8284 -0.7192 -0.4559
 9619SOL    HW239787   7.740   2.100   0.823  0.4857  0.3836 -0.0610
 9620SOL     OW39788   4.860   6.762   1.876 -0.0237  0.0728 -0.1572
 9620SOL    HW139789   4.830   6.676   1.836  0.3863  0.6666 -1.7531
 9620SOL    HW239790   4.957   6.757   1.897  0.1616  0.3926 -0.9219
 9621SOL     OW39791   8.260   2.208   2.568 -0.5213  0.2733 -0.3085
 9621SOL    HW139792   8.182   2.248   2.520 -2.5454 -3.2339 -0.0630
 9621SOL    HW239793   8.235   2.192   2.664  0.9550  0.3170  0.0953
 9622SOL     OW39794   0.215   7.897   2.046  0.2262  0.3038  0.3316
 9622SOL    HW139795   0.159   7.945   2.113  0.3254 -0.2089  0.7843
 9622SOL    HW239796   0.274   7.963   1.998 -0.3089  0.7540  0.2955
 9623SOL     OW39797   2.377   9.475   1.460  0.4633 -0.2187  0.0822
 9623SOL    HW139798   2.375   9.376   1.470  1.5505 -0.3145 -0.6111
 9623SOL    HW239799   2.296   9.505   1.410 -0.0183 -0.7171  0.5552
 9624SOL     OW39800   6.460   1.409   3.374  0.1004  0.2917 -0.1893
 9624SOL    HW139801   6.439   1.440   3.467 -1.1301  0.5824 -0.5533
 9624SOL    HW239802   6.418   1.320   3.358 -1.5550  1.2088 -1.1677
 9625SOL     OW39803   0.424   5.834   0.811  0.0964  1.0332 -0.5688
 9625SOL    HW139804   0.373   5.748   0.802  0.5484  0.8345 -1.2083
 9625SOL    HW239805   0.366   5.910   0.779 -0.0642  0.8886 -0.6245
 9626SOL     OW39806   8.868   3.977   3.660 -0.4413  0.1010 -0.0121
 9626SOL    HW139807   8.800   3.915   3.699 -0.5367  0.0124 -0.3161
 9626SOL    HW239808   8.823   4.060   3.628 -0.5434 -0.3349 -1.0319
 9627SOL     OW39809   9.499   1.117   2.651 -0.0399  0.4460  0.1788
 9627SOL    HW139810   9.488   1.017   2.651  0.7590  0.3533 -0.5963
 9627SOL    HW239811   9.410   1.159   2.634 -0.6660 -0.0847  2.0573
 9628SOL     OW39812   6.622   0.123   3.057  0.2678 -0.4348 -0.0659
 9628SOL    HW139813   6.682   0.109   2.978 -0.7766  1.6894 -1.2626
 9628SOL    HW239814   6.567   0.040   3.071  2.8833 -2.1303  0.5912
 9629SOL     OW39815   9.188   7.059   6.421 -0.1644 -0.1353  0.5955
 9629SOL    HW139816   9.203   7.010   6.335  0.8178  0.2103  0.5621
 9629SOL    HW239817   9.276   7.077   6.465 -0.5667  0.8275  1.0319
 9630SOL     OW39818   7.270   7.681   2.550 -0.0255  0.0647 -0.0185
 9630SOL    HW139819   7.189   7.625   2.532 -0.8741  0.6400  1.9103
 9630SOL    HW239820   7.302   7.664   2.643  3.0451 -1.3539 -1.2569
 9631SOL     OW39821   3.328   9.634   3.724 -0.1681  0.1037 -0.3127
 9631SOL    HW139822   3.342   9.551   3.671  0.9588  0.2731 -0.3069
 9631SOL    HW239823   3.320   9.611   3.821 -0.2641 -0.0410 -0.3565
 9632SOL     OW39824   4.686   7.583   4.351  0.5857  0.2350 -0.1606
 9632SOL    HW139825   4.753   7.529   4.301  1.3361  0.7264  0.3010
 9632SOL    HW239826   4.597   7.577   4.305  0.7720 -0.9741 -0.3974
 9633SOL     OW39827   9.902   0.863   2.501 -0.0252 -0.1975 -0.0302
 9633SOL    HW139828   9.861   0.774   2.480 -0.5041  0.3603 -1.5974
 9633SOL    HW239829   9.896   0.881   2.599 -1.0264 -1.3511  0.1282
 9634SOL     OW39830   4.865   0.268   3.428 -0.0174  0.7425  0.1389
 9634SOL    HW139831   4.929   0.192   3.420  0.5391  1.1160  1.0726
 9634SOL    HW239832   4.913   0.350   3.459 -0.9003  1.0830  0.6254
 9635SOL     OW39833   8.886   9.749   0.997  0.1040 -0.1385 -0.5147
 9635SOL    HW139834   8.983   9.733   0.980  0.2858  0.0195  0.3316
 9635SOL    HW239835   8.841   9.773   0.912  0.8648  0.0504 -0.8725
 9636SOL     OW39836   1.392   5.366   6.605  0.1914 -0.1870  0.2595
 9636SOL    HW139837   1.308   5.321   6.636  1.8810 -2.5146  1.6833
 9636SOL    HW239838   1.408   5.345   6.509  0.0190 -1.1631  0.4401
 9637SOL     OW39839   8.701   6.237   4.777 -0.5483  0.5558  0.3337
 9637SOL    HW139840   8.764   6.193   4.714  0.7307  0.4458  1.6622
 9637SOL    HW239841   8.659   6.168   4.836 -1.7428  0.6571 -0.3639
 9638SOL     OW39842   1.036   7.556   0.598  0.2684  0.8752 -0.3358
 9638SOL    HW139843   1.072   7.608   0.675 -2.3118  1.7145  0.3862
 9638SOL    HW239844   1.008   7.620   0.525 -1.7027  0.4600  0.0171
 9639SOL     OW39845   7.530   3.917   1.206 -0.3083  0.2700  0.2725
 9639SOL    HW139846   7.522   3.894   1.303  1.0963  2.9422  1.0634
 9639SOL    HW239847   7.627   3.926   1.182 -0.6575 -0.1267 -1.3189
 9640SOL     OW39848   2.667   9.657   3.290  0.7508  0.4381  0.5817
 9640SOL    HW139849   2.670   9.731   3.358 -1.8085  0.1765  1.0060
 9640SOL    HW239850   2.636   9.694   3.203  1.3085  0.2122  0.2838
 9641SOL     OW39851   8.292   4.294   2.924 -0.0800 -0.6129 -0.1284
 9641SOL    HW139852   8.363   4.357   2.953  0.0343 -0.2385 -1.1939
 9641SOL    HW239853   8.332   4.203   2.910 -0.4896 -1.2773  2.6852
 9642SOL     OW39854   4.322   4.616   6.588  0.3514 -0.0278 -0.1141
 9642SOL    HW139855   4.334   4.531   6.536 -0.1026 -0.7687  0.9655
 9642SOL    HW239856   4.382   4.615   6.668  0.1523  0.5512  0.0472
 9643SOL     OW39857   2.339   9.132   3.678 -0.0055  0.5212 -0.6338
 9643SOL    HW139858   2.376   9.098   3.592 -0.0842  0.7769 -0.7688
 9643SOL    HW239859   2.248   9.171   3.663  0.3873  1.4749 -0.6233
 9644SOL     OW39860   1.968   5.438   4.750 -0.3066  0.2006  0.5819
 9644SOL    HW139861   1.985   5.493   4.668  2.5009 -1.9940 -0.3914
 9644SOL    HW239862   2.017   5.477   4.827 -0.5419  0.6218  0.5159
 9645SOL     OW39863   9.859   8.437   1.110  0.2427  0.5567  0.4175
 9645SOL    HW139864   9.946   8.471   1.146 -1.0531  3.6563  0.7998
 9645SOL    HW239865   9.843   8.477   1.019 -0.7387 -0.0030  0.3351
 9646SOL     OW39866   0.908   6.346   3.595  0.2729 -0.3450 -0.0893
 9646SOL    HW139867   0.952   6.432   3.569  0.2408 -0.3164 -0.0490
 9646SOL    HW239868   0.823   6.336   3.544 -0.0155 -0.0710  0.3275
 9647SOL     OW39869   9.563   6.400   2.943  0.0590  0.0494 -0.1565
 9647SOL    HW139870   9.663   6.406   2.950  0.0544  0.0881 -0.1275
 9647SOL    HW239871   9.521   6.458   3.013  0.0351  2.9477 -2.4681
 9648SOL     OW39872   9.269   5.669   3.097 -0.2348 -0.2174 -0.3586
 9648SOL    HW139873   9.315   5.742   3.147 -2.0598  0.4052  0.4734
 9648SOL    HW239874   9.274   5.688   2.999  1.5752 -0.3695 -0.3182
 9649SOL     OW39875   9.036   2.465   4.073 -0.5522 -0.1262  0.5602
 9649SOL    HW139876   8.947   2.463   4.119 -0.7361  1.0510  0.2583
 9649SOL    HW239877   9.109   2.452   4.140 -0.8218  1.5656  1.1953
 9650SOL     OW39878   8.534   1.666   4.574 -0.2295 -0.5341 -0.3486
 9650SOL    HW139879   8.601   1.609   4.621 -0.5052 -0.9377 -0.4370
 9650SOL    HW239880   8.455   1.679   4.634  0.7045  1.4605  0.4727
 9651SOL     OW39881   4.631   3.887   3.211 -0.3386  0.2932 -0.1033
 9651SOL    HW139882   4.650   3.920   3.304 -0.8801 -0.2316  0.1945
 9651SOL    HW239883   4.655   3.790   3.204  1.4896  0.7886 -1.0527
 9652SOL     OW39884   2.576   5.557   4.962  0.0099  0.1928 -0.2288
 9652SOL    HW139885   2.648   5.602   4.910 -0.8242  2.2023  0.2911
 9652SOL    HW239886   2.569   5.461   4.934  0.8981  0.7222 -2.3830
 9653SOL     OW39887   3.372   3.127   1.366  0.2198 -0.1638 -0.4775
 9653SOL    HW139888   3.275   3.103   1.371 -0.4432  2.2816 -0.9968
 9653SOL    HW239889   3.412   3.088   1.283 -0.6345 -0.0824 -0.9325
 9654SOL     OW39890   8.617   4.221   5.224 -0.0817 -0.3462 -0.0956
 9654SOL    HW139891   8.574   4.265   5.303 -0.4693 -0.8798 -0.0028
 9654SOL    HW239892   8.663   4.138   5.253  2.0793  0.8638  0.0009
 9655SOL     OW39893   8.473   4.531   0.745 -0.0871  0.3818 -0.0737
 9655SOL    HW139894   8.411   4.521   0.668  0.2989 -0.1639 -0.3178
 9655SOL    HW239895   8.549   4.591   0.719 -0.1629  0.5152  0.0115
 9656SOL     OW39896   8.537   0.950   4.347 -0.1632 -0.4852  0.0983
 9656SOL    HW139897   8.462   0.885   4.356 -0.6211 -0.1735 -1.3440
 9656SOL    HW239898   8.502   1.044   4.353  0.4266 -0.3467  1.6754
 9657SOL     OW39899   8.285   6.054   1.181 -0.5438  0.7105  0.5392
 9657SOL    HW139900   8.272   6.115   1.102  0.9310  0.6363  0.2084
 9657SOL    HW239901   8.271   6.105   1.266  1.1937  1.6722  0.2737
 9658SOL     OW39902   9.957   4.599   4.601  0.0929  0.1651  0.1755
 9658SOL    HW139903   9.905   4.578   4.518  0.7036 -1.0649  0.1088
 9658SOL    HW239904   9.967   4.699   4.608 -0.9512  0.3443 -0.6108
 9659SOL     OW39905   6.251   1.304   2.305  0.8764 -0.8406 -0.5221
 9659SOL    HW139906   6.238   1.223   2.248  0.9273 -0.4460 -1.0994
 9659SOL    HW239907   6.337   1.297   2.355  0.2013 -1.8047  0.5422
 9660SOL     OW39908   1.998   4.791   3.725  0.2129  0.0511 -0.0497
 9660SOL    HW139909   2.097   4.784   3.736  0.2314 -3.3907 -1.5623
 9660SOL    HW239910   1.977   4.825   3.633  0.0467 -1.1222 -0.4667
 9661SOL     OW39911   8.196   1.440   1.337  0.2569 -0.0275  0.0030
 9661SOL    HW139912   8.234   1.458   1.246  0.3079 -0.2442 -0.0204
 9661SOL    HW239913   8.097   1.453   1.335  0.3671  0.8280  0.1387
 9662SOL     OW39914   3.552   6.951   4.745 -0.2009  0.3130 -0.0476
 9662SOL    HW139915   3.589   6.878   4.803  2.4096  1.1677 -0.5790
 9662SOL    HW239916   3.559   6.923   4.649 -0.0726  0.8487 -0.1959
 9663SOL     OW39917   5.097   0.826   0.922 -0.4749 -0.3448 -0.2480
 9663SOL    HW139918   5.186   0.804   0.963 -1.0834 -0.8674  0.8183
 9663SOL    HW239919   5.039   0.744   0.923 -0.9236 -0.0477 -1.0777
 9664SOL     OW39920   1.589   6.609   1.901  0.2356  0.4268 -0.8500
 9664SOL    HW139921   1.679   6.576   1.928  0.4094 -0.4615 -2.4934
 9664SOL    HW239922   1.599   6.677   1.829 -0.3517  1.2977 -0.1263
 9665SOL     OW39923   2.355   6.930   4.066 -0.8742 -0.7294 -0.6402
 9665SOL    HW139924   2.385   6.952   3.973 -3.3034 -2.0398 -1.7707
 9665SOL    HW239925   2.346   7.015   4.118 -2.8868  0.4164 -2.7089
 9666SOL     OW39926   4.895   0.690   2.096 -0.0873 -0.2689  0.2605
 9666SOL    HW139927   4.859   0.600   2.123 -0.1506 -0.4104 -0.2934
 9666SOL    HW239928   4.846   0.722   2.015 -0.2292  0.3755  0.6033
 9667SOL     OW39929   9.582   6.651   2.751 -0.0504  0.3576 -0.5641
 9667SOL    HW139930   9.494   6.659   2.799 -0.0911 -0.5321 -0.4944
 9667SOL    HW239931   9.590   6.560   2.711  1.3561  0.0123  0.4500
 9668SOL     OW39932   2.386   6.783   0.708  0.1813  0.4232  0.5266
 9668SOL    HW139933   2.427   6.855   0.652 -0.2526  0.1888 -0.0979
 9668SOL    HW239934   2.287   6.795   0.711 -0.0778 -1.1165 -1.0013
 9669SOL     OW39935   8.436   1.194   1.230 -0.1933  0.5810  0.5852
 9669SOL    HW139936   8.397   1.229   1.316  0.2305 -0.1420  1.0755
 9669SOL    HW239937   8.382   1.227   1.153 -2.1358 -0.9202  1.2837
 9670SOL     OW39938   0.238   5.768   4.334  0.0737 -0.1418  0.2710
 9670SOL    HW139939   0.260   5.703   4.262 -2.2858  1.1085 -1.6677
 9670SOL    HW239940   0.162   5.732   4.389 -0.2461  0.2833  0.1146
 9671SOL     OW39941   4.602   2.792   3.731 -0.1108 -0.8912 -0.0902
 9671SOL    HW139942   4.587   2.861   3.660  2.0978  0.8669  1.1082
 9671SOL    HW239943   4.560   2.706   3.702 -1.9963  0.6359 -2.0838
 9672SOL     OW39944   0.631   9.483   1.309  0.3682 -0.3126 -0.1386
 9672SOL    HW139945   0.700   9.416   1.283 -0.1654 -1.0559  0.3217
 9672SOL    HW239946   0.629   9.490   1.409  0.5058  0.4854 -0.1889
 9673SOL     OW39947   5.689   1.239   3.320  0.4576  0.0308  0.3213
 9673SOL    HW139948   5.776   1.286   3.335  0.5826  0.1143 -0.6208
 9673SOL    HW239949   5.617   1.284   3.373  0.2442  2.3313 -1.8553
 9674SOL     OW39950   4.044   6.201   2.916 -0.3104 -0.9110  0.5390
 9674SOL    HW139951   4.059   6.123   2.978 -0.1925 -0.5185  1.0062
 9674SOL    HW239952   4.073   6.176   2.824 -2.3481 -2.1902  0.2253
 9675SOL     OW39953   5.814   7.877   2.423  0.0382 -0.1920 -0.4872
 9675SOL    HW139954   5.764   7.947   2.374  0.9227  0.7616 -0.0462
 9675SOL    HW239955   5.770   7.859   2.511  0.4836  0.6777 -0.0804
 9676SOL     OW39956   7.323   1.507   3.889  0.2795 -0.0035 -0.3288
 9676SOL    HW139957   7.393   1.568   3.925  0.7759  0.0223 -1.3132
 9676SOL    HW239958   7.242   1.561   3.865  0.7970  0.3242 -1.4017
 9677SOL     OW39959   0.604   2.401   2.645 -0.1354 -0.1551  0.2735
 9677SOL    HW139960   0.667   2.383   2.570 -1.7010 -0.8634 -0.8807
 9677SOL    HW239961   0.643   2.473   2.704  2.2022 -1.2759  0.1672
 9678SOL     OW39962   6.598   0.028   1.749 -0.3070  0.0416  0.0336
 9678SOL    HW139963   6.606  -0.055   1.693  1.5478 -0.2794  0.7245
 9678SOL    HW239964   6.600   0.002   1.846 -3.9411  0.5422  0.3068
 9679SOL     OW39965   0.065   5.902   2.697  0.2565  0.0223 -0.2996
 9679SOL    HW139966   0.098   5.865   2.784 -0.6622  0.2086  0.1374
 9679SOL    HW239967   0.101   5.995   2.685 -2.2109  1.2654  1.4591
 9680SOL     OW39968   1.397   4.454   2.380 -0.2795 -0.4739  0.1055
 9680SOL    HW139969   1.364   4.423   2.291  0.3042 -1.2684  0.1634
 9680SOL    HW239970   1.366   4.548   2.395  0.8445  0.2191 -1.6032
 9681SOL     OW39971   2.668   6.016   4.130 -0.1955 -0.0047  0.3468
 9681SOL    HW139972   2.622   6.006   4.218  0.3442 -0.2088  0.6053
 9681SOL    HW239973   2.760   5.979   4.136 -0.1928 -0.1124 -0.3362
 9682SOL     OW39974   1.701   7.842   0.834 -0.0974 -0.1192 -0.2694
 9682SOL    HW139975   1.746   7.890   0.759  1.1421 -0.2966  0.3653
 9682SOL    HW239976   1.722   7.887   0.921 -1.3846 -0.0192 -0.0005
 9683SOL     OW39977   9.211   2.912   2.674  0.2430  0.0732  0.2494
 9683SOL    HW139978   9.197   2.904   2.575 -0.1801  1.4720  0.1796
 9683SOL    HW239979   9.305   2.885   2.696  0.4943  0.2157 -0.6075
 9684SOL     OW39980   4.785   1.261   3.942  0.3931  0.2886  0.3613
 9684SOL    HW139981   4.831   1.228   4.024 -1.7265 -0.6593  1.2040
 9684SOL    HW239982   4.764   1.358   3.953  0.0858  0.1595  0.9734
 9685SOL     OW39983   3.156   1.935   0.857  0.6229  0.4386  0.3106
 9685SOL    HW139984   3.149   1.871   0.780 -0.8009  2.4463 -1.2582
 9685SOL    HW239985   3.183   1.884   0.939  2.1866 -1.7390 -1.4746
 9686SOL     OW39986   1.958   3.582   5.972 -0.1041 -0.4157  0.0677
 9686SOL    HW139987   1.966   3.567   6.071 -1.4462 -0.2331  0.2232
 9686SOL    HW239988   1.864   3.561   5.944  0.0931  0.1972 -1.0541
 9687SOL     OW39989   1.109   3.020   0.480  0.1597 -0.4305 -0.7389
 9687SOL    HW139990   1.193   3.018   0.535  0.3553  0.9976 -0.9431
 9687SOL    HW239991   1.132   3.050   0.387 -0.3986 -1.2569 -1.1441
 9688SOL     OW39992   4.259   0.610   2.750  0.0052  0.3462 -0.1448
 9688SOL    HW139993   4.354   0.580   2.744  0.5046  1.8534  0.0805
 9688SOL    HW239994   4.210   0.585   2.666  0.4450 -0.9172 -0.0360
 9689SOL     OW39995   8.617   2.517   5.247 -0.0848 -0.0186 -0.0546
 9689SOL    HW139996   8.528   2.561   5.229 -0.9169 -0.1412  3.4627
 9689SOL    HW239997   8.680   2.585   5.283  0.5011 -0.4683 -0.2339
 9690SOL     OW39998   1.848   4.096   1.829 -0.0244 -0.7908 -0.2782
 9690SOL    HW139999   1.847   4.085   1.929 -0.2364  1.6423 -0.0045
 9690SOL    HW240000   1.812   4.013   1.787 -1.5507 -1.1811  1.7241
 9691SOL     OW40001   1.967   6.366   2.995 -0.4354 -0.0517 -0.3263
 9691SOL    HW140002   1.870   6.346   2.979 -0.5802 -1.2511  1.9158
 9691SOL    HW240003   2.018   6.280   3.000  0.5255  0.5266 -0.1747
 9692SOL     OW40004   1.146   0.892   1.535  0.0033 -0.4310 -0.2248
 9692SOL    HW140005   1.205   0.900   1.455 -0.4378  0.8902 -0.4300
 9692SOL    HW240006   1.142   0.979   1.583 -0.7560 -0.8580  0.5107
 9693SOL     OW40007   0.630   9.119   2.696 -0.1794 -0.4257 -0.3306
 9693SOL    HW140008   0.703   9.186   2.684 -0.3434  0.0361  1.2619
 9693SOL    HW240009   0.554   9.160   2.746 -0.7403 -1.4784 -0.3025
 9694SOL     OW40010   1.823   8.826   2.719  0.3178 -0.1658 -0.2610
 9694SOL    HW140011   1.850   8.922   2.718 -2.4841  0.6654 -0.0379
 9694SOL    HW240012   1.757   8.811   2.793 -0.2941 -1.9597 -1.1505
 9695SOL     OW40013   0.633   7.093   3.191  0.6582 -0.3831 -0.1719
 9695SOL    HW140014   0.704   7.029   3.222  0.2140 -0.2516  1.1299
 9695SOL    HW240015   0.566   7.044   3.135  2.3754 -0.2885 -2.3817
 9696SOL     OW40016   5.082   1.999   3.607  0.2388  0.2149 -0.5256
 9696SOL    HW140017   5.109   1.919   3.553 -1.2493  0.5106 -1.7526
 9696SOL    HW240018   5.133   2.079   3.574  2.3340 -0.3481  1.2487
 9697SOL     OW40019   4.539   8.027   4.543  0.3582 -0.4762 -0.5028
 9697SOL    HW140020   4.523   8.001   4.448 -0.2268  0.5720 -0.7045
 9697SOL    HW240021   4.528   7.948   4.602  1.8943 -1.4003 -1.4239
 9698SOL     OW40022   2.067   6.499   1.109 -0.2022 -0.2376  0.4608
 9698SOL    HW140023   2.113   6.571   1.057 -1.0256  1.8020  2.4682
 9698SOL    HW240024   2.133   6.427   1.131  0.8200  0.2345 -0.9407
 9699SOL     OW40025   0.427   8.048   0.908 -0.3431  0.2210  0.1669
 9699SOL    HW140026   0.496   7.985   0.873 -0.6252 -1.4352  2.4881
 9699SOL    HW240027   0.336   8.016   0.884 -0.4419  0.3726  0.3301
 9700SOL     OW40028   9.956   4.886   2.446  0.2625  0.4686 -0.7749
 9700SOL    HW140029   9.916   4.975   2.424 -0.5234 -0.0761 -1.5700
 9700SOL    HW240030   9.884   4.821   2.469  0.6201 -0.6262 -2.6077
 9701SOL     OW40031   1.464   3.476   3.585  0.0667 -0.0282  0.4508
 9701SOL    HW140032   1.495   3.569   3.602  1.7485 -0.5301  0.2430
 9701SOL    HW240033   1.365   3.471   3.598  0.3430  1.0989  3.4645
 9702SOL     OW40034   1.516   8.986   1.032  0.1053 -0.6371 -0.0920
 9702SOL    HW140035   1.551   9.080   1.025 -1.3059  0.0502  1.6406
 9702SOL    HW240036   1.416   8.988   1.031  0.0692 -2.1198  0.0591
 9703SOL     OW40037   2.829   8.331   4.680 -0.2810 -0.8821  0.1797
 9703SOL    HW140038   2.869   8.300   4.594  0.0337 -0.5307  0.1955
 9703SOL    HW240039   2.743   8.378   4.663  0.7721  0.9997 -0.1526
 9704SOL     OW40040   2.571   1.865   3.074  0.1221 -0.5506 -0.1008
 9704SOL    HW140041   2.509   1.862   2.995  0.1453 -1.1949 -0.0950
 9704SOL    HW240042   2.570   1.777   3.121 -0.4810  0.0821  1.0766
 9705SOL     OW40043   4.456   3.090   1.459 -0.2027  0.3086  0.5976
 9705SOL    HW140044   4.365   3.095   1.502 -1.3726 -0.1742 -1.7481
 9705SOL    HW240045   4.464   3.004   1.409  0.7684  1.2796 -0.9365
 9706SOL     OW40046   8.380   3.712   0.807 -0.6448 -0.4773 -0.4222
 9706SOL    HW140047   8.443   3.755   0.872  0.1312 -1.8452 -0.2395
 9706SOL    HW240048   8.387   3.612   0.815 -2.8519 -0.6571 -0.3972
 9707SOL     OW40049   3.638   8.223   3.313  0.2598 -0.0731  0.4361
 9707SOL    HW140050   3.653   8.161   3.236  0.7528  0.1826  0.3216
 9707SOL    HW240051   3.726   8.265   3.339 -0.1167  0.8142  0.3026
 9708SOL     OW40052   9.013   7.673   3.850 -0.7708 -0.1352  0.2943
 9708SOL    HW140053   9.051   7.630   3.932  0.7405 -0.3089 -0.4883
 9708SOL    HW240054   9.081   7.672   3.777 -1.4305  1.7881 -0.3668
 9709SOL     OW40055   9.795   1.757   5.279  0.3565  0.0818  0.4200
 9709SOL    HW140056   9.852   1.777   5.359  1.6965 -2.5364  0.1811
 9709SOL    HW240057   9.786   1.839   5.223  1.0093  1.4414  2.2556
 9710SOL     OW40058   2.814   1.857   3.955  0.4404 -0.1533 -0.1251
 9710SOL    HW140059   2.912   1.862   3.970  0.6366  0.5488 -1.5447
 9710SOL    HW240060   2.783   1.940   3.908 -0.7242 -0.6267 -0.2138
 9711SOL     OW40061   3.674   2.135   1.628  0.0556 -0.5353  0.1758
 9711SOL    HW140062   3.706   2.148   1.721  1.3388  0.5076 -0.3864
 9711SOL    HW240063   3.707   2.210   1.571 -2.2177 -0.1809 -0.7444
 9712SOL     OW40064   9.583   7.593   2.435  0.0180 -0.5579 -0.0099
 9712SOL    HW140065   9.623   7.637   2.355 -2.5788 -0.7232 -1.4486
 9712SOL    HW240066   9.586   7.494   2.424 -1.0007 -0.5669 -0.2484
 9713SOL     OW40067   8.823   4.167   5.614  0.4398 -0.2418 -0.2958
 9713SOL    HW140068   8.914   4.208   5.602  0.8970 -1.1902 -0.0893
 9713SOL    HW240069   8.831   4.067   5.615 -0.3758 -0.2979  1.6057
 9714SOL     OW40070   7.676   8.551   2.346  0.2134 -0.3498 -0.2844
 9714SOL    HW140071   7.611   8.476   2.356 -0.5098 -0.4054 -4.7105
 9714SOL    HW240072   7.631   8.628   2.302  1.9438  1.3712  0.8859
 9715SOL     OW40073   6.931   0.646   6.227 -0.0152  0.7093  0.5431
 9715SOL    HW140074   6.911   0.577   6.296 -1.4975  0.1310 -0.4348
 9715SOL    HW240075   6.934   0.602   6.136  1.8104  1.4637  0.2019
 9716SOL     OW40076   3.372   3.893   4.814  0.0735 -0.1108  0.4411
 9716SOL    HW140077   3.290   3.932   4.857  0.5417  1.5620 -0.1403
 9716SOL    HW240078   3.417   3.831   4.878 -0.0809  1.1819  1.8295
 9717SOL     OW40079   6.833   0.446   1.908  0.4280  0.3405 -0.1732
 9717SOL    HW140080   6.907   0.379   1.905  0.1825  0.0754 -0.2566
 9717SOL    HW240081   6.837   0.495   1.996  0.1592 -0.2948  0.2016
 9718SOL     OW40082   8.089   0.544   3.031 -0.0970 -0.1588 -0.1258
 9718SOL    HW140083   8.032   0.586   2.960 -2.0197  0.1670  1.5666
 9718SOL    HW240084   8.032   0.519   3.109  2.0551 -0.0186  1.5436
 9719SOL     OW40085   2.878   2.697   1.939 -0.1671  0.2987 -0.2194
 9719SOL    HW140086   2.892   2.604   1.973  1.1541  0.1109 -1.2294
 9719SOL    HW240087   2.950   2.757   1.975  0.6580  0.3094 -1.8298
 9720SOL     OW40088   6.290   9.519   5.155  0.1754  0.4715 -0.5864
 9720SOL    HW140089   6.302   9.426   5.123 -0.4935  0.4581 -0.8120
 9720SOL    HW240090   6.378   9.566   5.160  0.4969 -0.1424 -0.5577
 9721SOL     OW40091   5.411   9.613   1.724 -0.1904  0.7353 -0.2897
 9721SOL    HW140092   5.417   9.522   1.683 -0.2025 -0.4004  2.1182
 9721SOL    HW240093   5.369   9.676   1.659 -0.1171 -0.9524 -2.0299
 9722SOL     OW40094   8.977   2.458   2.952  0.8395 -0.1610  0.1661
 9722SOL    HW140095   9.070   2.463   2.915  0.7889 -0.5683 -0.0174
 9722SOL    HW240096   8.911   2.472   2.878  0.7380 -0.9380  0.1084
 9723SOL     OW40097   9.910   1.558   1.885  0.0157 -0.0235  0.1113
 9723SOL    HW140098   9.825   1.516   1.914 -0.2998  0.2704 -0.3846
 9723SOL    HW240099   9.906   1.657   1.902 -0.3716  0.2264 -1.4134
 9724SOL     OW40100   2.794   9.943   2.486 -0.6349  0.1719 -0.1239
 9724SOL    HW140101   2.804   9.888   2.569 -0.9128  0.4435  0.0903
 9724SOL    HW240102   2.813   9.886   2.406 -2.4119 -0.6300  0.0131
 9725SOL     OW40103   0.803   6.154   1.197 -0.1036 -0.0306  0.4310
 9725SOL    HW140104   0.802   6.254   1.196 -2.4286 -0.0303 -3.6944
 9725SOL    HW240105   0.710   6.119   1.205  0.7230 -1.9354  2.4180
 9726SOL     OW40106   4.997   7.694   4.126  0.2317  0.1756  0.2860
 9726SOL    HW140107   4.941   7.636   4.184  0.7633 -0.5603  0.0675
 9726SOL    HW240108   5.007   7.784   4.168 -2.3146  0.8187 -0.3452
 9727SOL     OW40109   3.081   2.092   2.661 -0.2043  0.1403 -0.2259
 9727SOL    HW140110   3.089   2.192   2.670  0.5254 -0.1125  2.3118
 9727SOL    HW240111   3.016   2.058   2.729  0.9417 -1.3077  0.1665
 9728SOL     OW40112   2.222   1.748   3.003 -0.3351  0.3247 -0.2683
 9728SOL    HW140113   2.247   1.759   3.099  1.1902  1.5640 -0.7974
 9728SOL    HW240114   2.123   1.760   2.992 -0.5094  0.1986  1.1349
 9729SOL     OW40115   0.284   3.867   2.982 -0.3643  0.5295 -0.2243
 9729SOL    HW140116   0.233   3.948   2.951 -0.5991  0.1278 -0.8811
 9729SOL    HW240117   0.242   3.785   2.945 -0.8090  0.0207  1.3828
 9730SOL     OW40118   9.227   4.338   1.499  0.2965  0.0649 -0.0021
 9730SOL    HW140119   9.230   4.239   1.514 -1.3980  0.1428  1.0095
 9730SOL    HW240120   9.274   4.360   1.414  0.5992 -1.6302 -0.2950
 9731SOL     OW40121   8.113   7.206   5.055  0.1177  0.5740 -0.3711
 9731SOL    HW140122   8.179   7.271   5.091  1.1039 -0.4606 -0.2714
 9731SOL    HW240123   8.162   7.126   5.020 -1.2206 -1.3673  2.0661
 9732SOL     OW40124   8.659   2.250   0.958  0.5603 -0.1888  0.1022
 9732SOL    HW140125   8.600   2.303   0.898 -2.4697 -1.5014  1.7816
 9732SOL    HW240126   8.703   2.176   0.906 -1.6072 -0.9957 -0.6390
 9733SOL     OW40127   9.351   4.822   3.344 -0.0303  0.2648  0.7297
 9733SOL    HW140128   9.440   4.811   3.301  0.0677  1.5073  0.5971
 9733SOL    HW240129   9.305   4.733   3.349  1.1461 -0.3583  0.6661
 9734SOL     OW40130   8.398   3.323   0.487 -0.7672  0.5150 -0.0010
 9734SOL    HW140131   8.479   3.276   0.452 -1.0007  0.6937 -0.8027
 9734SOL    HW240132   8.316   3.278   0.450 -1.0501 -0.0850  1.3406
 9735SOL     OW40133   7.150   8.515   2.748  0.1931 -0.1356  0.7185
 9735SOL    HW140134   7.175   8.580   2.820  1.1475 -1.3142  1.4791
 9735SOL    HW240135   7.228   8.454   2.730 -0.2463 -0.2376 -0.8920
 9736SOL     OW40136   7.282   3.532   1.490  0.0623 -0.1940  0.1393
 9736SOL    HW140137   7.232   3.468   1.432 -0.1438  0.4644 -0.4212
 9736SOL    HW240138   7.379   3.508   1.491 -0.1389 -0.9808  0.5601
 9737SOL     OW40139   3.519   2.233   2.049  0.3027  0.1509  0.6363
 9737SOL    HW140140   3.612   2.234   2.087  1.1969  0.0283 -1.4490
 9737SOL    HW240141   3.520   2.278   1.959 -1.2971 -1.3657 -0.1657
 9738SOL     OW40142   8.616   5.423   5.285  0.0634 -0.1600 -0.6305
 9738SOL    HW140143   8.675   5.460   5.213 -0.2118 -2.0321 -1.8596
 9738SOL    HW240144   8.553   5.356   5.245 -2.6228  1.4604  0.7215
 9739SOL     OW40145   3.658   2.489   2.338 -0.1102  0.2935 -0.2254
 9739SOL    HW140146   3.569   2.493   2.292 -0.1239 -0.2018 -0.2438
 9739SOL    HW240147   3.645   2.462   2.433 -0.0801  1.3092  0.0795
 9740SOL     OW40148   4.834   3.546   6.467 -0.2822  0.7453  0.0403
 9740SOL    HW140149   4.894   3.540   6.388 -0.1105  3.0988 -0.0551
 9740SOL    HW240150   4.873   3.610   6.534  0.4593 -2.5102  2.8558
 9741SOL     OW40151   1.114   7.027   3.885 -0.5448  0.0067  0.0245
 9741SOL    HW140152   1.113   6.981   3.796 -0.9671 -0.4170  0.2490
 9741SOL    HW240153   1.079   7.120   3.874 -0.9770 -0.1772 -0.1850
 9742SOL     OW40154   2.756   1.925   3.302 -0.2550  0.0344  0.3233
 9742SOL    HW140155   2.801   1.836   3.298  0.5743  0.4474  0.4109
 9742SOL    HW240156   2.699   1.937   3.220 -0.5356 -0.6555  0.4126
 9743SOL     OW40157   5.104   0.214   3.084  0.3219 -0.2022 -0.5703
 9743SOL    HW140158   5.042   0.285   3.051 -1.2262 -0.1579  2.2426
 9743SOL    HW240159   5.062   0.124   3.070  0.8895 -0.3537 -1.2858
 9744SOL     OW40160   2.226   1.968   3.740 -0.1331 -1.0140  0.5782
 9744SOL    HW140161   2.232   1.947   3.837 -3.2081 -2.7004  0.4502
 9744SOL    HW240162   2.160   2.041   3.725  1.1115 -0.0036 -0.1929
 9745SOL     OW40163   2.230   4.450   6.462 -0.8382  0.2590  0.4032
 9745SOL    HW140164   2.173   4.406   6.392 -0.7387 -0.7638  0.9561
 9745SOL    HW240165   2.177   4.459   6.546  0.1909 -1.8452  1.3084
 9746SOL     OW40166   7.799   9.135   5.434 -0.0497  0.4447  0.0317
 9746SOL    HW140167   7.704   9.135   5.463  0.0101  2.2390  0.2929
 9746SOL    HW240168   7.857   9.100   5.508 -0.3966  0.3448  0.2565
 9747SOL     OW40169   6.373   9.917   2.571  0.9398  0.3003 -0.0352
 9747SOL    HW140170   6.383  10.014   2.551 -0.5376  1.0724  2.6617
 9747SOL    HW240171   6.310   9.876   2.505 -1.6344  2.1281  1.1713
 9748SOL     OW40172   2.718   3.480   4.971 -0.1560  0.1372 -0.5953
 9748SOL    HW140173   2.679   3.402   5.019  0.5690 -0.5855 -1.1640
 9748SOL    HW240174   2.765   3.448   4.888  0.0149  1.1871 -0.9093
 9749SOL     OW40175   3.484   2.027   1.464  0.4314 -0.2720 -0.6406
 9749SOL    HW140176   3.529   2.027   1.375  0.2181  2.0495 -0.7867
 9749SOL    HW240177   3.543   2.072   1.532  0.5360 -1.8907  0.3639
 9750SOL     OW40178   3.292   6.719   4.637 -0.7376  1.0415  0.0388
 9750SOL    HW140179   3.316   6.794   4.699 -2.9872  1.7837  0.0250
 9750SOL    HW240180   3.343   6.637   4.664  0.6365  2.1583  0.9554
 9751SOL     OW40181   1.368   4.412   3.952 -0.1161 -0.2061  0.7085
 9751SOL    HW140182   1.352   4.337   4.016  0.6164  0.9586  2.2775
 9751SOL    HW240183   1.302   4.485   3.969  0.7832  0.5679  0.8514
 9752SOL     OW40184   2.625   0.954   2.403 -0.2897  0.5189 -0.0820
 9752SOL    HW140185   2.678   0.880   2.362 -1.4785 -0.8533  0.8328
 9752SOL    HW240186   2.541   0.967   2.350 -0.7646  0.2487  0.6066
 9753SOL     OW40187   9.173   2.634   1.066 -0.2925  0.4485  0.1784
 9753SOL    HW140188   9.248   2.570   1.049 -1.8744 -2.1622  2.4312
 9753SOL    HW240189   9.105   2.625   0.994  0.4754  1.1322 -0.6356
 9754SOL     OW40190   1.994   1.256   1.929 -0.7952 -0.1003  0.2408
 9754SOL    HW140191   1.911   1.309   1.948  0.3639  0.6073  3.8720
 9754SOL    HW240192   2.063   1.316   1.889 -1.5220 -0.3565 -1.4351
 9755SOL     OW40193   1.011   4.510   3.195  0.1050  0.1569  0.3792
 9755SOL    HW140194   0.930   4.541   3.145 -0.9840 -1.1530  1.3175
 9755SOL    HW240195   0.983   4.459   3.276  1.8585  1.9290  2.1556
 9756SOL     OW40196   4.262   8.461   4.880  0.0532  0.1518 -0.1158
 9756SOL    HW140197   4.292   8.455   4.785 -2.5752 -0.0006 -0.9870
 9756SOL    HW240198   4.162   8.474   4.883  0.1616  0.7532  2.6039
 9757SOL     OW40199   4.371   3.922   3.570 -0.0657 -0.0033 -0.1125
 9757SOL    HW140200   4.320   3.865   3.506 -0.2691 -0.9169  0.8527
 9757SOL    HW240201   4.308   3.984   3.617 -0.0481  0.0548 -0.1661
 9758SOL     OW40202   3.490   5.963   6.148 -0.3531 -0.1983 -0.2820
 9758SOL    HW140203   3.430   6.043   6.140  0.6670  0.9577  2.8288
 9758SOL    HW240204   3.564   5.970   6.082  0.1598  1.8560  0.4813
 9759SOL     OW40205   3.631   6.578   1.554  0.1525  0.0521 -0.1357
 9759SOL    HW140206   3.561   6.636   1.596 -0.4548 -0.9043  0.1804
 9759SOL    HW240207   3.718   6.626   1.554 -0.4909  1.2425 -0.5023
 9760SOL     OW40208   3.246   7.353   6.704  0.2105  0.0759  0.3256
 9760SOL    HW140209   3.191   7.365   6.787  0.3819 -2.1390  0.7710
 9760SOL    HW240210   3.343   7.354   6.728  0.2571 -0.7023  0.1676
 9761SOL     OW40211   0.380   1.506   1.731 -0.5087 -0.0816  0.7874
 9761SOL    HW140212   0.417   1.497   1.638  0.9538  0.7931  1.2806
 9761SOL    HW240213   0.371   1.603   1.754 -2.6092 -0.2647  0.9001
 9762SOL     OW40214   4.856   1.171   4.547  0.3074  0.1099 -0.8408
 9762SOL    HW140215   4.943   1.203   4.585 -0.5509  1.3811  0.0800
 9762SOL    HW240216   4.799   1.134   4.620  0.5773 -1.9433 -1.6378
 9763SOL     OW40217   0.656   1.552   4.615  0.2110  0.3755  0.0318
 9763SOL    HW140218   0.755   1.543   4.620  0.2743  1.1581  0.2966
 9763SOL    HW240219   0.628   1.556   4.519  0.4988  0.7441 -0.0389
 9764SOL     OW40220   8.683   4.858   1.950 -0.0970  0.5460  0.2187
 9764SOL    HW140221   8.698   4.950   1.985  0.8383  1.0436 -1.4450
 9764SOL    HW240222   8.644   4.863   1.857 -0.3163 -0.7305  0.2226
 9765SOL     OW40223   0.663   0.280   4.218 -0.3285 -0.3986 -0.5301
 9765SOL    HW140224   0.629   0.218   4.290  0.4124 -1.2619 -0.9164
 9765SOL    HW240225   0.737   0.335   4.255 -1.8938  1.2689  0.2227
 9766SOL     OW40226   7.896   4.756   1.541  0.7416  0.1107  0.3372
 9766SOL    HW140227   7.898   4.835   1.603  0.6344  0.2692  0.1399
 9766SOL    HW240228   7.843   4.683   1.583  1.5224 -0.1529  0.8729
 9767SOL     OW40229   3.370   1.807   1.610  0.1107 -0.5813  0.4006
 9767SOL    HW140230   3.405   1.895   1.579 -0.8275 -0.3944 -0.1280
 9767SOL    HW240231   3.436   1.766   1.673 -0.0125  1.0822  1.6496
 9768SOL     OW40232   7.700   1.308   0.861  0.3538 -0.4128 -0.5448
 9768SOL    HW140233   7.685   1.296   0.763  0.6925 -0.1979 -0.6262
 9768SOL    HW240234   7.767   1.241   0.893  2.6491  1.5420 -1.1073
 9769SOL     OW40235   7.148   0.918   3.894  0.1316 -0.2416  0.0417
 9769SOL    HW140236   7.211   0.958   3.828 -1.3709  1.0618 -0.6559
 9769SOL    HW240237   7.169   0.952   3.985 -1.2468  2.4212 -0.5651
 9770SOL     OW40238   2.377   6.367   2.423 -0.4417  0.3475  0.6455
 9770SOL    HW140239   2.325   6.380   2.507 -2.3383  0.8065 -0.5911
 9770SOL    HW240240   2.320   6.388   2.344  1.7252  1.2299 -0.7358
 9771SOL     OW40241   2.581   6.903   5.092 -0.2578 -0.3593 -0.5161
 9771SOL    HW140242   2.603   6.893   4.995 -0.1002 -0.7142 -0.4440
 9771SOL    HW240243   2.626   6.831   5.144 -1.4249 -0.9698 -0.3441
 9772SOL     OW40244   1.504   5.488   0.187  0.2041  0.1069  0.3431
 9772SOL    HW140245   1.449   5.405   0.196  1.7745 -0.8545  1.3052
 9772SOL    HW240246   1.530   5.499   0.091  1.7994 -1.7492  0.5175
 9773SOL     OW40247   1.441   4.067   6.340  0.2174  0.6401 -0.0365
 9773SOL    HW140248   1.446   4.024   6.250 -0.6072  1.6231 -0.5642
 9773SOL    HW240249   1.531   4.065   6.383  0.3153 -1.1010 -0.2728
 9774SOL     OW40250   8.575   0.659   0.188 -0.1016 -0.1363  0.5093
 9774SOL    HW140251   8.577   0.716   0.106 -1.6827 -0.0480  0.5236
 9774SOL    HW240252   8.504   0.589   0.178 -0.2739 -0.1492  1.7823
 9775SOL     OW40253   0.781   1.642   1.080  0.0834 -0.2437  0.4818
 9775SOL    HW140254   0.788   1.544   1.058 -1.3419 -0.8265  2.4345
 9775SOL    HW240255   0.774   1.653   1.179 -1.1512  1.7571  0.1945
 9776SOL     OW40256   0.334   7.416   4.079 -0.2198 -0.1741  0.5323
 9776SOL    HW140257   0.384   7.502   4.069 -1.0783  0.1784 -0.8067
 9776SOL    HW240258   0.240   7.435   4.109 -0.2929 -0.6687  0.6236
 9777SOL     OW40259   1.889   8.879   1.821  0.2857 -0.2454  0.3560
 9777SOL    HW140260   1.949   8.870   1.901  1.0636 -1.4797 -0.3525
 9777SOL    HW240261   1.830   8.798   1.814 -0.9459  0.6099  0.6103
 9778SOL     OW40262   3.528   1.178   4.521  0.5541  0.7479  0.3145
 9778SOL    HW140263   3.462   1.112   4.485  1.7705 -0.4806  0.2912
 9778SOL    HW240264   3.534   1.170   4.620  1.6880 -0.1108  0.1785
 9779SOL     OW40265   6.854   0.353   0.964  0.2709  0.1651 -0.3895
 9779SOL    HW140266   6.787   0.281   0.949  1.0339 -0.2396 -1.9684
 9779SOL    HW240267   6.885   0.351   1.060 -0.2412 -1.1331 -0.2512
 9780SOL     OW40268   2.357   5.537   0.429  0.6965  0.7902 -0.1910
 9780SOL    HW140269   2.274   5.481   0.432  0.8002  0.5341 -1.7053
 9780SOL    HW240270   2.390   5.551   0.522 -0.4403 -0.0074  0.3580
 9781SOL     OW40271   1.289   4.467   1.712  0.4474  0.0890  0.4713
 9781SOL    HW140272   1.370   4.519   1.685  0.1560  0.1788 -0.2447
 9781SOL    HW240273   1.313   4.370   1.725  0.5843  0.0472 -0.1237
 9782SOL     OW40274   3.820   6.559   1.237  0.1977  0.3518 -0.1431
 9782SOL    HW140275   3.771   6.631   1.287 -1.5426  0.2577 -1.6625
 9782SOL    HW240276   3.905   6.597   1.199  1.1863  0.6009  2.2349
 9783SOL     OW40277   5.284   9.389   4.293 -0.0293 -0.0362  0.4266
 9783SOL    HW140278   5.232   9.474   4.289  0.7858  0.5823  2.4602
 9783SOL    HW240279   5.292   9.358   4.388  1.4902 -1.2543 -0.0702
 9784SOL     OW40280   1.618   2.261   2.938  0.7141 -0.2793 -0.1954
 9784SOL    HW140281   1.570   2.349   2.951 -1.5154 -0.9166 -3.6277
 9784SOL    HW240282   1.601   2.203   3.017  0.7791  1.7164  1.3381
 9785SOL     OW40283   0.093   3.569   3.370  0.1429  0.2640  0.3412
 9785SOL    HW140284   0.058   3.493   3.316  0.6345  0.2925 -0.0144
 9785SOL    HW240285   0.079   3.550   3.467 -0.0748 -0.1104  0.2364
 9786SOL     OW40286   8.554   2.282   5.419  0.0580  1.0431 -0.4325
 9786SOL    HW140287   8.641   2.249   5.458 -0.9500 -1.5235 -0.2529
 9786SOL    HW240288   8.573   2.356   5.355  2.4233  0.3848 -0.5719
 9787SOL     OW40289   2.548   3.792   4.700  0.4018  0.5555  0.4213
 9787SOL    HW140290   2.610   3.869   4.688 -0.8432  1.3026 -1.5354
 9787SOL    HW240291   2.456   3.818   4.669  0.0932 -1.9013 -0.8190
 9788SOL     OW40292   5.455   1.346   4.135 -0.1095 -0.2810  0.5363
 9788SOL    HW140293   5.432   1.254   4.104 -2.0317  0.3019  0.1589
 9788SOL    HW240294   5.467   1.345   4.234  2.4757 -1.4294  0.2538
 9789SOL     OW40295   5.451   8.185   3.304 -0.2725 -0.1595  0.0169
 9789SOL    HW140296   5.515   8.189   3.228 -0.1709  1.0990  0.1533
 9789SOL    HW240297   5.479   8.115   3.369  2.0309  1.6520  1.0253
 9790SOL     OW40298   3.614   4.407   4.427 -0.1097  0.0746 -0.6292
 9790SOL    HW140299   3.659   4.439   4.344  0.2385 -0.6628 -0.7267
 9790SOL    HW240300   3.570   4.484   4.473  0.8074  0.7061 -0.8081
 9791SOL     OW40301   1.605   5.261   4.502 -0.9998 -0.5075 -0.0789
 9791SOL    HW140302   1.561   5.185   4.454 -1.9459 -0.3441  0.5275
 9791SOL    HW240303   1.614   5.239   4.599  0.1854 -0.5069 -0.1879
 9792SOL     OW40304   6.902   9.942   3.568  0.0520  0.2067  0.1094
 9792SOL    HW140305   6.871   9.986   3.652 -0.1613 -1.0892  0.7086
 9792SOL    HW240306   6.998   9.915   3.578 -0.1956 -0.6350  0.2178
 9793SOL     OW40307   9.776   7.561   2.653 -0.0795 -0.5952 -0.0039
 9793SOL    HW140308   9.713   7.563   2.575  0.8904 -2.4257 -0.8691
 9793SOL    HW240309   9.866   7.593   2.624  0.0903 -0.5534  0.5655
 9794SOL     OW40310   7.862   0.291   1.650  0.0044  0.7052 -0.2649
 9794SOL    HW140311   7.807   0.345   1.714 -1.1455 -0.0028 -0.6337
 9794SOL    HW240312   7.956   0.286   1.682 -0.3959  0.9936  0.9751
 9795SOL     OW40313   4.989   9.234   4.924 -0.4796  0.2133  0.6147
 9795SOL    HW140314   5.088   9.241   4.935 -0.6387  4.2586  0.2310
 9795SOL    HW240315   4.967   9.209   4.830  0.1584  1.9674 -0.0132
 9796SOL     OW40316   9.137   8.747   2.074 -0.2185  0.2901  0.5742
 9796SOL    HW140317   9.197   8.768   2.152  2.2415  1.5421 -1.5808
 9796SOL    HW240318   9.145   8.650   2.051  1.9926  0.6881 -0.4699
 9797SOL     OW40319   3.722   5.533   4.315 -0.2177 -0.0618 -0.5671
 9797SOL    HW140320   3.800   5.589   4.288 -0.0517  0.0659  0.1659
 9797SOL    HW240321   3.754   5.452   4.365 -0.4567 -0.8108 -1.5985
 9798SOL     OW40322   9.761   1.902   2.529 -0.1751  0.2576  0.1377
 9798SOL    HW140323   9.752   1.856   2.441 -0.7015  0.4631  0.0817
 9798SOL    HW240324   9.835   1.861   2.581 -0.4529 -0.4608 -0.0301
 9799SOL     OW40325   0.715   0.514   2.308  0.1852 -0.5820  0.2588
 9799SOL    HW140326   0.700   0.419   2.281  2.9877 -1.4007  1.4865
 9799SOL    HW240327   0.761   0.563   2.233 -0.6610 -0.3466 -0.1150
 9800SOL     OW40328   9.435   4.853   4.857  0.0562  0.3822 -0.0310
 9800SOL    HW140329   9.466   4.790   4.929  0.3622  1.8985  1.1910
 9800SOL    HW240330   9.347   4.822   4.822  0.5961 -1.1835 -0.0137
 9801SOL     OW40331   5.095   4.919   1.255  0.4429  0.1310 -0.1713
 9801SOL    HW140332   5.147   4.851   1.203 -0.3932  0.0626 -0.9395
 9801SOL    HW240333   5.007   4.935   1.210  0.5734  1.6220  0.0629
 9802SOL     OW40334   3.412   4.804   5.893  0.0607  0.1324  0.1719
 9802SOL    HW140335   3.318   4.791   5.922  0.5079 -2.7420  0.4085
 9802SOL    HW240336   3.469   4.823   5.973 -0.3352  2.1904 -0.0058
 9803SOL     OW40337   8.171   1.342   0.741 -0.3142 -0.0136 -0.2592
 9803SOL    HW140338   8.130   1.298   0.821  1.5166 -0.4286  0.4745
 9803SOL    HW240339   8.182   1.274   0.668  3.3679 -1.1182  1.1930
 9804SOL     OW40340   1.779   0.127   3.101 -0.8291 -0.2263 -0.3379
 9804SOL    HW140341   1.867   0.153   3.062 -1.5459  0.7859 -1.2802
 9804SOL    HW240342   1.724   0.081   3.032 -1.3918 -0.0730  0.0070
 9805SOL     OW40343   8.706   7.193   2.784  0.1718  0.0192  0.3151
 9805SOL    HW140344   8.620   7.241   2.767 -0.1440 -1.0564 -1.1507
 9805SOL    HW240345   8.774   7.258   2.818 -0.3435  1.4487 -1.3478
 9806SOL     OW40346   5.211   0.712   1.575  0.0870  0.3290  0.2834
 9806SOL    HW140347   5.116   0.706   1.605 -0.4463  0.5711 -1.2900
 9806SOL    HW240348   5.215   0.698   1.476  1.6343  0.8230  0.2686
 9807SOL     OW40349   8.306   6.437   6.710  0.0612 -0.1749  0.0433
 9807SOL    HW140350   8.334   6.518   6.659 -1.2097  1.7421  2.2942
 9807SOL    HW240351   8.384   6.377   6.723  1.1463  0.9436 -1.2105
 9808SOL     OW40352   8.559   5.066   3.294  0.2308 -0.0896 -0.5465
 9808SOL    HW140353   8.583   4.992   3.356 -0.3005 -0.2479 -0.5347
 9808SOL    HW240354   8.573   5.154   3.339  1.0445 -0.1756 -0.6232
 9809SOL     OW40355   2.910   6.960   3.697 -0.2713  0.3969  0.2715
 9809SOL    HW140356   2.976   6.928   3.765  1.0480 -0.1694 -1.2591
 9809SOL    HW240357   2.893   7.058   3.710  0.8956  0.5502  0.6403
 9810SOL     OW40358   6.131   8.585   2.313 -0.1337 -0.4600 -0.4638
 9810SOL    HW140359   6.076   8.645   2.254 -1.3472 -0.2430  0.8576
 9810SOL    HW240360   6.147   8.629   2.401 -0.0936 -1.6117  0.1226
 9811SOL     OW40361   3.555   5.939   2.223 -0.3955 -0.0158 -0.1926
 9811SOL    HW140362   3.616   5.987   2.161  1.3817 -1.4586  0.3908
 9811SOL    HW240363   3.528   6.000   2.298  1.9798  0.0327  0.6526
 9812SOL     OW40364   9.121   5.212   5.796 -0.2142 -0.0396 -0.1241
 9812SOL    HW140365   9.065   5.260   5.728 -0.9963  0.2981  0.7510
 9812SOL    HW240366   9.165   5.278   5.856  0.8240 -0.3217 -0.5707
 9813SOL     OW40367   7.688   0.431   1.787 -0.2601 -0.1713  0.2464
 9813SOL    HW140368   7.605   0.487   1.785 -0.7824 -0.9639 -0.5565
 9813SOL    HW240369   7.672   0.350   1.844  0.4991  0.4776  1.4214
 9814SOL     OW40370   1.764   7.381   5.218  0.1339 -0.2193 -0.0163
 9814SOL    HW140371   1.836   7.312   5.229  0.9751  0.6390 -0.0832
 9814SOL    HW240372   1.800   7.471   5.244 -0.3792  0.5027 -1.7678
 9815SOL     OW40373   7.721   0.866   2.347  0.3245  0.5796 -0.2685
 9815SOL    HW140374   7.665   0.827   2.420  1.2346  0.7641  0.5428
 9815SOL    HW240375   7.663   0.892   2.270 -0.5295 -0.5087  0.0026
 9816SOL     OW40376   2.381   4.201   2.913 -0.1424  0.0707  0.2504
 9816SOL    HW140377   2.428   4.205   2.825 -2.0063 -0.9416 -0.8368
 9816SOL    HW240378   2.355   4.293   2.941  2.0871  0.5876  0.6642
 9817SOL     OW40379   6.772   9.947   5.352 -0.0185  0.1643  0.0615
 9817SOL    HW140380   6.799   9.855   5.378 -1.4862  0.0550  1.2356
 9817SOL    HW240381   6.686   9.943   5.300 -1.4302  1.0295  2.2380
 9818SOL     OW40382   0.216   1.279   3.316 -0.0991  0.4150 -0.0176
 9818SOL    HW140383   0.206   1.225   3.399 -0.8550  0.4221 -0.0954
 9818SOL    HW240384   0.130   1.275   3.264  1.0698 -1.4184 -1.8994
 9819SOL     OW40385   4.682   9.292   4.635  0.0603 -0.3431  0.3440
 9819SOL    HW140386   4.596   9.293   4.583  0.2723  0.3520  0.0022
 9819SOL    HW240387   4.756   9.326   4.577  0.3541  0.1411  1.0040
 9820SOL     OW40388   2.693   1.362   1.870  0.3926 -0.4401  0.2494
 9820SOL    HW140389   2.787   1.394   1.880 -0.1736  2.0080 -1.7317
 9820SOL    HW240390   2.670   1.300   1.945  3.2333 -0.2344  1.3287
 9821SOL     OW40391   4.544   4.065   3.995  1.2808  0.1326  0.2903
 9821SOL    HW140392   4.498   4.060   4.084  0.2425  1.3514 -0.1533
 9821SOL    HW240393   4.521   3.984   3.942  1.6276 -0.4403  1.0025
 9822SOL     OW40394   7.078   9.486   4.952  0.3347 -0.6140  0.3412
 9822SOL    HW140395   7.102   9.547   5.028  1.5382 -1.1820  0.4166
 9822SOL    HW240396   7.091   9.534   4.866 -1.0093  0.0242  0.4700
 9823SOL     OW40397   1.854   9.554   1.646 -0.0492  0.1487 -0.3688
 9823SOL    HW140398   1.883   9.568   1.740 -1.3438  1.6778 -0.1571
 9823SOL    HW240399   1.790   9.627   1.620 -0.0963 -0.5302 -2.2644
 9824SOL     OW40400   1.612   1.041   3.230 -0.0158  0.4928 -0.6369
 9824SOL    HW140401   1.663   1.024   3.314  0.1170 -2.8859 -1.3535
 9824SOL    HW240402   1.516   1.015   3.244 -0.5700  2.3436 -0.7871
 9825SOL     OW40403   4.369   8.708   1.238  0.4893  0.5563  0.0223
 9825SOL    HW140404   4.415   8.651   1.170 -0.1794 -0.0037  0.0242
 9825SOL    HW240405   4.272   8.716   1.214 -0.0154 -0.6393  1.5277
 9826SOL     OW40406   8.675   6.899   2.351 -0.2000  0.4558 -0.0022
 9826SOL    HW140407   8.716   6.966   2.413  0.2230  0.8642 -0.7141
 9826SOL    HW240408   8.634   6.825   2.404 -0.4781  1.1681  0.7849
 9827SOL     OW40409   8.392   8.626   4.615  0.1391  0.1190 -0.1324
 9827SOL    HW140410   8.441   8.585   4.538 -3.1570 -0.8221 -1.8464
 9827SOL    HW240411   8.367   8.554   4.680  1.0497  0.5967  0.7507
 9828SOL     OW40412   4.070   5.402   2.148 -0.4514  0.2195  0.0145
 9828SOL    HW140413   4.104   5.362   2.233  0.6783 -0.5915 -0.8129
 9828SOL    HW240414   4.141   5.398   2.078 -0.6725  2.7205 -0.4156
 9829SOL     OW40415   1.840   8.228   0.313 -0.3928  0.4565 -0.1158
 9829SOL    HW140416   1.792   8.220   0.226 -0.1422 -0.6232 -0.1574
 9829SOL    HW240417   1.934   8.196   0.302  0.1116  1.7801  0.1709
 9830SOL     OW40418   3.908   0.361   3.030 -0.2597 -0.2797 -0.5919
 9830SOL    HW140419   3.906   0.408   3.118  0.2467  1.0858 -1.3051
 9830SOL    HW240420   3.831   0.391   2.974 -0.2692 -0.7436 -0.8325
 9831SOL     OW40421   2.024   7.603   3.470  0.1015  0.5099  0.2140
 9831SOL    HW140422   2.078   7.606   3.554 -0.5858 -0.1057  0.6871
 9831SOL    HW240423   1.945   7.544   3.484 -0.8836  1.6852 -0.3716
 9832SOL     OW40424   7.043   1.522   0.596  0.2811 -0.1755 -0.0334
 9832SOL    HW140425   7.120   1.575   0.631  0.0349 -0.6217  1.2112
 9832SOL    HW240426   7.043   1.526   0.496  1.7967 -0.0093 -0.0465
 9833SOL     OW40427   7.680   8.833   5.767  0.5478  0.2514 -0.4292
 9833SOL    HW140428   7.763   8.883   5.789  0.2545  0.8852 -0.7499
 9833SOL    HW240429   7.630   8.882   5.696  0.7196 -0.9559 -1.4115
 9834SOL     OW40430   9.919   9.565   3.392  0.0431  0.9365  0.3990
 9834SOL    HW140431   9.950   9.553   3.298  0.3554 -1.0675  0.7259
 9834SOL    HW240432   9.848   9.634   3.396  0.2569  1.2663 -1.2577
 9835SOL     OW40433   2.804   9.840   2.739  0.6769 -0.1991  0.1060
 9835SOL    HW140434   2.785   9.875   2.831 -2.6101  0.9476 -0.9285
 9835SOL    HW240435   2.814   9.740   2.743  0.8424 -0.1262  1.7446
 9836SOL     OW40436   3.167   0.345   4.211  0.7360  0.5543  0.6239
 9836SOL    HW140437   3.084   0.392   4.180  0.2854 -0.1571  0.7367
 9836SOL    HW240438   3.241   0.411   4.222 -0.4044  1.5258  2.5725
 9837SOL     OW40439   8.186   6.019   5.146 -0.1091  0.0108 -0.6744
 9837SOL    HW140440   8.224   6.013   5.238 -0.8602 -2.0797 -0.4894
 9837SOL    HW240441   8.090   6.048   5.150  0.1609  0.9727 -0.8851
 9838SOL     OW40442   5.789   9.312   1.640 -0.3690 -0.3319 -0.1214
 9838SOL    HW140443   5.856   9.242   1.663 -0.9567 -1.6925 -2.4231
 9838SOL    HW240444   5.832   9.381   1.582 -1.3090 -2.1105 -3.0444
 9839SOL     OW40445   2.943   9.572   2.203 -0.1924  0.0853 -0.0117
 9839SOL    HW140446   2.900   9.562   2.113 -0.1830  0.6784 -0.0870
 9839SOL    HW240447   2.879   9.543   2.274 -1.1393  1.9842 -0.0491
 9840SOL     OW40448   7.578   3.498   0.636  0.0472  0.1098  0.1231
 9840SOL    HW140449   7.523   3.415   0.635 -0.8409  0.6699  0.7251
 9840SOL    HW240450   7.662   3.483   0.688 -0.7065 -0.0595  1.3309
 9841SOL     OW40451   4.329   6.936   3.759  0.0019 -0.1373  0.2516
 9841SOL    HW140452   4.314   6.933   3.858  0.5937 -2.9331  0.2987
 9841SOL    HW240453   4.249   6.976   3.714 -1.3962 -1.2859  1.6673
 9842SOL     OW40454   1.879   5.467   5.128  0.1289  0.8257 -0.1083
 9842SOL    HW140455   1.958   5.411   5.105 -1.1004 -1.2920  0.7507
 9842SOL    HW240456   1.826   5.486   5.045  0.1078  0.0156 -0.2812
 9843SOL     OW40457   9.096   4.213   3.086 -0.6717  0.5290 -0.0130
 9843SOL    HW140458   9.091   4.300   3.037 -0.8299  0.3199 -0.3694
 9843SOL    HW240459   9.169   4.157   3.047  0.7710  1.2923  1.5053
 9844SOL     OW40460   5.504   7.339   3.179  0.0565  0.0026  0.2496
 9844SOL    HW140461   5.454   7.261   3.142  0.0789 -0.4319  1.1394
 9844SOL    HW240462   5.511   7.331   3.278  0.4878  0.8841  0.2971
 9845SOL     OW40463   1.923   6.801   6.719 -0.0664  0.1406 -0.7850
 9845SOL    HW140464   1.823   6.796   6.723  0.0072 -0.8546 -0.1026
 9845SOL    HW240465   1.955   6.879   6.773 -0.4567  0.3177 -0.8049
 9846SOL     OW40466   8.637   6.675   2.496 -0.2566 -0.0081 -0.0663
 9846SOL    HW140467   8.599   6.583   2.507  2.0946 -0.7298  2.5361
 9846SOL    HW240468   8.654   6.715   2.586 -1.4027  3.0902 -1.1541
 9847SOL     OW40469   1.288   4.424   6.120  0.4210 -1.0007 -0.0887
 9847SOL    HW140470   1.375   4.420   6.168  0.5608 -2.3457 -0.4050
 9847SOL    HW240471   1.216   4.453   6.182  0.5407 -3.0242  1.0563
 9848SOL     OW40472   0.064   5.556   3.408  0.2660  0.1659  0.2276
 9848SOL    HW140473   0.049   5.460   3.383 -0.7309  0.6500 -1.0904
 9848SOL    HW240474   0.005   5.579   3.485 -0.3494  0.0327 -0.1996
 9849SOL     OW40475   1.031   5.184   3.992 -0.2200  0.1697  0.1864
 9849SOL    HW140476   1.016   5.268   3.939 -0.3692 -0.2208 -0.3947
 9849SOL    HW240477   1.039   5.207   4.089 -1.8294  0.6767  0.2163
 9850SOL     OW40478   8.133   9.973   0.336  0.0714 -0.3463 -0.2262
 9850SOL    HW140479   8.042   9.990   0.299  0.0488 -1.7209 -0.8236
 9850SOL    HW240480   8.127   9.907   0.411  0.4939  0.0835  0.1907
 9851SOL     OW40481   0.673   0.636   1.201 -0.2051  0.2170  0.1337
 9851SOL    HW140482   0.671   0.662   1.297 -0.3650 -0.3433  0.2833
 9851SOL    HW240483   0.581   0.612   1.170 -0.2652  1.0435 -0.3400
 9852SOL     OW40484   5.977   1.374   0.671 -0.1214 -0.2567  0.3145
 9852SOL    HW140485   5.911   1.439   0.635 -0.4888  0.8164  2.8852
 9852SOL    HW240486   5.944   1.281   0.655  0.3046  0.1301 -3.1622
 9853SOL     OW40487   3.202   3.684   1.707  0.8657 -0.3397 -0.4469
 9853SOL    HW140488   3.229   3.632   1.788 -1.1625 -1.6090 -0.5511
 9853SOL    HW240489   3.152   3.624   1.644 -0.5947  1.4576 -1.0459
 9854SOL     OW40490   9.440   7.063   6.513  0.0469  0.3157  0.8413
 9854SOL    HW140491   9.502   7.099   6.583  0.9603  0.0977  0.1653
 9854SOL    HW240492   9.494   7.019   6.441 -0.9698 -0.7939  0.7529
 9855SOL     OW40493   2.725   7.759   0.129 -0.0192 -0.0480 -0.4347
 9855SOL    HW140494   2.642   7.734   0.080  0.0232  0.1075 -0.5870
 9855SOL    HW240495   2.804   7.714   0.087 -0.0758 -0.5348 -0.0283
 9856SOL     OW40496   0.745   5.391   4.587 -0.3942 -0.0064  0.6833
 9856SOL    HW140497   0.741   5.303   4.539 -2.1488 -0.9865  2.5095
 9856SOL    HW240498   0.693   5.384   4.673  0.8510  2.3175  1.6775
 9857SOL     OW40499   0.440   1.265   2.820 -0.0523 -0.4143 -0.6691
 9857SOL    HW140500   0.486   1.306   2.898 -0.7276 -0.5230 -0.2125
 9857SOL    HW240501   0.445   1.165   2.827  1.3653 -0.4369 -1.6474
 9858SOL     OW40502   9.962   6.789   2.528 -0.0299 -0.2330  0.3370
 9858SOL    HW140503   9.886   6.853   2.535  0.2540  0.1133  0.2319
 9858SOL    HW240504  10.032   6.825   2.467  1.8364  1.0614  3.1276
 9859SOL     OW40505   5.295   5.218   0.680  0.3810  0.2678 -0.6707
 9859SOL    HW140506   5.224   5.288   0.680 -1.9205 -1.9795  0.3563
 9859SOL    HW240507   5.356   5.232   0.758 -0.5011  0.6971 -0.0554
 9860SOL     OW40508   5.074   7.845   3.602 -0.0461 -0.3989  0.8754
 9860SOL    HW140509   5.162   7.797   3.604  0.6163  0.7763  0.5816
 9860SOL    HW240510   5.027   7.832   3.689  1.2786  0.5477  1.7426
 9861SOL     OW40511   6.712   1.346   5.394  0.0338 -0.3874 -0.4986
 9861SOL    HW140512   6.801   1.388   5.415 -0.2792 -0.4710  1.0974
 9861SOL    HW240513   6.710   1.318   5.298  1.7422 -0.4057 -0.5526
 9862SOL     OW40514   1.645   9.720   1.576  0.8114 -0.0114 -0.1494
 9862SOL    HW140515   1.618   9.744   1.669  1.3975 -0.6335  0.1803
 9862SOL    HW240516   1.675   9.802   1.528  3.0608 -0.1018  1.0553
 9863SOL     OW40517   2.949   5.776   2.087  0.4716 -0.3406  0.2252
 9863SOL    HW140518   2.886   5.702   2.108  2.5394 -1.3737  3.0897
 9863SOL    HW240519   2.950   5.842   2.162 -0.3751  1.9515 -1.7197
 9864SOL     OW40520   2.105   5.032   3.069 -0.1350  0.1039  0.1177
 9864SOL    HW140521   2.188   5.038   3.015 -0.6125 -0.4405 -0.6849
 9864SOL    HW240522   2.026   5.056   3.013 -0.8244 -2.2410  0.0390
 9865SOL     OW40523   0.143   7.788   4.387 -0.4869  0.3159  0.2402
 9865SOL    HW140524   0.170   7.868   4.440 -2.4606 -0.1108  1.9605
 9865SOL    HW240525   0.116   7.818   4.295 -0.0757  1.4670  0.4755
 9866SOL     OW40526   2.995   3.504   3.803 -0.1548 -0.7580  0.0905
 9866SOL    HW140527   2.969   3.476   3.710 -2.1255  1.4866 -0.0734
 9866SOL    HW240528   3.090   3.480   3.819  0.3542 -0.7855 -2.6963
 9867SOL     OW40529   3.651   5.219   6.144 -0.5478 -0.4496  0.0340
 9867SOL    HW140530   3.725   5.276   6.180  1.2701 -2.2826 -0.7218
 9867SOL    HW240531   3.673   5.193   6.050 -1.6900 -1.8517  0.1505
 9868SOL     OW40532   0.830   9.732   4.530 -0.7667 -0.1269  0.0907
 9868SOL    HW140533   0.789   9.728   4.621 -0.9559 -1.3854 -0.0435
 9868SOL    HW240534   0.929   9.715   4.537 -0.3898  1.9979  0.3064
 9869SOL     OW40535   8.506   8.826   1.817 -0.3639 -0.0892 -0.1788
 9869SOL    HW140536   8.528   8.844   1.721 -1.8301  1.8021 -0.1860
 9869SOL    HW240537   8.463   8.737   1.825 -0.1487 -0.2972 -1.2620
 9870SOL     OW40538   1.340   5.377   1.628 -0.1197  0.0876 -0.3545
 9870SOL    HW140539   1.339   5.291   1.678  1.2557  1.0973  1.4716
 9870SOL    HW240540   1.265   5.435   1.659  0.3494  0.4566  0.1159
 9871SOL     OW40541   9.835   2.352   2.233 -0.2751  0.1023  0.0258
 9871SOL    HW140542   9.762   2.301   2.188 -0.0891 -0.7955  0.7204
 9871SOL    HW240543   9.797   2.402   2.311 -0.1347 -0.4523  0.4533
 9872SOL     OW40544   4.904   1.614   4.101 -0.3205 -0.0047 -0.0968
 9872SOL    HW140545   4.984   1.562   4.070 -1.5837 -1.6322 -0.6669
 9872SOL    HW240546   4.821   1.561   4.085 -1.2935  0.3793  3.2313
 9873SOL     OW40547   0.441   7.145   0.889 -0.4444  0.0507  0.1437
 9873SOL    HW140548   0.386   7.203   0.829 -1.8070 -2.1312 -0.7971
 9873SOL    HW240549   0.538   7.168   0.878 -0.8232  0.9357 -1.5117
 9874SOL     OW40550   0.455   6.204   3.816 -0.1139 -0.0519  0.6938
 9874SOL    HW140551   0.366   6.238   3.846 -0.5200 -1.0583  0.6261
 9874SOL    HW240552   0.519   6.281   3.808 -1.1509  0.7585  0.1154
 9875SOL     OW40553   0.576   8.372   2.585 -0.7851 -0.1572 -0.1357
 9875SOL    HW140554   0.659   8.335   2.628  0.6441  2.8917 -0.1866
 9875SOL    HW240555   0.511   8.396   2.657 -1.2038 -1.5030 -0.0442
 9876SOL     OW40556   1.219   7.344   4.959  0.3110 -0.6151  0.7308
 9876SOL    HW140557   1.131   7.331   4.913  1.4309 -1.5560 -1.2456
 9876SOL    HW240558   1.293   7.327   4.894  1.9816 -2.4565  3.0049
 9877SOL     OW40559   2.430   4.232   0.770  0.2415 -0.1788 -0.4386
 9877SOL    HW140560   2.471   4.323   0.771 -0.7869  0.3088 -1.0938
 9877SOL    HW240561   2.336   4.237   0.806  0.4495 -1.1167  0.2621
 9878SOL     OW40562   9.877   2.950   3.734 -0.3796  0.3641  0.2834
 9878SOL    HW140563   9.804   2.994   3.682 -2.5302 -2.1491  1.0593
 9878SOL    HW240564   9.909   2.869   3.685 -0.3524 -0.3269  1.4125
 9879SOL     OW40565   7.657   3.093   2.944 -0.4537 -0.5920 -0.1408
 9879SOL    HW140566   7.748   3.094   2.901 -1.5012 -2.5557 -2.5021
 9879SOL    HW240567   7.667   3.072   3.042  1.7123  0.4773 -0.0893
 9880SOL     OW40568   0.532   8.040   1.162  0.3292 -0.6639  0.2329
 9880SOL    HW140569   0.482   8.040   1.076  0.3085  0.9375  0.2298
 9880SOL    HW240570   0.470   8.015   1.237 -0.0741 -0.3068  0.0172
 9881SOL     OW40571   9.732   1.154   2.792 -0.4562  1.0976  0.4800
 9881SOL    HW140572   9.662   1.147   2.721  0.0276  0.3274  0.0752
 9881SOL    HW240573   9.698   1.113   2.876  0.1557 -0.9200 -0.2204
 9882SOL     OW40574   0.797   3.563   2.236  0.1084  0.7134  0.3190
 9882SOL    HW140575   0.893   3.537   2.247  0.4893  2.0007  0.1468
 9882SOL    HW240576   0.791   3.645   2.180 -1.3052 -1.0114 -2.1428
 9883SOL     OW40577   3.744   6.949   2.482 -0.4008  0.2217 -0.5505
 9883SOL    HW140578   3.676   6.986   2.546  1.0941  0.4729  0.9223
 9883SOL    HW240579   3.834   6.946   2.527  0.1369 -2.1965 -1.7057
 9884SOL     OW40580   4.070   0.548   3.826 -0.5693  0.2072 -0.3240
 9884SOL    HW140581   4.113   0.472   3.778  3.0227  1.1595  1.1864
 9884SOL    HW240582   4.113   0.634   3.798 -1.6771  1.2495  1.0622
 9885SOL     OW40583   6.578   8.954   4.906 -0.6208 -0.7641  0.2844
 9885SOL    HW140584   6.565   9.012   4.826  1.0351 -1.4872 -0.5438
 9885SOL    HW240585   6.491   8.910   4.931 -1.1382 -0.5513 -1.1391
 9886SOL     OW40586   9.652   3.489   1.116 -0.0069 -0.1038 -0.1134
 9886SOL    HW140587   9.584   3.550   1.155  1.3456  1.9675 -0.9047
 9886SOL    HW240588   9.688   3.529   1.032  0.4772 -2.2932 -0.9753
 9887SOL     OW40589   5.367   7.701   1.489 -0.6152  0.3821  0.2118
 9887SOL    HW140590   5.381   7.785   1.540  0.0885  0.5967 -0.3318
 9887SOL    HW240591   5.440   7.636   1.511 -0.7054  0.2176  0.0265
 9888SOL     OW40592   0.840   2.859   5.482 -0.0808  0.1412  0.0248
 9888SOL    HW140593   0.813   2.949   5.447 -2.3983 -0.1335  1.0247
 9888SOL    HW240594   0.759   2.808   5.509  1.3406 -1.5163  1.2816
 9889SOL     OW40595   2.596   8.311   2.813 -0.1915 -0.7272 -0.0135
 9889SOL    HW140596   2.510   8.334   2.767  0.1369 -0.1203 -0.3359
 9889SOL    HW240597   2.665   8.380   2.791  0.6862 -1.7874 -0.6100
 9890SOL     OW40598   5.528   7.844   5.446  0.0424 -0.1297  0.6824
 9890SOL    HW140599   5.429   7.852   5.453 -0.0120 -0.9341  0.9259
 9890SOL    HW240600   5.569   7.859   5.536  0.1185 -0.0906  0.6413
 9891SOL     OW40601   0.379   3.921   3.549  0.2514 -0.5507  0.3160
 9891SOL    HW140602   0.310   3.856   3.579  0.5656 -1.3580 -0.6904
 9891SOL    HW240603   0.356   3.957   3.459  1.3329 -1.1150 -0.1951
 9892SOL     OW40604   0.426   8.819   3.858  0.1953  0.3090  0.0277
 9892SOL    HW140605   0.494   8.783   3.923  1.3296 -0.9322 -1.8177
 9892SOL    HW240606   0.425   8.919   3.864 -0.2127  0.2138  2.4191
 9893SOL     OW40607   8.588   8.486   4.454  0.4201 -0.2538 -0.0987
 9893SOL    HW140608   8.644   8.502   4.535 -0.7184  1.6226  0.3627
 9893SOL    HW240609   8.645   8.455   4.379  1.6357 -1.0660  1.1449
 9894SOL     OW40610   5.872   8.321   3.628 -0.1802  0.5033  0.3791
 9894SOL    HW140611   5.865   8.223   3.647  1.2245  0.0900 -1.0462
 9894SOL    HW240612   5.875   8.372   3.714 -0.4467 -0.7341  1.1390
 9895SOL     OW40613   2.585   2.224   2.390 -0.3507 -0.3618  0.3133
 9895SOL    HW140614   2.610   2.132   2.420 -3.1946 -1.0378  0.8109
 9895SOL    HW240615   2.560   2.221   2.293  0.8639  0.1688 -0.0203
 9896SOL     OW40616   5.031   2.970   2.773  0.4014 -0.8762 -0.5988
 9896SOL    HW140617   4.957   3.035   2.757  1.3846  0.0859 -1.3034
 9896SOL    HW240618   4.998   2.895   2.830 -1.2214 -0.6576 -1.2197
 9897SOL     OW40619   4.087   1.492   3.613 -0.2857  0.7577 -0.4526
 9897SOL    HW140620   4.115   1.587   3.625 -1.6086  1.0010  0.8061
 9897SOL    HW240621   4.019   1.486   3.540 -1.9644  1.1297  1.0538
 9898SOL     OW40622   4.490   7.772   1.855  0.2907  0.4579 -0.3995
 9898SOL    HW140623   4.465   7.759   1.951  0.9684 -0.8975 -0.3931
 9898SOL    HW240624   4.425   7.834   1.811 -1.8941 -1.3900  0.1400
 9899SOL     OW40625   9.828   6.434   2.309  0.2449 -0.1523 -0.2565
 9899SOL    HW140626   9.823   6.526   2.270  1.1107 -0.4241 -1.0309
 9899SOL    HW240627   9.896   6.434   2.383 -0.2958  0.0011  0.2454
 9900SOL     OW40628   2.022   3.056   4.851  0.2408  0.3278  0.7709
 9900SOL    HW140629   2.044   3.121   4.924 -0.2135 -0.0892  1.2786
 9900SOL    HW240630   2.022   2.963   4.887  1.5031 -0.0252 -0.0956
 9901SOL     OW40631   4.259   1.773   1.568  0.5454  0.2113 -0.9593
 9901SOL    HW140632   4.203   1.691   1.582 -0.0749  0.5332 -1.5528
 9901SOL    HW240633   4.243   1.809   1.477  3.6124 -1.1376 -2.0838
 9902SOL     OW40634   2.283   8.002   4.170 -0.2009 -0.2980 -0.2058
 9902SOL    HW140635   2.302   7.905   4.181  0.5841 -0.1695 -0.3990
 9902SOL    HW240636   2.209   8.014   4.104 -0.8861 -0.7975  0.4601
 9903SOL     OW40637   1.682   7.017   4.995  0.3304  0.3123  0.3904
 9903SOL    HW140638   1.776   7.045   5.017  0.5153 -1.2594  1.7636
 9903SOL    HW240639   1.685   6.936   4.937 -0.1776  0.2730  0.4214
 9904SOL     OW40640   5.380   1.128   5.018 -0.1040  0.1342 -0.4629
 9904SOL    HW140641   5.302   1.068   5.002  1.2350 -2.4366  2.2127
 9904SOL    HW240642   5.366   1.180   5.103  0.1849  1.2556 -1.0811
 9905SOL     OW40643   9.560   7.421   0.085  0.7299 -0.1605  0.0932
 9905SOL    HW140644   9.566   7.334   0.035  1.5669 -0.5314  0.8253
 9905SOL    HW240645   9.485   7.417   0.150 -0.1266  0.1863 -0.8613
 9906SOL     OW40646   8.813   5.453   5.879  0.2001  0.1740  0.3867
 9906SOL    HW140647   8.735   5.515   5.880  0.7096  0.8345 -0.5355
 9906SOL    HW240648   8.864   5.461   5.965  0.8322  1.7495 -0.1323
 9907SOL     OW40649   6.896   9.090   2.746  0.2640 -0.2644  0.0988
 9907SOL    HW140650   6.888   9.042   2.833 -1.5242 -0.2852 -0.0595
 9907SOL    HW240651   6.869   9.028   2.672 -2.1464  0.9616 -0.0995
 9908SOL     OW40652   4.542   4.742   3.600 -1.1774  0.1983 -0.2980
 9908SOL    HW140653   4.615   4.718   3.536  0.2730  2.0979  0.5778
 9908SOL    HW240654   4.560   4.697   3.688 -0.9788  0.7484 -0.0514
 9909SOL     OW40655   1.332   3.090   0.625 -0.1184  0.1824 -0.3077
 9909SOL    HW140656   1.414   3.055   0.670 -0.2590  0.3646  0.0969
 9909SOL    HW240657   1.303   3.175   0.670 -0.2074  0.4162 -0.8063
 9910SOL     OW40658   0.879   4.597   6.009 -0.9489 -0.1880 -0.3299
 9910SOL    HW140659   0.785   4.628   6.025 -0.5272  0.5815  0.7395
 9910SOL    HW240660   0.879   4.520   5.945 -2.2421  0.3078 -0.9459
 9911SOL     OW40661   3.076   3.530   2.874 -0.3440 -0.2946  0.3846
 9911SOL    HW140662   3.120   3.605   2.924  0.5108 -1.0944  0.8780
 9911SOL    HW240663   3.090   3.542   2.776 -0.8586  0.5784  0.4117
 9912SOL     OW40664   4.711   3.328   2.506 -0.0296 -0.0135  0.2378
 9912SOL    HW140665   4.774   3.377   2.446  0.9013 -0.5713  0.7537
 9912SOL    HW240666   4.617   3.342   2.474  0.2380  2.0070  0.3165
 9913SOL     OW40667   2.068   8.965   4.122 -0.3216  0.3590 -0.1440
 9913SOL    HW140668   1.996   8.925   4.179  0.0775  1.6469  1.3042
 9913SOL    HW240669   2.033   9.048   4.078  0.9836  2.4309  2.5748
 9914SOL     OW40670   0.509   0.213   4.692  0.6718  0.1957  0.3894
 9914SOL    HW140671   0.444   0.253   4.756  0.5575  1.0662 -0.2678
 9914SOL    HW240672   0.563   0.143   4.739 -1.8136 -1.6761  0.5554
 9915SOL     OW40673   8.054   6.185   3.797 -0.1067 -0.7933 -0.3428
 9915SOL    HW140674   7.997   6.107   3.822 -0.2767 -0.3814  0.5816
 9915SOL    HW240675   8.148   6.169   3.828 -0.4589  0.0062  1.1848
 9916SOL     OW40676   5.354   3.862   6.644 -0.4169 -0.5263  0.5571
 9916SOL    HW140677   5.452   3.866   6.625 -0.6542 -0.1604 -0.5843
 9916SOL    HW240678   5.337   3.901   6.735  0.5661 -1.1974  1.0432
 9917SOL     OW40679   2.286   1.072   3.303  0.2315 -0.3120 -0.0154
 9917SOL    HW140680   2.275   0.975   3.323  0.0230 -0.1851  0.4852
 9917SOL    HW240681   2.269   1.088   3.206  0.0123 -0.7358 -0.0492
 9918SOL     OW40682   6.956   8.711   5.667  0.7304  0.7427 -0.0638
 9918SOL    HW140683   6.914   8.800   5.651 -0.3054  0.0067 -1.5384
 9918SOL    HW240684   6.932   8.649   5.592 -0.9279 -1.6321  2.3378
 9919SOL     OW40685   9.741   3.601   5.170  0.1250 -0.4445 -0.2580
 9919SOL    HW140686   9.767   3.541   5.094  2.1158 -0.2268  0.2137
 9919SOL    HW240687   9.699   3.684   5.133 -0.8290 -1.2528 -1.0138
 9920SOL     OW40688   3.560   4.140   2.707  0.4335 -0.1937 -0.1291
 9920SOL    HW140689   3.604   4.095   2.629  2.7171 -0.4604  1.2444
 9920SOL    HW240690   3.602   4.229   2.722 -1.2857  0.6757 -0.3236
 9921SOL     OW40691   2.347   7.863   1.830 -0.7500  0.4791  0.4030
 9921SOL    HW140692   2.421   7.916   1.787 -0.3566 -1.6399 -1.6460
 9921SOL    HW240693   2.259   7.895   1.795 -0.7716  2.2443  1.9911
 9922SOL     OW40694   2.762   3.952   6.578  0.5718 -0.5433  0.3053
 9922SOL    HW140695   2.827   3.955   6.503  1.8467 -0.7945  1.3771
 9922SOL    HW240696   2.703   3.872   6.569  0.2164 -0.1612 -0.8220
 9923SOL     OW40697   1.560   3.776   1.591  0.2634 -0.2387  0.3248
 9923SOL    HW140698   1.608   3.699   1.550 -0.5835  0.0314 -1.1854
 9923SOL    HW240699   1.462   3.770   1.571 -0.0760  0.2610  1.7292
 9924SOL     OW40700   8.194   9.779   4.594 -0.0232 -0.3718  0.4178
 9924SOL    HW140701   8.266   9.796   4.527 -1.5040  1.4602 -0.7616
 9924SOL    HW240702   8.186   9.680   4.610  3.6618 -0.5150  1.6443
 9925SOL     OW40703   0.922   8.089   5.410  0.1552 -0.4507 -0.0494
 9925SOL    HW140704   0.931   8.025   5.334 -0.1278 -0.4962 -0.0468
 9925SOL    HW240705   0.873   8.171   5.379 -1.3306 -1.1273  0.4636
 9926SOL     OW40706   1.912   4.561   4.102 -0.3151  0.0622 -0.0380
 9926SOL    HW140707   1.873   4.594   4.016  2.7532  0.4361 -1.3512
 9926SOL    HW240708   2.006   4.595   4.112  0.5526 -2.6543  1.8687
 9927SOL     OW40709   3.360   0.469   3.312  0.0250  0.1921  0.2866
 9927SOL    HW140710   3.286   0.536   3.307 -0.0808 -0.0281 -1.4555
 9927SOL    HW240711   3.447   0.514   3.293  0.1254  0.0930  0.5036
 9928SOL     OW40712   3.283   3.498   3.604 -0.0597 -0.3729 -0.2158
 9928SOL    HW140713   3.198   3.502   3.552 -1.3645 -2.9256  1.5743
 9928SOL    HW240714   3.360   3.485   3.542 -0.8916  2.1137 -1.8769
 9929SOL     OW40715   9.183   4.784   3.716  0.0740 -0.2085  0.1705
 9929SOL    HW140716   9.160   4.735   3.800 -1.6233  1.3707  0.6644
 9929SOL    HW240717   9.209   4.718   3.645 -1.0768 -1.7557  1.1371
 9930SOL     OW40718   6.421   0.412   2.384  0.0216  0.0814 -0.0734
 9930SOL    HW140719   6.488   0.477   2.347  0.6377  0.1838  1.1970
 9930SOL    HW240720   6.330   0.453   2.384 -0.2413 -0.3926 -2.7066
 9931SOL     OW40721   5.205   6.716   2.528 -0.0130 -0.1145 -0.2021
 9931SOL    HW140722   5.125   6.753   2.481  0.1357  0.3054 -0.1242
 9931SOL    HW240723   5.288   6.756   2.490  0.4269 -3.3339 -2.9100
 9932SOL     OW40724   5.890   3.796   0.419  0.5193 -0.1175 -0.1002
 9932SOL    HW140725   5.914   3.699   0.430  0.8004 -0.0015  0.2917
 9932SOL    HW240726   5.877   3.838   0.508  0.5170  0.2394 -0.2675
 9933SOL     OW40727   9.366   6.191   5.342 -0.3843  0.2066  0.0425
 9933SOL    HW140728   9.380   6.277   5.294 -0.1270  0.5786  0.7949
 9933SOL    HW240729   9.297   6.137   5.293  0.6280  0.1352 -1.3342
 9934SOL     OW40730   4.086   6.129   0.676 -0.6804  0.5157 -0.1756
 9934SOL    HW140731   4.098   6.047   0.621 -1.8774 -0.0143  0.3467
 9934SOL    HW240732   4.002   6.176   0.649 -1.4461  0.0890  1.3680
 9935SOL     OW40733   9.570   4.760   6.603  0.0297  0.0965 -0.0485
 9935SOL    HW140734   9.506   4.702   6.653 -0.0714 -0.2675 -0.5986
 9935SOL    HW240735   9.528   4.849   6.586 -0.6094 -0.3825 -1.0305
 9936SOL     OW40736   6.191   3.947   0.071 -0.1773  0.0135 -0.7273
 9936SOL    HW140737   6.237   3.979   0.154 -0.5685 -1.0055 -0.1197
 9936SOL    HW240738   6.260   3.930  -0.000  0.1313  1.1869 -0.7260
 9937SOL     OW40739   9.589   6.350   0.599  0.3580  0.2688  0.2887
 9937SOL    HW140740   9.593   6.286   0.675  1.5915 -1.0500 -0.8751
 9937SOL    HW240741   9.495   6.384   0.590 -0.2939 -1.2959  0.9730
 9938SOL     OW40742   9.228   5.639   4.554 -0.1917  0.3397 -0.2897
 9938SOL    HW140743   9.203   5.647   4.457 -0.8496 -0.0189 -0.1537
 9938SOL    HW240744   9.175   5.565   4.596  0.6092  0.0198  0.1775
 9939SOL     OW40745   9.902   5.524   1.161 -0.3846 -0.0204 -0.2381
 9939SOL    HW140746   9.999   5.533   1.137 -0.2177  0.1396  0.5019
 9939SOL    HW240747   9.846   5.560   1.087  0.1213 -0.0806 -0.6539
 9940SOL     OW40748   0.333   2.964   4.405 -1.2077  0.2994  0.0027
 9940SOL    HW140749   0.390   2.981   4.324 -2.6971 -1.1390 -1.3797
 9940SOL    HW240750   0.393   2.952   4.485  0.2632  2.0966 -0.7774
 9941SOL     OW40751   0.622   8.657   2.900 -0.4260 -0.0813  0.4491
 9941SOL    HW140752   0.591   8.726   2.966 -0.3638  1.5681 -1.1742
 9941SOL    HW240753   0.687   8.700   2.837 -0.5343 -1.5987 -0.7115
 9942SOL     OW40754   7.006   1.719   4.726 -0.4537  0.7574  0.0990
 9942SOL    HW140755   6.939   1.695   4.656 -1.0334 -1.6071  1.3961
 9942SOL    HW240756   7.089   1.665   4.713 -0.2721  0.8690  0.7728
 9943SOL     OW40757   8.645   5.605   4.819  0.0464  0.0012 -0.9724
 9943SOL    HW140758   8.561   5.555   4.800  0.3924 -0.3905 -1.5048
 9943SOL    HW240759   8.626   5.703   4.824 -0.7922 -0.2496  1.0107
 9944SOL     OW40760   0.300   4.816   0.329 -0.5774  0.0658 -0.0312
 9944SOL    HW140761   0.383   4.813   0.274 -0.3814  2.1730  0.1199
 9944SOL    HW240762   0.233   4.876   0.285 -1.1507  0.2118  1.0293
 9945SOL     OW40763   2.222   8.340   5.670  0.3892 -0.0460 -0.1391
 9945SOL    HW140764   2.148   8.312   5.609  0.4888 -0.9723  0.1597
 9945SOL    HW240765   2.191   8.333   5.765 -0.1932  2.6049 -0.0910
 9946SOL     OW40766   6.914   0.349   2.370 -0.2047  0.0991  0.3331
 9946SOL    HW140767   6.874   0.259   2.353 -0.9042  0.1646  1.6030
 9946SOL    HW240768   6.875   0.388   2.454 -1.0410  2.2592 -1.0348
 9947SOL     OW40769   1.698   3.829   5.139  0.0943 -0.4453 -0.5523
 9947SOL    HW140770   1.609   3.865   5.111 -0.3320 -0.0960  1.1929
 9947SOL    HW240771   1.698   3.729   5.129 -0.5216 -0.4550 -0.4726
 9948SOL     OW40772   9.955   3.038   2.474  0.3503  0.4808 -0.9331
 9948SOL    HW140773   9.979   3.118   2.528 -0.9089  0.3170 -0.1082
 9948SOL    HW240774   9.946   3.064   2.378 -0.0569  1.3226 -0.6703
 9949SOL     OW40775   9.548   2.781   2.538 -0.4569  0.0256 -0.7149
 9949SOL    HW140776   9.549   2.689   2.499 -1.5960  0.0939 -0.9129
 9949SOL    HW240777   9.522   2.847   2.467  1.2915  0.6268 -0.8210
 9950SOL     OW40778   4.970   3.072   0.698  0.2277  0.5315 -0.2481
 9950SOL    HW140779   4.890   3.132   0.706  0.1868  0.4048  0.2965
 9950SOL    HW240780   5.050   3.126   0.672  0.4548  1.0178  1.4078
 9951SOL     OW40781   8.233   3.908   4.027  0.0220 -0.1933  0.7082
 9951SOL    HW140782   8.177   3.829   4.052  0.5521 -0.8907 -0.2644
 9951SOL    HW240783   8.216   3.983   4.091 -2.6320 -0.1078 -0.0267
 9952SOL     OW40784   0.150   3.852   1.115  0.4716 -0.7019  0.3081
 9952SOL    HW140785   0.085   3.777   1.108  1.2232 -1.4180  0.8823
 9952SOL    HW240786   0.173   3.866   1.212 -0.1317  0.6737  0.2673
 9953SOL     OW40787   1.626   0.182   3.400  0.2367  0.1907  0.4116
 9953SOL    HW140788   1.613   0.194   3.302 -0.5457 -0.7049  0.4017
 9953SOL    HW240789   1.683   0.101   3.416 -1.8073 -1.1874  0.7873
 9954SOL     OW40790   3.158   4.318   1.401  0.1525  0.7428  0.4027
 9954SOL    HW140791   3.244   4.269   1.414 -0.1008  0.7891  2.3609
 9954SOL    HW240792   3.117   4.337   1.490 -1.3599  1.6583 -0.4781
 9955SOL     OW40793   0.991   0.118   2.654 -0.8340 -0.1755  0.6458
 9955SOL    HW140794   0.895   0.100   2.675 -1.1759  0.5925 -0.2354
 9955SOL    HW240795   1.022   0.054   2.584 -0.6603 -0.5174  1.0342
 9956SOL     OW40796   2.390   2.402   0.798 -0.1105 -0.5843 -0.4436
 9956SOL    HW140797   2.324   2.349   0.745  0.2340 -1.3974 -0.0610
 9956SOL    HW240798   2.354   2.494   0.814  0.7706  0.4940 -4.1631
 9957SOL     OW40799   9.215   2.656   2.936  0.4674 -0.4666 -0.5296
 9957SOL    HW140800   9.263   2.574   2.906 -1.7233 -1.4784 -1.3681
 9957SOL    HW240801   9.222   2.726   2.865 -1.2346 -1.4308 -1.6862
 9958SOL     OW40802   8.735   2.876   1.815  0.4496  0.2109  0.1597
 9958SOL    HW140803   8.638   2.892   1.799  0.2617 -0.8097  0.2283
 9958SOL    HW240804   8.775   2.830   1.735  0.6931 -0.1226  0.4704
 9959SOL     OW40805   9.690   7.237   6.062  0.6970  0.4805  0.1526
 9959SOL    HW140806   9.596   7.225   6.030  0.5369  1.5330  0.1990
 9959SOL    HW240807   9.725   7.150   6.095  0.5898 -0.4317 -2.1176
 9960SOL     OW40808   7.027   8.208   1.825  0.7906  0.2615 -0.2753
 9960SOL    HW140809   7.045   8.110   1.833 -2.6656 -0.6520 -2.6067
 9960SOL    HW240810   6.988   8.242   1.910  2.9833 -0.1199  0.9099
 9961SOL     OW40811   7.306   8.807   5.489 -0.4712 -0.0930  0.4314
 9961SOL    HW140812   7.307   8.738   5.562 -0.3721  0.9049  1.3853
 9961SOL    HW240813   7.242   8.880   5.514  0.5131  0.8833  0.1038
 9962SOL     OW40814   3.901   4.661   2.248 -0.6276  0.0829 -0.2942
 9962SOL    HW140815   3.950   4.663   2.161  0.3727  2.2685  0.2884
 9962SOL    HW240816   3.825   4.597   2.242 -1.2020  0.9718 -3.1087
 9963SOL     OW40817   2.870   7.092   4.179  0.1996 -0.2203  0.0101
 9963SOL    HW140818   2.785   7.127   4.140 -0.8903 -1.7825  0.9157
 9963SOL    HW240819   2.872   7.111   4.277  0.8969 -0.1726 -0.0130
 9964SOL     OW40820   8.680   3.000   3.978  0.1730 -0.0773  0.1055
 9964SOL    HW140821   8.735   3.058   3.917 -2.5690  2.3957 -0.0777
 9964SOL    HW240822   8.702   3.022   4.073  0.7489 -0.3723  0.0503
 9965SOL     OW40823   3.517   7.228   1.501 -0.3948 -0.2608  1.0750
 9965SOL    HW140824   3.493   7.155   1.437 -0.3741  0.8850 -0.2716
 9965SOL    HW240825   3.447   7.234   1.572 -1.0527 -0.7625  0.4757
 9966SOL     OW40826   5.226   5.237   2.171  0.4072 -0.0156  0.0005
 9966SOL    HW140827   5.298   5.295   2.210 -0.1155  1.3533 -1.0458
 9966SOL    HW240828   5.256   5.201   2.083  0.9267 -1.7615  0.8734
 9967SOL     OW40829   2.482   5.601   6.291  0.0813  0.6908 -0.2891
 9967SOL    HW140830   2.567   5.578   6.242  0.0267 -0.5168  0.1657
 9967SOL    HW240831   2.437   5.677   6.245  1.7182  1.7509 -0.1996
 9968SOL     OW40832   4.423   1.205   1.966 -0.1231  0.4050  0.1486
 9968SOL    HW140833   4.345   1.229   2.024 -1.8749  1.0095 -2.3677
 9968SOL    HW240834   4.391   1.166   1.880  2.2788  1.7907 -1.4735
 9969SOL     OW40835   8.688   5.081   1.623 -0.2325 -0.0684 -0.2344
 9969SOL    HW140836   8.781   5.043   1.630  0.3105  1.3802  0.4798
 9969SOL    HW240837   8.690   5.178   1.648 -1.7391  0.2572 -1.3714
 9970SOL     OW40838   9.971   6.203   6.583 -0.8684 -0.4004  0.3517
 9970SOL    HW140839  10.020   6.116   6.585  0.8850  0.4705 -1.9882
 9970SOL    HW240840  10.005   6.262   6.656  0.1616 -0.5440 -0.0026
 9971SOL     OW40841   1.657   7.361   0.221  0.1033 -0.5080 -0.4025
 9971SOL    HW140842   1.585   7.398   0.163  0.4427  1.2063  0.2425
 9971SOL    HW240843   1.711   7.436   0.259  1.4652 -1.7205  0.0982
 9972SOL     OW40844   1.512   7.791   4.689 -0.3602 -0.5553  0.1151
 9972SOL    HW140845   1.576   7.755   4.758  1.4782 -0.2776 -1.3931
 9972SOL    HW240846   1.481   7.716   4.631 -0.2702 -0.4610 -0.0553
 9973SOL     OW40847   9.717   3.020   2.620 -0.0545 -0.3914 -0.3670
 9973SOL    HW140848   9.794   3.006   2.558 -0.4795  1.0425 -1.2523
 9973SOL    HW240849   9.639   2.965   2.589  0.3846 -1.3097  0.1316
 9974SOL     OW40850   2.527   7.315   4.411 -0.1513  0.4146 -0.5126
 9974SOL    HW140851   2.591   7.237   4.412  0.2907  0.7674  0.4221
 9974SOL    HW240852   2.473   7.314   4.496 -0.0366  1.2038 -0.4274
 9975SOL     OW40853   0.194   8.983   3.093  0.2452  0.3635  0.3334
 9975SOL    HW140854   0.191   9.006   3.190  1.1052 -0.6165  0.6102
 9975SOL    HW240855   0.283   8.943   3.071  0.2336  0.9913 -0.9612
 9976SOL     OW40856   5.465   8.802   5.206  0.0066  0.2274 -0.2490
 9976SOL    HW140857   5.454   8.850   5.293  0.5079 -1.4972  0.7890
 9976SOL    HW240858   5.540   8.736   5.213 -1.2421 -1.3466 -1.3499
 9977SOL     OW40859   1.260   5.218   3.480 -0.1004  0.2689  0.3069
 9977SOL    HW140860   1.340   5.279   3.481 -1.0199  1.5189  1.9580
 9977SOL    HW240861   1.251   5.176   3.390  1.9969  0.6617 -0.1264
 9978SOL     OW40862   0.334   8.911   3.612 -0.4425  0.0625  0.1839
 9978SOL    HW140863   0.361   8.866   3.698 -0.1993 -0.3592 -0.1147
 9978SOL    HW240864   0.276   8.990   3.633 -1.2943 -0.6823  0.6927
 9979SOL     OW40865   1.552   4.452   2.615  0.0109  1.0393 -0.4860
 9979SOL    HW140866   1.510   4.442   2.525 -0.2682  2.1518 -0.4862
 9979SOL    HW240867   1.497   4.515   2.671 -0.2210 -0.2203  0.7175
 9980SOL     OW40868   2.162   0.035   2.403 -0.3164 -0.6383 -0.1798
 9980SOL    HW140869   2.125  -0.004   2.319  3.1245  0.8456 -2.5076
 9980SOL    HW240870   2.259   0.055   2.390 -0.5021  2.8651  2.9805
 9981SOL     OW40871   2.597   0.251   2.312 -0.0756  0.2589 -0.1357
 9981SOL    HW140872   2.570   0.170   2.363 -2.3197  2.6323  2.6236
 9981SOL    HW240873   2.653   0.310   2.370  0.5524  1.2328 -1.6952
 9982SOL     OW40874   4.161   2.958   4.930 -0.4348 -0.1886  0.6077
 9982SOL    HW140875   4.203   2.868   4.943 -0.8741 -0.4400  0.2712
 9982SOL    HW240876   4.084   2.950   4.867 -0.8869  0.3079  1.0993
 9983SOL     OW40877   8.979   7.610   0.904 -0.0952 -0.1250 -0.0761
 9983SOL    HW140878   9.010   7.643   0.815 -1.0564  1.7010  0.2390
 9983SOL    HW240879   8.998   7.678   0.974 -1.0594 -0.7242  0.7956
 9984SOL     OW40880   2.137   8.026   3.635  0.3748 -0.1225  0.0817
 9984SOL    HW140881   2.056   8.019   3.694 -0.9826  0.1275 -1.7134
 9984SOL    HW240882   2.181   7.936   3.629 -0.3496 -0.4915  0.2453
 9985SOL     OW40883   2.287   3.833   4.599  0.3176  0.1360 -0.3138
 9985SOL    HW140884   2.216   3.783   4.550  0.4954  0.1991 -0.6311
 9985SOL    HW240885   2.307   3.919   4.553  0.1270  0.4285  0.1436
 9986SOL     OW40886   1.063   5.880   1.701 -0.5253 -0.2819 -0.1466
 9986SOL    HW140887   1.093   5.925   1.785  0.6074 -0.0802 -0.6521
 9986SOL    HW240888   0.964   5.865   1.705 -0.3619 -0.9875  1.5531
 9987SOL     OW40889   0.077   6.189   2.681  0.1208 -0.7449  0.4860
 9987SOL    HW140890   0.147   6.258   2.695  0.2469 -1.1906  2.1314
 9987SOL    HW240891  -0.013   6.227   2.703  0.2530 -1.2521  2.0019
 9988SOL     OW40892   1.466   3.894   4.061 -0.3578  0.1150 -0.4122
 9988SOL    HW140893   1.461   3.993   4.076 -0.1852  0.0694 -0.0347
 9988SOL    HW240894   1.539   3.856   4.118 -0.9239 -0.3410  0.0078
 9989SOL     OW40895   2.186   6.243   1.221  0.1937  0.0117  0.0724
 9989SOL    HW140896   2.272   6.191   1.223 -0.0964 -0.4381  1.3102
 9989SOL    HW240897   2.125   6.204   1.153  0.9149  0.2403 -0.7146
 9990SOL     OW40898   8.738   5.957   3.566 -0.3945 -0.3761  0.0822
 9990SOL    HW140899   8.686   5.886   3.614 -0.5508  0.2805  0.8784
 9990SOL    HW240900   8.783   5.916   3.486 -2.3283 -0.8936 -0.7799
 9991SOL     OW40901   8.881   2.176   3.987  0.5777  0.1721 -0.2667
 9991SOL    HW140902   8.927   2.262   3.965 -0.1566  0.3461 -1.1559
 9991SOL    HW240903   8.784   2.194   4.006  1.0123 -0.0777  2.3387
 9992SOL     OW40904   2.354   7.011   4.512 -0.3583 -0.2540  0.4439
 9992SOL    HW140905   2.443   6.967   4.519 -0.2878 -0.1771  0.0703
 9992SOL    HW240906   2.282   6.942   4.517 -0.2753 -0.3191  0.7186
 9993SOL     OW40907   8.931   6.504   0.201 -1.1130 -0.1717 -0.0693
 9993SOL    HW140908   8.895   6.596   0.215 -0.6436  0.0877 -0.5377
 9993SOL    HW240909   8.966   6.496   0.107 -1.1490 -0.8225 -0.0263
 9994SOL     OW40910   8.561   5.126   5.619 -0.2381 -0.1843 -0.4333
 9994SOL    HW140911   8.636   5.091   5.675 -0.6624 -2.0098 -0.9617
 9994SOL    HW240912   8.579   5.107   5.523 -1.0557 -0.0419 -0.6245
 9995SOL     OW40913   5.926   1.107   2.841  0.1139 -0.1050 -0.2408
 9995SOL    HW140914   5.905   1.204   2.852  2.7755  0.3776  1.0223
 9995SOL    HW240915   5.933   1.063   2.931 -1.5521 -1.5924 -0.8123
 9996SOL     OW40916   0.246   4.066   5.743  0.0596 -0.3605 -0.0197
 9996SOL    HW140917   0.268   4.134   5.812 -0.3537  0.1526 -0.3919
 9996SOL    HW240918   0.229   4.111   5.655 -2.6864 -0.6772  0.2933
 9997SOL     OW40919   1.951   3.410   4.046  0.7454 -0.2132 -0.3579
 9997SOL    HW140920   1.947   3.461   3.960 -0.1778 -0.3233 -0.3792
 9997SOL    HW240921   1.863   3.367   4.064  1.9355 -3.1049 -1.1178
 9998SOL     OW40922   8.565   0.588   1.399 -0.9074 -0.3372 -0.3831
 9998SOL    HW140923   8.605   0.590   1.491 -0.5632 -0.8766 -0.5203
 9998SOL    HW240924   8.474   0.630   1.402 -1.0616 -0.7088  0.2867
 9999SOL     OW40925   3.621   1.680   0.892  0.4825 -0.0627  0.2271
 9999SOL    HW140926   3.719   1.660   0.896  0.3936 -0.5724 -0.0376
 9999SOL    HW240927   3.607   1.772   0.856  0.8104 -0.5919 -1.2867
10000SOL     OW40928   3.683   4.045   2.418 -0.2677  0.5331  0.1709
10000SOL    HW140929   3.646   4.111   2.352 -0.8333 -0.9927 -1.0448
10000SOL    HW240930   3.776   4.020   2.391 -0.6469 -0.4003 -0.2824
10001SOL     OW40931   4.506   1.878   2.308  0.4373 -0.9121 -0.2221
10001SOL    HW140932   4.442   1.930   2.252  1.3486 -0.5946 -0.9859
10001SOL    HW240933   4.600   1.907   2.288  0.8265 -1.3837  0.8636
10002SOL     OW40934   1.996   8.991   3.489 -0.1358 -0.2091  0.1933
10002SOL    HW140935   1.974   9.088   3.475 -2.3460 -0.6914  0.3035
10002SOL    HW240936   1.948   8.956   3.569  0.1390 -1.5789 -0.2245
10003SOL     OW40937   8.295   0.575   5.095  0.6693  0.2896 -0.7521
10003SOL    HW140938   8.277   0.478   5.114 -0.6850  1.0897  2.3183
10003SOL    HW240939   8.221   0.611   5.038  0.0473  0.0220 -0.1299
10004SOL     OW40940   9.558   4.460   4.281 -0.7180  0.3439 -0.0631
10004SOL    HW140941   9.529   4.419   4.195  0.0036  0.5707 -0.4212
10004SOL    HW240942   9.621   4.535   4.263  0.6586 -0.5913  0.7118
10005SOL     OW40943   6.610   0.851   0.405  0.5958  0.9045 -0.3583
10005SOL    HW140944   6.562   0.792   0.340 -1.0019  1.1441  0.5734
10005SOL    HW240945   6.617   0.943   0.368  0.8333  0.7433 -0.7217
10006SOL     OW40946   8.919   6.722   5.031  0.5795 -0.3000  0.3529
10006SOL    HW140947   8.898   6.719   5.128 -1.7695  1.3796 -0.0752
10006SOL    HW240948   9.006   6.675   5.014  0.6860 -1.1624  3.1492
10007SOL     OW40949   1.240   4.052   3.224 -0.4910  0.0791 -0.2263
10007SOL    HW140950   1.185   4.121   3.271  0.8358  0.5224  0.6940
10007SOL    HW240951   1.181   3.976   3.196 -1.5066  0.4004  1.0245
10008SOL     OW40952   9.951   4.535   0.336  0.3287  0.1228 -0.2739
10008SOL    HW140953  10.037   4.502   0.376  0.0252 -0.1591  0.1476
10008SOL    HW240954   9.945   4.635   0.348 -0.0558 -0.0388  0.9592
10009SOL     OW40955   0.469   9.673   2.043 -0.4494 -0.0900  0.0547
10009SOL    HW140956   0.525   9.730   2.103  0.2778 -1.0134  0.2757
10009SOL    HW240957   0.523   9.644   1.964 -1.2198  0.6146 -0.7489
10010SOL     OW40958   1.426   0.491   4.110  0.0953  0.2682  0.0118
10010SOL    HW140959   1.516   0.449   4.123  0.0130  0.0747 -0.0450
10010SOL    HW240960   1.437   0.590   4.099  0.4366  0.0726 -1.4532
10011SOL     OW40961   4.290   9.192   1.726 -0.5149  0.3074 -0.3662
10011SOL    HW140962   4.260   9.167   1.818  1.2720  1.4082  0.5539
10011SOL    HW240963   4.289   9.292   1.717  0.0032  0.2356 -1.2942
10012SOL     OW40964   1.188   8.959   4.903  0.2489  0.7253  0.2210
10012SOL    HW140965   1.160   9.035   4.843 -1.7054  0.3009  0.5739
10012SOL    HW240966   1.272   8.985   4.952 -0.1141  2.4538 -0.0355
10013SOL     OW40967   9.634   6.011   0.341 -0.0105  0.6819  0.2867
10013SOL    HW140968   9.623   5.918   0.306 -1.2259  0.6166  0.8053
10013SOL    HW240969   9.600   6.016   0.435 -1.2822  1.9469 -0.2093
10014SOL     OW40970   4.390   0.819   3.447  0.2372  0.0910 -0.3631
10014SOL    HW140971   4.431   0.907   3.423 -0.0813  0.3400 -0.0034
10014SOL    HW240972   4.290   0.826   3.443  0.1293  0.4547  2.0298
10015SOL     OW40973   3.021   1.255   1.487  0.4429 -0.1154  0.0038
10015SOL    HW140974   2.934   1.206   1.477  0.9385 -1.1697  0.7562
10015SOL    HW240975   3.018   1.311   1.570 -0.1344  1.1676 -0.8717
10016SOL     OW40976   1.060   2.335   3.356 -0.5498  0.4911  0.6302
10016SOL    HW140977   1.109   2.411   3.399 -0.0601  0.3777  0.2760
10016SOL    HW240978   1.111   2.250   3.370 -0.0609  0.5499 -0.7030
10017SOL     OW40979   1.763   5.422   1.337 -0.3113  0.9627 -0.2902
10017SOL    HW140980   1.688   5.483   1.362  0.9663  3.2494 -1.8516
10017SOL    HW240981   1.802   5.452   1.250  0.9918 -1.5192 -0.5845
10018SOL     OW40982   0.798   4.833   1.643 -0.0726 -0.0911  0.0138
10018SOL    HW140983   0.878   4.813   1.699  0.7256  0.6830 -0.8329
10018SOL    HW240984   0.760   4.921   1.671  0.8863  0.7427 -1.2770
10019SOL     OW40985   1.859   6.517   2.350  0.1414 -0.6932 -0.1709
10019SOL    HW140986   1.890   6.586   2.415 -2.0619 -1.5238  1.8544
10019SOL    HW240987   1.779   6.551   2.301  1.6881 -0.1445 -2.3486
10020SOL     OW40988   4.071   5.213   1.273  0.8432 -0.0565  0.1047
10020SOL    HW140989   4.123   5.298   1.282  3.2239 -1.3835 -0.4837
10020SOL    HW240990   4.059   5.171   1.363 -0.0279  0.7033  0.3524
10021SOL     OW40991   0.339   6.961   5.547 -0.6985  0.0397  0.1662
10021SOL    HW140992   0.327   6.918   5.636  1.0016 -1.6052 -0.3653
10021SOL    HW240993   0.305   6.900   5.476 -1.1868  0.9401 -0.3755
10022SOL     OW40994   4.908   4.032   1.282 -0.2424 -0.0742  0.1076
10022SOL    HW140995   4.881   3.936   1.273  0.9863 -0.5261  1.0653
10022SOL    HW240996   5.008   4.039   1.281 -0.3311  1.4323 -2.1808
10023SOL     OW40997   9.727   4.020   0.784  0.1182  0.1711 -0.4641
10023SOL    HW140998   9.806   3.960   0.798 -0.1532 -0.0176  0.2752
10023SOL    HW240999   9.701   4.061   0.871 -0.8856 -0.1220 -0.6244
10024SOL     OW41000   9.527   0.419   2.008  0.2247  0.0157 -0.0944
10024SOL    HW141001   9.569   0.386   2.092 -0.7151  1.6219  1.0430
10024SOL    HW241002   9.462   0.493   2.030 -0.1737  0.3249 -2.2008
10025SOL     OW41003   9.669   4.610   0.131 -0.2085  0.5129  0.3903
10025SOL    HW141004   9.760   4.618   0.173 -0.4607  1.2218  0.8025
10025SOL    HW241005   9.680   4.595   0.033  0.3629  0.4472  0.4581
10026SOL     OW41006   1.683   6.569   0.775  0.2243  0.2095  0.2236
10026SOL    HW141007   1.636   6.500   0.719  1.3870 -0.1281 -0.3584
10026SOL    HW241008   1.710   6.528   0.862  0.1776  0.1563  0.2130
10027SOL     OW41009   2.981   5.253   2.857  0.0729 -0.6107 -0.5362
10027SOL    HW141010   3.003   5.347   2.881 -0.0056 -1.0151  1.1769
10027SOL    HW241011   3.065   5.200   2.844  0.1572  0.2516 -3.9040
10028SOL     OW41012   9.127   4.282   3.873  0.1655  0.1866  0.1353
10028SOL    HW141013   9.095   4.211   3.935  1.0078  0.4411  0.8723
10028SOL    HW241014   9.049   4.337   3.841 -0.4853 -1.0414 -0.4272
10029SOL     OW41015   3.921   9.313   4.093  0.1300 -0.3996  0.4435
10029SOL    HW141016   3.967   9.311   4.004 -0.7244 -0.9553  0.0142
10029SOL    HW241017   3.989   9.300   4.166  1.0491  1.4851 -0.0303
10030SOL     OW41018   8.976   7.291   3.805  0.3624  0.6326 -0.9746
10030SOL    HW141019   9.058   7.346   3.788  0.5780  0.1937 -1.3609
10030SOL    HW241020   8.999   7.194   3.800  0.9173  0.3806  3.9552
10031SOL     OW41021   1.562   9.265   0.960  0.2312  0.2215 -0.3495
10031SOL    HW141022   1.645   9.312   0.989  0.0699 -0.0986  0.6442
10031SOL    HW241023   1.523   9.312   0.881  1.0718  0.6779 -0.4958
10032SOL     OW41024   2.012   5.387   6.742  0.3689  0.0560  0.2786
10032SOL    HW141025   1.978   5.400   6.649  1.8988  1.1816 -0.1387
10032SOL    HW241026   2.043   5.292   6.753  0.7491  0.0803 -0.5496
10033SOL     OW41027   8.991   7.064   3.350 -0.1929  0.1399  0.0842
10033SOL    HW141028   9.067   7.105   3.400  0.3412  1.2675 -1.6159
10033SOL    HW241029   8.905   7.092   3.392  0.2940 -0.2741  1.3674
10034SOL     OW41030   6.284   8.706   3.855  0.3735 -0.5047  0.0079
10034SOL    HW141031   6.295   8.608   3.844 -0.0635 -0.4293 -1.1547
10034SOL    HW241032   6.190   8.732   3.833  0.3388  0.0987  0.8387
10035SOL     OW41033   0.576   4.530   6.315  0.1070  0.4741  0.0437
10035SOL    HW141034   0.542   4.469   6.386 -0.7140  0.8776  0.0124
10035SOL    HW241035   0.498   4.577   6.272  0.7099  1.4569 -0.0004
10036SOL     OW41036   1.364   3.895   5.375 -0.1574 -0.1198  0.2584
10036SOL    HW141037   1.371   3.876   5.473 -1.5494  0.0854  0.4009
10036SOL    HW241038   1.439   3.955   5.348  0.0138  0.1449  1.2768
10037SOL     OW41039   3.606   1.658   2.158  0.3103 -0.2159  0.2348
10037SOL    HW141040   3.549   1.741   2.162  1.2878  0.4023  2.2633
10037SOL    HW241041   3.569   1.595   2.090 -1.7803  0.9239  0.2755
10038SOL     OW41042   1.449   8.834   0.465 -0.1959  0.0471 -0.0260
10038SOL    HW141043   1.532   8.891   0.464  0.2525 -0.5528  1.1094
10038SOL    HW241044   1.475   8.739   0.482 -0.8533 -0.6830 -2.9564
10039SOL     OW41045   4.062   7.269   3.557  0.2592  0.5938 -0.1365
10039SOL    HW141046   3.968   7.303   3.549  0.5485  1.2474 -0.8936
10039SOL    HW241047   4.117   7.309   3.484  1.1286  0.2111  0.3101
10040SOL     OW41048   9.082   2.974   0.613  0.5146  0.2910 -0.0333
10040SOL    HW141049   9.180   2.967   0.599  0.4789 -0.8937  0.2535
10040SOL    HW241050   9.036   2.900   0.564 -0.1880  0.5269  0.2617
10041SOL     OW41051   6.135   4.548   0.447 -0.0049 -0.4904  0.3795
10041SOL    HW141052   6.088   4.561   0.534 -2.0392  1.4759 -0.9770
10041SOL    HW241053   6.230   4.577   0.456  0.1244 -1.4179  2.2508
10042SOL     OW41054   2.558   3.885   0.275 -0.4346 -0.1909  0.3062
10042SOL    HW141055   2.495   3.896   0.198  0.8171  0.2585 -0.6531
10042SOL    HW241056   2.570   3.973   0.320  1.3153  0.2293 -0.9351
10043SOL     OW41057   2.273   3.924   1.988 -0.1647 -0.8979  0.6318
10043SOL    HW141058   2.292   4.021   2.004 -1.1739 -0.6546  0.4033
10043SOL    HW241059   2.356   3.871   2.004  0.4838  0.0377  0.4445
10044SOL     OW41060   9.932   3.349   1.162  0.6843 -0.7001 -0.1326
10044SOL    HW141061   9.989   3.429   1.142 -1.4500  0.7656 -0.4496
10044SOL    HW241062   9.836   3.370   1.144  0.0899 -3.3985 -0.3687
10045SOL     OW41063   9.357   4.926   4.263  0.0584 -0.2879  0.3506
10045SOL    HW141064   9.423   4.860   4.299  0.4013 -0.0905  0.0816
10045SOL    HW241065   9.405   4.997   4.212 -0.3759 -0.2474 -0.0045
10046SOL     OW41066   0.264   1.983   4.246 -0.2200 -0.3657  0.1174
10046SOL    HW141067   0.323   2.062   4.261 -0.8944 -0.1286  1.5985
10046SOL    HW241068   0.298   1.905   4.300 -0.1462 -0.7885 -0.5360
10047SOL     OW41069   3.396   9.821   3.497  0.2337  0.3273 -0.5011
10047SOL    HW141070   3.387   9.757   3.574 -1.2263  0.3889 -0.6190
10047SOL    HW241071   3.478   9.797   3.444 -0.8767 -2.1413 -1.1752
10048SOL     OW41072   8.829   9.216   4.876  0.2004  0.0869  0.2482
10048SOL    HW141073   8.831   9.281   4.800  0.4766 -1.1362 -0.8039
10048SOL    HW241074   8.784   9.131   4.847  1.2139 -0.7832  1.1383
10049SOL     OW41075   1.831   5.847   0.910 -0.1619 -0.5053  0.3978
10049SOL    HW141076   1.917   5.824   0.865 -0.6755  0.2199 -0.9868
10049SOL    HW241077   1.848   5.915   0.982  0.1760  1.1731 -1.2093
10050SOL     OW41078   7.410   1.765   3.734  0.0324  0.6190  0.0331
10050SOL    HW141079   7.417   1.813   3.646  0.8908  0.3066 -0.0733
10050SOL    HW241080   7.318   1.778   3.772 -0.4854  0.3978 -1.1203
10051SOL     OW41081   3.669   0.561   1.133 -0.0110  0.1957  0.2158
10051SOL    HW141082   3.640   0.472   1.169 -0.5773 -0.9295 -2.8538
10051SOL    HW241083   3.769   0.565   1.132  0.0427 -1.0814 -1.1404
10052SOL     OW41084   3.379   0.693   1.470 -0.1642  0.3430 -0.2262
10052SOL    HW141085   3.377   0.720   1.374 -0.8846  1.4018  0.0830
10052SOL    HW241086   3.291   0.715   1.513  0.3223  0.3318  0.7976
10053SOL     OW41087   8.247   2.943   3.498 -0.1690  0.4033 -0.0150
10053SOL    HW141088   8.158   2.899   3.493 -1.0157  2.0802  0.0158
10053SOL    HW241089   8.253   2.998   3.581  0.7503  0.6131 -0.2072
10054SOL     OW41090   2.808   0.474   1.217  0.0409  0.1687  0.0124
10054SOL    HW141091   2.715   0.438   1.227 -1.0579  1.7906 -3.4181
10054SOL    HW241092   2.804   0.565   1.174  3.2711 -0.8071 -2.5850
10055SOL     OW41093   3.707   7.167   4.869 -0.6279  0.3960  0.0634
10055SOL    HW141094   3.663   7.079   4.854 -2.8347  1.5085 -0.2936
10055SOL    HW241095   3.752   7.197   4.785 -0.7657  0.0920 -0.1164
10056SOL     OW41096   4.606   3.974   0.870 -0.0623  0.2577  0.2162
10056SOL    HW141097   4.687   4.023   0.903  1.1866 -2.2841  1.0551
10056SOL    HW241098   4.577   3.908   0.940 -2.5500  0.7567 -0.3041
10057SOL     OW41099   3.568   8.973   1.657 -0.1942  0.4459 -0.4042
10057SOL    HW141100   3.581   8.879   1.625 -0.3175  1.0505 -2.2308
10057SOL    HW241101   3.657   9.019   1.661 -0.1911  0.4035  0.0368
10058SOL     OW41102   4.363   3.538   3.196 -0.4735 -0.6303  0.2128
10058SOL    HW141103   4.366   3.452   3.247  0.5107 -1.6593 -1.5525
10058SOL    HW241104   4.448   3.588   3.211  0.0072 -1.1478 -0.7851
10059SOL     OW41105   1.894   2.198   2.410  0.3112  0.1657 -0.2153
10059SOL    HW141106   1.883   2.199   2.311  1.3526  2.7560 -0.3533
10059SOL    HW241107   1.874   2.107   2.445  0.9129 -1.0601 -2.9238
10060SOL     OW41108   4.498   0.643   1.488 -0.3604 -0.2647 -0.0669
10060SOL    HW141109   4.531   0.737   1.501 -0.9999 -0.2008  1.1376
10060SOL    HW241110   4.414   0.645   1.434 -0.3645 -0.1573 -0.0581
10061SOL     OW41111   4.424   7.068   2.502  0.2073 -0.9314  0.0531
10061SOL    HW141112   4.380   7.157   2.493  2.6162  0.3514  0.4387
10061SOL    HW241113   4.372   7.010   2.564 -1.3362  0.2258 -0.1477
10062SOL     OW41114   1.768   0.028   1.493  0.0321  0.5570 -0.1136
10062SOL    HW141115   1.710   0.026   1.412 -1.0930 -2.0375  0.7086
10062SOL    HW241116   1.721   0.077   1.566 -0.5057 -0.2547  0.0903
10063SOL     OW41117   2.897   0.760   1.422  0.3848  0.0694 -0.4116
10063SOL    HW141118   2.811   0.795   1.458  0.3219  0.3717 -0.8615
10063SOL    HW241119   2.880   0.712   1.336  1.0705  2.6070 -1.9828
10064SOL     OW41120   7.902   0.143   0.898  0.4737  0.5877  0.5218
10064SOL    HW141121   7.972   0.177   0.835  2.4165  0.2263  2.4295
10064SOL    HW241122   7.911   0.043   0.907 -1.2550  0.3354 -0.3366
10065SOL     OW41123   5.836   8.265   2.255  0.4250 -0.0738 -0.0553
10065SOL    HW141124   5.776   8.302   2.184 -0.2173  0.6232  0.8373
10065SOL    HW241125   5.930   8.294   2.237 -0.0823  2.1357  0.6940
10066SOL     OW41126   4.902   4.773   0.972 -0.6417  0.0517  0.1640
10066SOL    HW141127   4.935   4.796   0.880 -1.1451 -1.0006 -0.2992
10066SOL    HW241128   4.916   4.850   1.034  0.3218  0.5273 -0.6406
10067SOL     OW41129   9.969   5.423   4.574 -0.5688  0.1095  0.2215
10067SOL    HW141130  10.025   5.384   4.501 -1.2944  0.4547 -0.5346
10067SOL    HW241131  10.006   5.396   4.663  1.0537  0.7229 -0.2589
10068SOL     OW41132   5.944   8.839   1.710 -0.0686  0.0346  0.2148
10068SOL    HW141133   5.928   8.740   1.702  0.4542  0.0935 -1.6560
10068SOL    HW241134   5.866   8.889   1.672 -0.4899  0.3700  1.4725
10069SOL     OW41135   0.558   2.106   4.442  0.1423 -0.2803  0.7381
10069SOL    HW141136   0.480   2.142   4.391  0.3228 -0.6431  0.2044
10069SOL    HW241137   0.570   2.159   4.526  0.8903  1.4503 -0.4192
10070SOL     OW41138   8.086   6.356   5.071  0.5966  0.0454  0.2641
10070SOL    HW141139   8.169   6.314   5.107 -0.1729 -1.4266  0.3832
10070SOL    HW241140   8.025   6.284   5.036 -2.4068  0.6772  3.9123
10071SOL     OW41141   0.019   2.627   2.414 -0.1037  0.1190 -0.3856
10071SOL    HW141142   0.094   2.586   2.362 -0.2143 -2.3015  1.2652
10071SOL    HW241143   0.056   2.672   2.496 -0.2915  0.3862 -0.4475
10072SOL     OW41144   9.758   4.413   2.058 -0.1320 -0.1160 -0.4695
10072SOL    HW141145   9.674   4.418   2.002 -0.0200 -0.1194 -0.6382
10072SOL    HW241146   9.817   4.490   2.034 -0.7236  0.7115  0.6842
10073SOL     OW41147   3.043   9.595   1.183 -0.3396 -0.0665 -0.4866
10073SOL    HW141148   2.962   9.653   1.191 -2.4387 -3.1562  1.8233
10073SOL    HW241149   3.062   9.553   1.272  2.4757 -1.2059 -1.5721
10074SOL     OW41150   5.515   0.957   5.436  0.1977  0.7632  0.8372
10074SOL    HW141151   5.532   0.865   5.471 -2.5546 -0.1999 -0.2409
10074SOL    HW241152   5.571   0.974   5.356  0.8015  0.0835  1.1108
10075SOL     OW41153   2.551   3.666   5.836  0.7225 -0.1328  0.2441
10075SOL    HW141154   2.639   3.714   5.840  1.1680 -0.8519 -0.5483
10075SOL    HW241155   2.532   3.641   5.741 -1.6454  2.3470  0.0196
10076SOL     OW41156   5.352   7.544   4.969  0.2365  0.6308 -0.0729
10076SOL    HW141157   5.268   7.556   5.021  0.6095 -1.3145  1.0445
10076SOL    HW241158   5.330   7.533   4.872 -0.6849  1.3658  0.0477
10077SOL     OW41159   1.390   2.892   2.713  0.4752 -0.0634 -0.0996
10077SOL    HW141160   1.308   2.853   2.754  0.8287 -0.3761  0.3155
10077SOL    HW241161   1.369   2.926   2.621 -0.4226  1.0047  0.4921
10078SOL     OW41162   0.994   4.603   1.639 -0.1310  0.0597 -0.3933
10078SOL    HW141163   1.031   4.544   1.711  1.4531 -1.6407 -2.5169
10078SOL    HW241164   0.894   4.600   1.642 -0.0785 -0.5980  1.2505
10079SOL     OW41165   7.520   1.043   5.872  0.1880  1.2493  0.1441
10079SOL    HW141166   7.577   1.081   5.945 -0.1998  0.6360  0.7676
10079SOL    HW241167   7.439   1.000   5.911  0.1033  0.6860 -0.6324
10080SOL     OW41168   0.747   8.502   2.064  0.3375 -0.1265  0.8606
10080SOL    HW141169   0.808   8.469   2.136  2.1386 -1.1316 -1.0810
10080SOL    HW241170   0.778   8.467   1.976 -0.7470  2.5879 -0.6477
10081SOL     OW41171   7.593   2.579   2.418  0.0255 -0.0692 -0.0337
10081SOL    HW141172   7.543   2.493   2.407  2.0343 -1.4271  1.1243
10081SOL    HW241173   7.575   2.638   2.340 -3.2482 -0.5668  0.2856
10082SOL     OW41174   1.641   4.819   0.769  0.6272 -0.1754  0.1275
10082SOL    HW141175   1.566   4.757   0.794  1.2008 -0.9992 -0.1735
10082SOL    HW241176   1.718   4.766   0.734  2.2201  0.4483  2.5336
10083SOL     OW41177   0.375   7.260   3.285  0.0315 -0.1609 -0.2423
10083SOL    HW141178   0.386   7.267   3.384  0.8482 -1.0754 -0.2650
10083SOL    HW241179   0.441   7.194   3.249 -1.3080 -0.9835 -1.1966
10084SOL     OW41180   0.910   3.597   4.002 -0.3654  0.3105 -0.7093
10084SOL    HW141181   0.916   3.588   3.903 -2.5952 -0.3453 -0.8239
10084SOL    HW241182   0.828   3.549   4.035 -0.5984  1.9645  1.2369
10085SOL     OW41183   1.729   4.153   3.921  0.2597  0.5521  0.2416
10085SOL    HW141184   1.651   4.135   3.981 -0.8186  0.3683 -1.1869
10085SOL    HW241185   1.807   4.098   3.950 -0.2431  0.4827  1.4813
10086SOL     OW41186   1.438   6.081   0.141 -0.2554 -0.3532  0.3722
10086SOL    HW141187   1.382   6.030   0.207 -1.4315 -0.0443 -0.3805
10086SOL    HW241188   1.508   6.132   0.190 -1.7725  0.7060  1.5025
10087SOL     OW41189   2.230   3.301   3.864  0.3113  0.5201 -0.3279
10087SOL    HW141190   2.318   3.253   3.871  0.6798  1.1855 -0.3023
10087SOL    HW241191   2.203   3.308   3.767 -0.0421 -0.2659 -0.2869
10088SOL     OW41192   4.365   4.064   4.823  0.2972  0.0681  0.3040
10088SOL    HW141193   4.427   4.103   4.891 -0.8864 -0.1231  1.4960
10088SOL    HW241194   4.312   4.138   4.781  0.9947  0.1811 -0.3895
10089SOL     OW41195   4.016   8.751   3.033 -0.0891 -0.2003 -0.0668
10089SOL    HW141196   3.994   8.782   2.940 -0.3405  0.2916  0.1596
10089SOL    HW241197   3.944   8.689   3.065 -0.0418 -0.3090 -0.1658
10090SOL     OW41198   7.323   9.344   4.773 -0.2785 -0.1194  0.1456
10090SOL    HW141199   7.334   9.347   4.872  1.6201  0.4664 -0.0684
10090SOL    HW241200   7.344   9.434   4.734  0.1381 -0.6537 -0.8915
10091SOL     OW41201   8.478   8.136   2.926  0.6574 -0.0364  0.2814
10091SOL    HW141202   8.403   8.202   2.925  1.4051  0.8162  0.2824
10091SOL    HW241203   8.510   8.121   2.833  1.7621  1.0681  0.4712
10092SOL     OW41204   0.822   0.302   1.117  0.0301  0.1568  0.3023
10092SOL    HW141205   0.816   0.298   1.217 -0.5705 -0.2222  0.2531
10092SOL    HW241206   0.828   0.397   1.088  0.1742  0.2708  0.7000
10093SOL     OW41207   9.995   7.642   4.564  0.0040 -0.5616 -0.1641
10093SOL    HW141208  10.063   7.686   4.505 -1.4338  1.2310 -0.5416
10093SOL    HW241209  10.024   7.649   4.659  1.4261 -1.8180 -0.4778
10094SOL     OW41210   4.846   4.417   0.853 -0.0610 -0.2113  0.2661
10094SOL    HW141211   4.851   4.466   0.940  0.0078  0.0176  0.1357
10094SOL    HW241212   4.751   4.397   0.831 -0.1774  0.8721 -0.2318
10095SOL     OW41213   8.773   4.973   0.964  0.1976 -0.3826 -0.0143
10095SOL    HW141214   8.679   4.976   0.997  0.1714  0.9644 -0.1916
10095SOL    HW241215   8.787   5.044   0.895  1.1232 -1.1015 -0.5831
10096SOL     OW41216   2.993   7.331   6.585  0.0498  0.6226  0.3427
10096SOL    HW141217   3.084   7.336   6.625 -0.5104  0.0359  1.6875
10096SOL    HW241218   2.989   7.253   6.522 -1.0695 -2.6193  4.2670
10097SOL     OW41219   4.765   2.885   0.907 -0.0952  0.0000 -0.3217
10097SOL    HW141220   4.862   2.860   0.905  0.1834  1.0708 -0.2206
10097SOL    HW241221   4.755   2.984   0.904 -1.1831 -0.0816  0.1625
10098SOL     OW41222   3.826   1.837   2.898 -0.1814  0.2395 -0.4375
10098SOL    HW141223   3.763   1.777   2.850 -0.4558  0.3360 -0.1992
10098SOL    HW241224   3.808   1.833   2.997 -0.0487  0.5315 -0.4004
10099SOL     OW41225   3.755   1.039   4.332  0.0950  0.4885  0.2833
10099SOL    HW141226   3.768   1.129   4.289  1.0565  1.2106  2.0192
10099SOL    HW241227   3.675   1.043   4.392 -0.0276  0.0983  0.1455
10100SOL     OW41228   6.843   2.168   2.743  1.0540  0.1145 -0.7876
10100SOL    HW141229   6.817   2.259   2.776 -1.2214 -0.7441 -0.1182
10100SOL    HW241230   6.871   2.175   2.648 -1.4004  1.2080 -1.4978
10101SOL     OW41231   0.398   4.198   5.243  0.1882 -0.3936  0.2594
10101SOL    HW141232   0.352   4.221   5.157  1.2426 -3.1670 -1.1075
10101SOL    HW241233   0.494   4.176   5.225  0.3438 -1.3416  2.0962
10102SOL     OW41234   4.551   7.042   3.100 -0.2871 -0.8194 -0.7677
10102SOL    HW141235   4.467   7.032   3.154  0.4551 -0.5079  0.4688
10102SOL    HW241236   4.541   6.995   3.013 -2.0971 -0.0045 -1.0259
10103SOL     OW41237   4.326   3.231   3.864  0.5498 -0.1140  0.3205
10103SOL    HW141238   4.332   3.243   3.963  1.0228 -3.3594  0.7334
10103SOL    HW241239   4.230   3.230   3.836  0.3541 -1.3392  1.0331
10104SOL     OW41240   0.062   6.815   0.417  0.1907 -0.0639 -0.0319
10104SOL    HW141241   0.031   6.725   0.446 -0.9112 -0.0452 -1.1246
10104SOL    HW241242   0.102   6.809   0.326  0.3918  0.5078  0.0147
10105SOL     OW41243   3.074   7.029   0.455 -0.1733  0.3013 -0.3008
10105SOL    HW141244   2.987   6.981   0.443  0.2591 -0.5702 -0.0516
10105SOL    HW241245   3.060   7.112   0.508 -0.8655  0.1865 -0.3014
10106SOL     OW41246   8.736   9.530   1.856 -0.1109  0.3046  0.0178
10106SOL    HW141247   8.654   9.549   1.802  0.7054  2.2219 -0.5918
10106SOL    HW241248   8.797   9.609   1.854  2.1585 -1.3780 -0.2236
10107SOL     OW41249   8.496   6.514   2.194 -0.2544 -0.1867  0.1102
10107SOL    HW141250   8.559   6.585   2.225 -0.3989 -0.8864  2.0530
10107SOL    HW241251   8.430   6.554   2.131  1.8669  0.6324 -1.6538
10108SOL     OW41252   4.595   3.769   1.074  0.2700 -0.0586  0.0081
10108SOL    HW141253   4.694   3.769   1.086  0.2498  1.8184  0.3478
10108SOL    HW241254   4.551   3.776   1.164 -0.1237  0.5802 -0.2260
10109SOL     OW41255   8.440   1.576   1.224 -0.5140 -0.1184 -0.3868
10109SOL    HW141256   8.521   1.526   1.194  0.1558  0.6705  0.0696
10109SOL    HW241257   8.441   1.667   1.182 -1.2375 -0.1524 -0.4836
10110SOL     OW41258   8.738   1.934   0.868  0.4330  0.1146  0.3192
10110SOL    HW141259   8.715   1.933   0.771 -0.3118 -1.3031  0.5030
10110SOL    HW241260   8.828   1.891   0.881  0.9579  1.1454  0.1644
10111SOL     OW41261   4.199   2.355   4.760 -0.5143  0.0484  0.6219
10111SOL    HW141262   4.205   2.438   4.704 -1.1349 -1.0220 -1.0576
10111SOL    HW241263   4.235   2.375   4.852  0.1350  1.9353 -0.0031
10112SOL     OW41264   6.349   9.894   3.760 -0.1955 -0.0777  0.1055
10112SOL    HW141265   6.354   9.825   3.688 -1.1036 -0.5299  0.4642
10112SOL    HW241266   6.254   9.924   3.770 -0.2851 -0.9414  1.9912
10113SOL     OW41267   3.691   4.223   0.124 -0.7900 -0.6272 -0.0802
10113SOL    HW141268   3.762   4.160   0.093  0.8941  0.8861  0.6074
10113SOL    HW241269   3.681   4.298   0.058  0.1457  0.5757  1.0995
10114SOL     OW41270   3.679   8.189   3.987  0.3947 -0.4760  0.2432
10114SOL    HW141271   3.661   8.183   3.889 -0.7358 -0.5906  0.4431
10114SOL    HW241272   3.750   8.258   4.004  1.2930 -1.1548 -0.7222
10115SOL     OW41273   2.763   5.143   5.181  1.0451 -0.2631  0.4485
10115SOL    HW141274   2.771   5.239   5.210 -2.3494  0.5847 -1.1883
10115SOL    HW241275   2.708   5.093   5.248  2.4876 -1.0340  1.0918
10116SOL     OW41276   1.614   6.413   1.002 -0.7460  0.6851 -0.4641
10116SOL    HW141277   1.587   6.418   1.098 -0.6606  2.8821 -0.5340
10116SOL    HW241278   1.699   6.361   0.994 -1.2178 -0.2582  0.5371
10117SOL     OW41279   0.352   6.241   4.783 -0.2593  0.6217 -0.1777
10117SOL    HW141280   0.420   6.237   4.709  0.8252  1.1552  0.7745
10117SOL    HW241281   0.341   6.149   4.822  1.3560  0.8695  0.9268
10118SOL     OW41282   1.145   5.964   3.709  0.9178  0.5909 -0.4730
10118SOL    HW141283   1.094   5.884   3.678  0.1958 -0.0004  2.1751
10118SOL    HW241284   1.234   5.935   3.745  0.5534  0.9326  0.7247
10119SOL     OW41285   0.547   6.137   2.035  0.2755 -0.0257  0.0452
10119SOL    HW141286   0.622   6.132   2.102  0.1631  0.6125  0.2178
10119SOL    HW241287   0.570   6.081   1.956  0.0232 -1.5045  0.9993
10120SOL     OW41288   0.422   7.140   1.734 -0.3958 -0.1525  0.3034
10120SOL    HW141289   0.353   7.067   1.731 -0.0568 -0.4521 -0.3370
10120SOL    HW241290   0.503   7.107   1.783 -0.8639  0.3481  1.4499
10121SOL     OW41291   3.432   9.628   1.262 -0.3286  0.0489 -0.0464
10121SOL    HW141292   3.419   9.703   1.327  0.3786  0.0822  0.0643
10121SOL    HW241293   3.367   9.638   1.187 -0.0482  0.9418 -0.1810
10122SOL     OW41294   0.366   7.716   5.732  0.1205 -0.1881  0.1733
10122SOL    HW141295   0.379   7.811   5.760  1.7140 -1.2650  3.3557
10122SOL    HW241296   0.452   7.666   5.746 -0.7226 -2.1005 -1.4028
10123SOL     OW41297   3.214   3.018   5.013 -0.1304  0.1423 -0.1648
10123SOL    HW141298   3.117   3.001   4.996  0.2587 -1.4743 -0.8516
10123SOL    HW241299   3.224   3.098   5.073 -1.8928 -0.0841  0.4570
10124SOL     OW41300   4.560   2.584   2.407  0.1553 -0.0931  0.4577
10124SOL    HW141301   4.520   2.647   2.339  2.8125  1.7349  0.5122
10124SOL    HW241302   4.486   2.543   2.461 -1.7386  2.2105 -0.2658
10125SOL     OW41303   8.840   7.298   3.566  0.2787 -0.1710 -0.0955
10125SOL    HW141304   8.882   7.293   3.658 -2.4569 -0.9644  1.1567
10125SOL    HW241305   8.844   7.392   3.533  1.1645  0.1606  0.8968
10126SOL     OW41306   3.514   6.029   2.494  0.0587  0.0926  0.5281
10126SOL    HW141307   3.553   5.937   2.496  2.2873  0.9953  0.1410
10126SOL    HW241308   3.467   6.048   2.580  0.2951 -1.1111  0.9237
10127SOL     OW41309   5.370   7.335   1.769  0.2427 -0.2761  0.0508
10127SOL    HW141310   5.279   7.377   1.766  2.0030  3.8126  0.6166
10127SOL    HW241311   5.407   7.330   1.676 -0.3187 -1.4001 -0.1151
10128SOL     OW41312   4.947   7.865   4.734 -0.3097  0.7410  0.0641
10128SOL    HW141313   4.929   7.963   4.726 -0.6421  0.5214 -2.1599
10128SOL    HW241314   4.889   7.815   4.670 -0.3123 -0.9510  1.3403
10129SOL     OW41315   2.393   5.849   6.137 -0.1047  0.4052 -0.1646
10129SOL    HW141316   2.488   5.880   6.129  1.1360 -2.6257  1.6156
10129SOL    HW241317   2.346   5.902   6.208  0.8173  0.7375  0.2058
10130SOL     OW41318   8.615   4.897   4.208  0.2946 -0.4931  0.6185
10130SOL    HW141319   8.640   4.915   4.304  2.3698  0.7693 -0.1145
10130SOL    HW241320   8.658   4.966   4.150 -1.1355 -1.1227 -1.2184
10131SOL     OW41321   9.935   7.062   3.428 -0.0667 -0.0272 -0.2105
10131SOL    HW141322   9.876   7.022   3.357 -1.5958 -0.9944  1.5726
10131SOL    HW241323   9.944   7.160   3.412 -0.2769 -0.2512 -1.8277
10132SOL     OW41324   9.505   9.504   4.006 -0.4853 -0.6596 -0.4758
10132SOL    HW141325   9.411   9.518   3.977 -0.0815  1.5806 -0.7758
10132SOL    HW241326   9.512   9.515   4.105 -0.0954  1.8578 -0.7580
10133SOL     OW41327   2.788   5.878   3.243  0.2577 -0.0295  0.4682
10133SOL    HW141328   2.797   5.894   3.145 -0.2552 -1.1577  0.2255
10133SOL    HW241329   2.839   5.947   3.293 -1.2969  1.9021 -0.5416
10134SOL     OW41330   8.682   1.104   5.237  0.1633  0.0732 -0.2726
10134SOL    HW141331   8.648   1.076   5.326 -0.4058  1.5912  0.0135
10134SOL    HW241332   8.781   1.092   5.233  0.0873 -0.7250  0.2849
10135SOL     OW41333   8.070   4.784   2.027 -0.1684  0.5553  0.5143
10135SOL    HW141334   8.092   4.842   1.949 -0.1052 -0.6297 -0.3719
10135SOL    HW241335   8.088   4.833   2.112  1.3891  1.2690 -0.2138
10136SOL     OW41336   8.317   1.113   5.515  0.0916 -0.3367 -0.1741
10136SOL    HW141337   8.377   1.096   5.593  0.4387  1.0039 -0.1372
10136SOL    HW241338   8.223   1.122   5.547  0.1180 -0.6038 -0.0167
10137SOL     OW41339   5.072   9.996   0.673 -0.5303  0.9180 -0.4121
10137SOL    HW141340   5.037   9.919   0.621 -0.9406  0.7027  0.1724
10137SOL    HW241341   5.172   9.989   0.679 -0.4764  0.9737 -1.2001
10138SOL     OW41342   6.193   8.687   2.543 -0.0185 -0.0426  0.6500
10138SOL    HW141343   6.175   8.638   2.628  0.2060  0.3386  0.9232
10138SOL    HW241344   6.284   8.729   2.548 -0.5706  1.1687  0.8020
10139SOL     OW41345   4.463   7.192   1.642  0.3436  0.0018 -0.4620
10139SOL    HW141346   4.380   7.209   1.589  1.0819 -0.0530 -1.6368
10139SOL    HW241347   4.477   7.266   1.708 -0.4571  0.1774 -0.4898
10140SOL     OW41348   9.433   3.663   1.192  0.0682 -0.4058 -0.3178
10140SOL    HW141349   9.391   3.665   1.282 -2.4650 -0.4545 -1.4588
10140SOL    HW241350   9.371   3.619   1.127  2.1271 -0.9619 -1.9569
10141SOL     OW41351   8.361   2.792   1.371  0.4463  0.0726  0.6504
10141SOL    HW141352   8.261   2.790   1.375  0.3842  1.6636  0.5132
10141SOL    HW241353   8.395   2.717   1.315 -0.7988  0.8560 -1.1854
10142SOL     OW41354   8.347   9.496   2.379 -0.3652  0.1257 -0.2803
10142SOL    HW141355   8.260   9.468   2.337  0.4713 -1.7987 -0.7496
10142SOL    HW241356   8.336   9.500   2.479 -0.7019 -1.1485 -0.2648
10143SOL     OW41357   6.449   7.827   4.529 -0.0119  0.0186  0.0113
10143SOL    HW141358   6.395   7.835   4.612 -0.2979 -2.4009  0.1016
10143SOL    HW241359   6.487   7.916   4.505 -0.5699  0.9038  2.2869
10144SOL     OW41360   1.212   8.279   5.071 -0.3594  0.1516 -0.2075
10144SOL    HW141361   1.137   8.307   5.011 -0.6094 -0.6117 -0.2546
10144SOL    HW241362   1.248   8.359   5.119 -2.0608  0.3313  0.8174
10145SOL     OW41363   9.076   6.252   5.483  0.2088  0.1416 -0.0239
10145SOL    HW141364   9.070   6.154   5.465 -0.6117  0.2781 -0.4813
10145SOL    HW241365   9.166   6.272   5.521  0.5800 -0.7091 -0.4249
10146SOL     OW41366   9.283   3.313   2.507 -0.3692 -0.2967 -0.3808
10146SOL    HW141367   9.325   3.364   2.431 -0.2080  0.3881  0.1586
10146SOL    HW241368   9.183   3.320   2.500 -0.3287  1.4535  0.5881
10147SOL     OW41369   8.850   6.758   4.773  0.2962 -0.4616  0.1694
10147SOL    HW141370   8.804   6.844   4.748 -0.1140 -0.8307 -0.3557
10147SOL    HW241371   8.870   6.758   4.871 -1.6901 -0.7050  0.5851
10148SOL     OW41372   6.287   9.723   5.397 -0.2634  0.2994 -0.0841
10148SOL    HW141373   6.305   9.639   5.346 -1.2699  0.9667 -1.5958
10148SOL    HW241374   6.349   9.730   5.474 -0.2704 -1.9058  0.1395
10149SOL     OW41375   9.678   4.606   5.631  0.0337 -0.5048  0.3510
10149SOL    HW141376   9.600   4.546   5.643 -0.1987  0.0102  1.4126
10149SOL    HW241377   9.696   4.617   5.533 -2.2399  0.6661  0.0180
10150SOL     OW41378   2.644   4.478   3.133 -0.0046  0.1406 -0.0312
10150SOL    HW141379   2.682   4.392   3.168  0.0334  0.3910  0.5308
10150SOL    HW241380   2.718   4.532   3.091  0.2672  0.6262  1.0602
10151SOL     OW41381   2.568   6.350   4.037 -0.1752 -0.1996 -0.3915
10151SOL    HW141382   2.630   6.365   4.114 -1.5607 -0.6748  0.8516
10151SOL    HW241383   2.473   6.359   4.069 -0.7704 -0.5427 -2.0156
10152SOL     OW41384   0.246   0.114   1.044  0.5219 -0.8401  0.4061
10152SOL    HW141385   0.241   0.143   0.948  1.6251 -1.0094  0.2927
10152SOL    HW241386   0.341   0.092   1.067  0.1998 -1.1607  1.4336
10153SOL     OW41387   4.324   4.281   0.030  0.8666 -0.1416 -0.0930
10153SOL    HW141388   4.246   4.218   0.034 -0.0998  0.9716 -1.1144
10153SOL    HW241389   4.355   4.290  -0.064 -0.9018  3.1351 -0.4529
10154SOL     OW41390   6.187   9.493   2.556 -0.9033  0.1477 -0.0060
10154SOL    HW141391   6.161   9.433   2.632  3.6185 -0.3456  1.3181
10154SOL    HW241392   6.186   9.588   2.587 -0.3625  0.0541  0.3160
10155SOL     OW41393   4.150   5.696   3.070  0.0044 -0.3035 -0.1349
10155SOL    HW141394   4.118   5.632   3.000 -2.0843  0.1822  0.3490
10155SOL    HW241395   4.165   5.647   3.156  1.8369 -0.7578 -0.6786
10156SOL     OW41396   9.483   1.520   3.654  0.0760 -0.6432  0.3626
10156SOL    HW141397   9.392   1.533   3.615 -0.4288 -3.4859  0.5009
10156SOL    HW241398   9.494   1.425   3.683  2.9108 -0.2143  0.8559
10157SOL     OW41399   5.426   7.671   3.253  0.1478 -0.0203  0.2800
10157SOL    HW141400   5.411   7.761   3.213 -0.6596  1.7794  4.3381
10157SOL    HW241401   5.340   7.622   3.260  0.3141 -0.4048 -0.3344
10158SOL     OW41402   3.133   6.020   5.429  0.4895 -0.5217 -0.2116
10158SOL    HW141403   3.075   5.944   5.457  0.9864 -0.6654  0.4456
10158SOL    HW241404   3.082   6.082   5.370  0.1150 -1.4174 -0.8168
10159SOL     OW41405   9.047   6.794   0.564 -0.8069  0.1058 -0.0150
10159SOL    HW141406   9.068   6.800   0.662  2.2347  0.7205 -0.6383
10159SOL    HW241407   9.043   6.697   0.538  0.0970 -0.0603  0.4129
10160SOL     OW41408   8.361   3.761   4.565 -0.0955  0.2270  0.2731
10160SOL    HW141409   8.333   3.717   4.480  0.0423  2.7922 -1.1570
10160SOL    HW241410   8.452   3.729   4.591  0.2443  0.1103 -1.0346
10161SOL     OW41411   3.984   4.257   2.324 -0.0753 -0.0299 -0.0876
10161SOL    HW141412   3.960   4.322   2.397  0.9212  1.2259 -0.8629
10161SOL    HW241413   4.076   4.277   2.291 -0.7649 -0.1797 -2.1470
10162SOL     OW41414   0.604   2.585   0.608 -0.6395 -0.1761  0.5392
10162SOL    HW141415   0.641   2.611   0.698 -1.9720  1.9336  0.5005
10162SOL    HW241416   0.679   2.577   0.543  0.3518 -1.7464  1.8068
10163SOL     OW41417   0.830   8.722   4.739 -0.2235  0.0387 -0.1116
10163SOL    HW141418   0.866   8.640   4.695  0.8081  0.2086  0.3967
10163SOL    HW241419   0.750   8.755   4.689  1.0772  0.3682 -2.0362
10164SOL     OW41420   0.651   7.394   0.156  0.3513  0.9408 -0.0666
10164SOL    HW141421   0.702   7.310   0.174  0.0204  0.5439 -0.9304
10164SOL    HW241422   0.625   7.397   0.059 -0.1000  1.7812  0.0741
10165SOL     OW41423   5.287   4.883   6.736 -0.7245  0.0501 -0.2141
10165SOL    HW141424   5.229   4.899   6.657 -0.4699  1.2736 -0.1571
10165SOL    HW241425   5.354   4.812   6.714  1.3738  2.5485 -2.1969
10166SOL     OW41426   4.201   7.534   1.730 -0.1921  0.1787  0.4276
10166SOL    HW141427   4.177   7.474   1.806  0.9974 -1.6050 -0.5686
10166SOL    HW241428   4.125   7.597   1.712 -2.6190 -2.8577 -0.2803
10167SOL     OW41429   1.133   7.409   2.194  0.1926  0.1767 -0.6019
10167SOL    HW141430   1.049   7.372   2.155  0.9138 -1.4284 -0.6701
10167SOL    HW241431   1.196   7.335   2.213  0.9523  1.2063  1.0149
10168SOL     OW41432   2.473   2.577   2.547 -0.1649  0.3629 -0.5287
10168SOL    HW141433   2.479   2.516   2.468  0.0689 -1.2752  0.7134
10168SOL    HW241434   2.377   2.586   2.575  0.0635 -2.2550  1.3559
10169SOL     OW41435   5.826   1.290   5.478 -0.0215  0.2759  0.5326
10169SOL    HW141436   5.767   1.318   5.403  0.0435 -1.7620 -0.3370
10169SOL    HW241437   5.774   1.287   5.563 -1.6376 -2.8888 -0.4663
10170SOL     OW41438   4.642   6.983   2.419  0.0793  0.2232 -0.7822
10170SOL    HW141439   4.550   7.009   2.449 -0.3879  1.1870 -2.9799
10170SOL    HW241440   4.635   6.912   2.349  0.9689  0.5372 -1.1973
10171SOL     OW41441   9.379   1.698   2.714  0.6429  0.2983 -0.5848
10171SOL    HW141442   9.292   1.669   2.674  0.6056 -0.1141 -0.2005
10171SOL    HW241443   9.454   1.667   2.655  0.6401 -1.1436  0.1352
10172SOL     OW41444   5.586   1.234   3.060 -0.3442 -0.4084 -0.3450
10172SOL    HW141445   5.633   1.244   3.148 -0.1999  1.5342 -0.6138
10172SOL    HW241446   5.544   1.321   3.034 -3.1674 -1.7998 -0.6720
10173SOL     OW41447   2.549   5.507   4.654 -0.4411 -0.1233  0.6587
10173SOL    HW141448   2.636   5.472   4.621 -1.1368 -1.6764  0.4044
10173SOL    HW241449   2.494   5.540   4.576 -0.2342  0.5163  0.7797
10174SOL     OW41450   8.958   6.893   1.547  0.0639 -0.2148 -0.2663
10174SOL    HW141451   8.909   6.980   1.542 -1.5220 -1.0930 -0.5728
10174SOL    HW241452   8.978   6.872   1.642 -0.3240  0.0825 -0.1131
10175SOL     OW41453   1.431   4.284   3.245  0.1845  0.3616  0.2736
10175SOL    HW141454   1.519   4.303   3.288  0.6583 -0.5052 -0.3070
10175SOL    HW241455   1.393   4.200   3.283 -0.2485  0.5690  0.3034
10176SOL     OW41456   0.535   3.449   2.455 -0.2195 -0.8700 -0.2804
10176SOL    HW141457   0.590   3.524   2.419  0.3760 -0.1028  2.1161
10176SOL    HW241458   0.495   3.397   2.380 -0.3623  1.6399 -1.9821
10177SOL     OW41459   0.460   8.446   2.820 -0.3818  0.1400 -0.2531
10177SOL    HW141460   0.508   8.533   2.833  0.3082 -0.4580  1.2874
10177SOL    HW241461   0.465   8.392   2.904 -0.1252 -1.7330 -1.4286
10178SOL     OW41462   5.653   0.556   4.572 -0.0271  0.2549 -0.4465
10178SOL    HW141463   5.683   0.489   4.505  1.1230  0.2871  0.0188
10178SOL    HW241464   5.652   0.647   4.531 -0.4727  0.1143 -0.7500
10179SOL     OW41465   3.575   7.700   0.373 -0.1432 -0.0021  0.1069
10179SOL    HW141466   3.632   7.713   0.455 -0.2355 -1.0114  0.3408
10179SOL    HW241467   3.632   7.707   0.291  0.5341 -2.0868  0.3768
10180SOL     OW41468   1.689   4.799   6.059  0.0439 -0.1613 -0.2998
10180SOL    HW141469   1.723   4.806   6.154  1.8725  0.2349 -0.9482
10180SOL    HW241470   1.690   4.703   6.030 -4.6558 -0.8493  1.4900
10181SOL     OW41471   5.250   8.054   1.724  0.2585  0.1483  0.3020
10181SOL    HW141472   5.179   8.090   1.784 -1.3686 -0.3668 -1.2587
10181SOL    HW241473   5.286   7.969   1.762 -1.6927 -0.8787 -0.0690
10182SOL     OW41474   2.873   4.079   0.671  0.0133  0.0789  0.3486
10182SOL    HW141475   2.914   3.993   0.641 -2.0843 -0.8142 -0.0500
10182SOL    HW241476   2.773   4.071   0.670 -0.2083  2.2949  0.9772
10183SOL     OW41477   8.161   8.723   3.322  0.3539  0.0815 -0.2159
10183SOL    HW141478   8.231   8.716   3.251  0.3314 -1.9137 -0.0512
10183SOL    HW241479   8.185   8.664   3.399 -0.6935  0.6184  0.5365
10184SOL     OW41480   2.063   0.832   2.551  0.5087  0.3479  0.6504
10184SOL    HW141481   1.974   0.859   2.590  0.2929 -0.5328  0.7684
10184SOL    HW241482   2.121   0.797   2.624  0.2205 -1.0009  0.2349
10185SOL     OW41483   7.390   9.085   1.591 -0.5032 -0.5708  0.3145
10185SOL    HW141484   7.362   9.171   1.634  0.4873 -0.3770  0.5795
10185SOL    HW241485   7.471   9.049   1.637 -0.6615 -1.4262 -0.0719
10186SOL     OW41486   9.135   1.025   1.247  0.5969  0.4641 -0.3701
10186SOL    HW141487   9.073   0.991   1.318 -0.3086 -0.8245 -1.7448
10186SOL    HW241488   9.226   0.989   1.264 -0.2272 -2.2398 -1.4687
10187SOL     OW41489   2.122   4.423   6.733 -0.0378  0.1458 -0.2553
10187SOL    HW141490   2.085   4.516   6.725 -1.7586 -0.5518 -0.5466
10187SOL    HW241491   2.199   4.424   6.797 -1.0755  1.4970  1.0135
10188SOL     OW41492   6.207   0.538   1.850  0.0874  0.3221 -0.1653
10188SOL    HW141493   6.140   0.612   1.850 -0.9688 -0.5940  1.3606
10188SOL    HW241494   6.204   0.491   1.938  1.0924 -1.2328 -0.9411
10189SOL     OW41495   3.028   0.503   3.303  0.8762 -0.0411 -0.1630
10189SOL    HW141496   3.024   0.403   3.314 -1.5084 -0.1030 -1.3105
10189SOL    HW241497   2.997   0.527   3.211 -2.9510  2.0373  1.5788
10190SOL     OW41498   2.053   1.415   4.646  0.0256 -0.0407  0.5507
10190SOL    HW141499   2.077   1.417   4.549 -0.4273 -0.5733  0.4235
10190SOL    HW241500   2.090   1.332   4.688  0.5280  0.3650  0.9178
10191SOL     OW41501   9.679   0.340   0.601  0.5188  0.0864  0.0524
10191SOL    HW141502   9.672   0.435   0.633 -0.8553 -0.4638  1.4246
10191SOL    HW241503   9.749   0.293   0.655  0.4807  0.0463  0.0669
10192SOL     OW41504   2.755   6.273   0.614 -0.6739  0.5930  0.2170
10192SOL    HW141505   2.751   6.211   0.692  1.5950 -0.2642 -0.2966
10192SOL    HW241506   2.779   6.365   0.645  0.7481  0.1424  0.5044
10193SOL     OW41507   9.629   4.515   1.652 -0.4956 -0.2142 -0.2305
10193SOL    HW141508   9.567   4.481   1.723  0.6522 -0.5013  0.6369
10193SOL    HW241509   9.576   4.566   1.584 -1.6184 -0.0226  0.7708
10194SOL     OW41510   2.086   5.425   0.384 -0.1522  0.4234 -0.3720
10194SOL    HW141511   2.009   5.472   0.340 -1.4652 -0.2124  1.2031
10194SOL    HW241512   2.053   5.341   0.428  1.2598  0.6565  1.1707
10195SOL     OW41513   4.607   4.874   2.614  0.1237  0.2403 -0.1242
10195SOL    HW141514   4.613   4.947   2.546  2.0235 -0.8493 -1.1723
10195SOL    HW241515   4.698   4.838   2.632 -0.6686 -1.1695  1.1607
10196SOL     OW41516   9.267   5.564   4.869 -0.1651 -0.3120 -0.3047
10196SOL    HW141517   9.246   5.618   4.788  1.3314 -0.1729 -0.6113
10196SOL    HW241518   9.350   5.510   4.853 -1.2924 -2.2789  0.1938
10197SOL     OW41519   1.134   8.597   5.040 -0.2035  0.7111  0.4817
10197SOL    HW141520   1.076   8.661   4.989 -0.5612  0.3261  0.4003
10197SOL    HW241521   1.181   8.646   5.113 -0.0574  1.1723  0.0865
10198SOL     OW41522   3.577   1.833   3.289  0.2870  0.3678  0.0167
10198SOL    HW141523   3.544   1.742   3.311 -1.0826  0.7513 -0.4148
10198SOL    HW241524   3.564   1.893   3.368  0.6000  0.3485  0.0838
10199SOL     OW41525   3.459   6.960   3.436 -0.8892 -0.3859 -0.0165
10199SOL    HW141526   3.457   7.050   3.480  2.4306 -0.4231  0.3233
10199SOL    HW241527   3.382   6.905   3.469 -1.8709  1.6628  1.1936
10200SOL     OW41528   8.368   1.696   2.439  0.1532 -0.3027 -0.1760
10200SOL    HW141529   8.355   1.794   2.449 -2.6746 -0.4915 -1.2705
10200SOL    HW241530   8.368   1.652   2.529 -0.0133  0.5436  0.2395
10201SOL     OW41531   0.161   3.977   4.562 -0.5898 -0.0266 -0.3146
10201SOL    HW141532   0.108   4.014   4.638 -0.8542 -1.1678  0.0784
10201SOL    HW241533   0.126   3.886   4.538  2.9518 -2.1051  1.9129
10202SOL     OW41534   5.272   2.082   4.462 -0.5570 -0.6196  0.0349
10202SOL    HW141535   5.173   2.094   4.474 -0.5106 -0.0435 -0.1638
10202SOL    HW241536   5.304   2.008   4.521 -0.7882  0.4044  1.4750
10203SOL     OW41537   2.640   3.229   5.114  0.5533  0.5036 -0.3823
10203SOL    HW141538   2.600   3.169   5.044 -1.7025  1.2879  0.1954
10203SOL    HW241539   2.723   3.186   5.151 -0.2227 -1.5987 -0.9915
10204SOL     OW41540   9.329   2.826   5.310  0.1098 -0.5742 -0.2071
10204SOL    HW141541   9.290   2.917   5.298  0.6533 -0.1071  1.5123
10204SOL    HW241542   9.410   2.831   5.369  0.4045 -2.1106 -0.4447
10205SOL     OW41543   8.447   2.567   1.252 -0.2607 -0.6207 -0.0284
10205SOL    HW141544   8.488   2.487   1.296  0.5232 -1.4002 -2.1310
10205SOL    HW241545   8.423   2.545   1.158 -1.5763  1.1356 -0.1221
10206SOL     OW41546   9.322   0.445   3.754  0.0517  0.6202 -0.4354
10206SOL    HW141547   9.409   0.434   3.707  0.2044 -0.4429  0.0899
10206SOL    HW241548   9.247   0.427   3.690  0.2581 -0.8900 -0.2681
10207SOL     OW41549   1.716   4.299   5.068 -0.6444  0.2516 -0.1582
10207SOL    HW141550   1.692   4.330   4.976 -1.4000 -0.1903 -0.1121
10207SOL    HW241551   1.645   4.326   5.132 -0.0678  0.6492  0.3164
10208SOL     OW41552   4.546   1.585   3.386 -0.1154  0.1678 -0.0236
10208SOL    HW141553   4.587   1.539   3.464  0.6924  0.7756 -0.0829
10208SOL    HW241554   4.526   1.518   3.314  3.2536  0.2007 -1.0593
10209SOL     OW41555   9.882   4.909   4.897 -0.0604 -0.0520 -0.7903
10209SOL    HW141556   9.896   5.002   4.930 -1.2191 -0.1377 -0.0442
10209SOL    HW241557   9.951   4.849   4.936 -1.3944 -0.1519  1.5125
10210SOL     OW41558   6.603   7.520   5.435  0.3765 -0.6813  0.8683
10210SOL    HW141559   6.526   7.517   5.371  0.7969 -0.8862  0.3655
10210SOL    HW241560   6.669   7.589   5.404  0.4583 -0.5995  1.2248
10211SOL     OW41561   6.659   2.698   3.103  0.2937  0.0823 -0.1553
10211SOL    HW141562   6.606   2.729   3.024  0.2186  0.5072  0.0603
10211SOL    HW241563   6.745   2.658   3.072 -0.0423 -0.3946 -0.4940
10212SOL     OW41564   2.040   2.008   4.305  0.1151  0.4513 -0.1381
10212SOL    HW141565   1.978   1.947   4.256 -0.1237  0.9601 -0.4680
10212SOL    HW241566   2.059   2.089   4.250  1.1266  0.2792 -0.0694
10213SOL     OW41567   1.876   7.415   4.677 -0.1715  0.2030 -0.0409
10213SOL    HW141568   1.890   7.474   4.598 -3.8370  1.8741  0.4647
10213SOL    HW241569   1.861   7.321   4.647  1.6522  0.2321 -1.1026
10214SOL     OW41570   5.415   3.781   0.318 -0.4932  0.4823  0.3897
10214SOL    HW141571   5.346   3.852   0.335  1.0807  2.1971 -0.1081
10214SOL    HW241572   5.491   3.822   0.267  1.0520 -1.2782  1.2718
10215SOL     OW41573   8.279   0.991   1.657 -0.4828  0.5905 -0.3054
10215SOL    HW141574   8.223   0.949   1.729  0.1618  2.0916  1.1179
10215SOL    HW241575   8.222   1.008   1.577 -1.4368 -0.3164  0.1634
10216SOL     OW41576   9.673   7.309   1.535  0.3150 -0.2550 -0.8279
10216SOL    HW141577   9.666   7.239   1.465  1.5687 -1.0738 -0.1428
10216SOL    HW241578   9.599   7.297   1.602  1.1352 -1.5747 -0.1406
10217SOL     OW41579   4.798   2.296   4.681 -0.4416  0.0702  0.3599
10217SOL    HW141580   4.771   2.231   4.751 -1.6212 -0.3334 -0.4440
10217SOL    HW241581   4.718   2.349   4.652 -0.2764 -0.7062 -1.6275
10218SOL     OW41582   5.674   1.590   1.648  0.5248 -0.2389  0.3853
10218SOL    HW141583   5.773   1.592   1.663  0.5142  2.1516  0.2990
10218SOL    HW241584   5.628   1.630   1.728 -0.4696 -2.6658  1.0548
10219SOL     OW41585   0.925   0.060   4.693  0.0742 -0.0025  0.1609
10219SOL    HW141586   0.948   0.156   4.677  1.1018 -0.2945 -0.1604
10219SOL    HW241587   0.985   0.002   4.639 -0.3480 -0.8410  0.5785
10220SOL     OW41588   1.508   4.868   2.206  0.1460  0.5279  0.0398
10220SOL    HW141589   1.457   4.929   2.146  0.2206 -0.6560 -1.2278
10220SOL    HW241590   1.578   4.820   2.154  1.8997  1.3637  1.5549
10221SOL     OW41591   5.343   6.234   2.339  0.1819 -0.1838  0.2327
10221SOL    HW141592   5.292   6.313   2.371  0.0874 -0.8670  1.8258
10221SOL    HW241593   5.399   6.259   2.260 -0.3725  1.2822  0.3013
10222SOL     OW41594   3.788   4.396   1.866 -0.4403  0.2363 -0.4887
10222SOL    HW141595   3.730   4.471   1.896  0.3814  1.3080 -1.5439
10222SOL    HW241596   3.835   4.356   1.945  1.1820  2.5827 -0.2121
10223SOL     OW41597   9.833   9.912   0.894 -0.6509  0.3110 -0.3375
10223SOL    HW141598   9.899   9.916   0.968 -0.6093  1.6017 -0.4232
10223SOL    HW241599   9.787   9.824   0.894  0.9910 -0.5677 -0.2101
10224SOL     OW41600   0.001   4.169   1.727  0.2421  0.3191  0.0077
10224SOL    HW141601   0.015   4.094   1.663 -1.0468 -2.2846  2.6253
10224SOL    HW241602  -0.077   4.224   1.698  0.9172  0.3895 -1.7028
10225SOL     OW41603   1.070   6.627   3.646  0.8060 -0.1891  0.5141
10225SOL    HW141604   1.099   6.709   3.597 -0.0368 -0.2241 -0.0637
10225SOL    HW241605   1.143   6.558   3.643  0.5981 -0.3532 -1.0906
10226SOL     OW41606   9.740   7.893   1.110  0.5227  0.0670 -0.7377
10226SOL    HW141607   9.801   7.817   1.086  1.3490  0.4816  0.0161
10226SOL    HW241608   9.757   7.920   1.204  0.7453  1.6832 -1.2348
10227SOL     OW41609   0.148   7.153   1.992  0.0088 -0.0949  0.3230
10227SOL    HW141610   0.064   7.104   1.971  0.1452 -0.0915 -0.2391
10227SOL    HW241611   0.222   7.121   1.932  0.2834  0.2616  0.4649
10228SOL     OW41612   6.618   0.943   4.074 -0.1047 -0.7579 -0.7722
10228SOL    HW141613   6.709   0.978   4.051 -0.1244 -0.2646 -0.1158
10228SOL    HW241614   6.618   0.843   4.069  0.5152 -0.7663 -0.6202
10229SOL     OW41615   0.707   5.301   2.782  0.4675  0.2973  0.7126
10229SOL    HW141616   0.722   5.371   2.712 -0.1652  0.8814  1.1444
10229SOL    HW241617   0.762   5.323   2.863  1.6348 -0.6884  0.1948
10230SOL     OW41618   2.336   6.444   4.154 -0.3391 -0.0807 -0.1502
10230SOL    HW141619   2.391   6.528   4.159  0.8303 -0.8976  1.5654
10230SOL    HW241620   2.250   6.458   4.203 -0.4253  0.3272 -0.4174
10231SOL     OW41621   9.212   6.010   5.199  0.1638  0.1374  0.7057
10231SOL    HW141622   9.273   5.966   5.134 -0.5321 -0.5965  0.5401
10231SOL    HW241623   9.126   6.035   5.153  0.0777  0.5602  1.0911
10232SOL     OW41624   2.881   4.630   2.632 -0.0436 -0.1084 -0.1652
10232SOL    HW141625   2.883   4.714   2.578 -0.3949 -0.0799 -0.1360
10232SOL    HW241626   2.792   4.586   2.622 -0.3131  0.1835  0.8239
10233SOL     OW41627   9.558   2.158   4.909 -0.3020  0.1876 -0.5367
10233SOL    HW141628   9.617   2.080   4.886 -0.6255  0.3960 -2.1374
10233SOL    HW241629   9.612   2.228   4.956  0.8355  0.4988 -2.2380
10234SOL     OW41630   6.102   7.715   3.904  0.0174  0.7075  0.5353
10234SOL    HW141631   6.105   7.812   3.928  3.3573  0.3051  2.0343
10234SOL    HW241632   6.191   7.687   3.868 -0.7982 -1.8949  0.4563
10235SOL     OW41633   9.892   4.175   3.005  0.0682  0.1293  0.7030
10235SOL    HW141634   9.889   4.148   3.102  1.9632 -2.1074  0.1824
10235SOL    HW241635   9.854   4.101   2.949 -1.9407  1.8192 -0.2330
10236SOL     OW41636   3.205   8.597   2.253  0.1073  0.6331 -0.0476
10236SOL    HW141637   3.178   8.511   2.294 -0.0671  0.2114 -1.0342
10236SOL    HW241638   3.203   8.589   2.153  2.3245  1.0605 -0.1558
10237SOL     OW41639   0.458   6.891   6.483  0.2485 -0.4135  0.3470
10237SOL    HW141640   0.482   6.893   6.580 -1.4218 -0.3968  0.7673
10237SOL    HW241641   0.408   6.975   6.459  1.9549  0.2927 -0.8911
10238SOL     OW41642   1.162   3.872   1.038 -0.2518  0.3035 -0.0270
10238SOL    HW141643   1.147   3.792   1.098 -0.2466 -0.0225 -0.4601
10238SOL    HW241644   1.121   3.953   1.081 -0.4196  0.0340  0.3307
10239SOL     OW41645   0.945   5.628   1.970  0.3709  0.2945 -0.0731
10239SOL    HW141646   0.974   5.592   1.881  0.5808  0.3715 -0.0361
10239SOL    HW241647   1.024   5.661   2.020  0.0557  1.8980 -0.5967
10240SOL     OW41648   3.497   3.034   1.020  0.3218 -0.2576  0.7499
10240SOL    HW141649   3.497   3.133   1.012 -0.8943 -0.3322 -0.2668
10240SOL    HW241650   3.578   3.005   1.071  1.5539  1.1257 -0.3916
10241SOL     OW41651   5.410   9.879   4.347  0.0420  0.1337  0.9653
10241SOL    HW141652   5.359   9.958   4.381  0.5659  0.4274  1.0712
10241SOL    HW241653   5.450   9.901   4.258  0.9603  0.3066  1.4175
10242SOL     OW41654   8.786   1.368   4.034 -0.0687 -0.0361  0.1825
10242SOL    HW141655   8.874   1.408   4.060  0.2150 -1.0543  0.8440
10242SOL    HW241656   8.775   1.371   3.935  1.2883 -1.0405 -0.0197
10243SOL     OW41657   2.279   2.922   1.535  0.1386 -0.2321 -0.0234
10243SOL    HW141658   2.295   2.834   1.489  2.0241 -0.0782  0.2668
10243SOL    HW241659   2.367   2.967   1.550 -0.7447  1.2849  0.6745
10244SOL     OW41660   6.780   1.658   0.667 -0.1841 -0.0830  0.1454
10244SOL    HW141661   6.863   1.715   0.661  0.0544 -0.5943 -1.5244
10244SOL    HW241662   6.803   1.563   0.648 -0.6770 -0.7044  2.4782
10245SOL     OW41663   9.653   0.330   4.421 -0.5792  0.1893 -0.2744
10245SOL    HW141664   9.566   0.298   4.385 -0.9461  0.5600  0.2735
10245SOL    HW241665   9.650   0.429   4.433 -0.1329  0.1866 -0.1142
10246SOL     OW41666   7.804   6.738   4.564  0.0254  0.3890 -1.0292
10246SOL    HW141667   7.892   6.779   4.588  0.4535 -0.3657 -1.2838
10246SOL    HW241668   7.739   6.750   4.639  0.1306  1.5602 -1.1171
10247SOL     OW41669   8.746   7.885   4.111 -0.0720  0.1716  0.1897
10247SOL    HW141670   8.827   7.915   4.061 -1.5473  0.5718 -1.9942
10247SOL    HW241671   8.743   7.785   4.112  0.6041  0.1455  0.5816
10248SOL     OW41672   0.634   0.949   3.324 -0.5398  0.0083  0.0916
10248SOL    HW141673   0.710   0.915   3.269 -0.8518  0.8600 -0.8889
10248SOL    HW241674   0.575   1.008   3.268 -1.0989  0.5654  1.2264
10249SOL     OW41675   0.044   5.386   4.837  0.1859 -0.6502 -0.0861
10249SOL    HW141676  -0.007   5.466   4.869 -0.6877 -1.8932  1.7083
10249SOL    HW241677   0.141   5.397   4.859  0.0708 -0.0759  0.1420
10250SOL     OW41678   3.064   2.820   2.837  0.1181 -0.1158  0.0341
10250SOL    HW141679   2.984   2.864   2.796 -1.6467  0.7445  4.1532
10250SOL    HW241680   3.125   2.890   2.874  1.0192 -0.9101  0.0678
10251SOL     OW41681   4.920   3.449   2.372  0.0350  0.1804  0.1208
10251SOL    HW141682   4.929   3.493   2.282 -0.1456 -0.1386 -0.0566
10251SOL    HW241683   4.984   3.491   2.436  0.4994  0.1013 -0.2819
10252SOL     OW41684   9.103   8.079   3.964 -0.7021 -0.4675 -0.5766
10252SOL    HW141685   9.146   8.024   4.035 -0.2161  0.5876 -0.0385
10252SOL    HW241686   9.109   8.176   3.988 -1.6971 -0.1768 -1.4206
10253SOL     OW41687   2.758   3.220   0.490  0.3881 -0.2107  0.0523
10253SOL    HW141688   2.669   3.210   0.535 -0.8839  0.0332 -2.3491
10253SOL    HW241689   2.816   3.281   0.545 -0.3627 -1.5496  2.4038
10254SOL     OW41690   5.144   4.378   0.142 -0.3510 -0.0968  0.1858
10254SOL    HW141691   5.242   4.358   0.133 -0.3965 -0.8707  1.1895
10254SOL    HW241692   5.110   4.417   0.057  0.4411 -1.5305 -0.8151
10255SOL     OW41693   6.952   0.850   4.326  0.4329  0.4133  0.0468
10255SOL    HW141694   6.927   0.774   4.266  2.7556  1.0417 -1.7857
10255SOL    HW241695   6.868   0.895   4.359 -0.9099 -0.9127 -1.4690
10256SOL     OW41696   1.439   0.710   1.958 -0.0548  0.1094 -0.0506
10256SOL    HW141697   1.450   0.795   2.009  1.7635  0.4852 -1.0444
10256SOL    HW241698   1.364   0.720   1.892  0.4599  1.0870 -0.4874
10257SOL     OW41699   9.509   7.310   5.747 -0.2704  0.2345  0.1895
10257SOL    HW141700   9.565   7.390   5.770  2.3650 -1.8603  1.2466
10257SOL    HW241701   9.507   7.299   5.647  0.9387  0.5105  0.1313
10258SOL     OW41702   3.775   9.031   3.520  0.2191  0.6468  0.5130
10258SOL    HW141703   3.713   9.064   3.592 -2.3142 -0.9117 -0.8773
10258SOL    HW241704   3.770   8.931   3.515  1.1262  0.6642 -1.1620
10259SOL     OW41705   4.622   0.431   1.313  0.7048  0.6335 -0.3837
10259SOL    HW141706   4.567   0.488   1.374  2.7224  1.0349  1.0905
10259SOL    HW241707   4.663   0.356   1.364  0.1325 -0.6992 -1.8301
10260SOL     OW41708   6.240   8.668   4.346 -0.3711 -0.2934  0.0658
10260SOL    HW141709   6.261   8.578   4.383  0.4872 -0.8480 -1.7289
10260SOL    HW241710   6.325   8.721   4.338 -0.8284  0.5796  0.8181
10261SOL     OW41711   4.989   4.850   6.621  0.2403  0.6571  0.0372
10261SOL    HW141712   4.898   4.891   6.621 -1.2391 -2.4370  1.6553
10261SOL    HW241713   5.025   4.849   6.528 -2.2008  0.1707 -0.9433
10262SOL     OW41714   7.903   7.368   4.326 -0.7266 -0.1378 -0.2881
10262SOL    HW141715   7.843   7.382   4.404 -1.2128  1.1507 -0.8914
10262SOL    HW241716   7.987   7.422   4.338 -1.0950  0.5959 -0.9695
10263SOL     OW41717   8.551   7.851   0.248  0.2842  0.0503  0.1170
10263SOL    HW141718   8.577   7.805   0.163  1.1959 -0.2234  0.5325
10263SOL    HW241719   8.577   7.793   0.326 -1.4952 -0.1909  0.5591
10264SOL     OW41720   5.049   2.616   0.393  0.1544  0.1863  0.7187
10264SOL    HW141721   5.049   2.706   0.436 -1.0738  0.6032 -0.1494
10264SOL    HW241722   4.957   2.593   0.362  1.0447  0.1073 -2.0889
10265SOL     OW41723   8.936   5.727   0.633  0.0324  0.9102  0.0953
10265SOL    HW141724   8.947   5.649   0.695  0.0653  0.9112  0.0905
10265SOL    HW241725   8.946   5.697   0.538 -1.9702  0.5582 -0.0134
10266SOL     OW41726   0.533   8.869   3.432 -0.4692  0.1637 -0.2592
10266SOL    HW141727   0.507   8.798   3.367  0.7556 -0.6282  0.1073
10266SOL    HW241728   0.455   8.890   3.492 -0.7241 -1.1164 -0.1381
10267SOL     OW41729   8.384   7.798   1.427 -0.1533  0.0743 -0.6903
10267SOL    HW141730   8.397   7.894   1.404  2.3546 -0.3330 -1.0752
10267SOL    HW241731   8.466   7.746   1.404 -1.6046 -2.2456 -0.8623
10268SOL     OW41732   3.816   2.756   2.403 -0.1799 -0.0013  0.1842
10268SOL    HW141733   3.747   2.727   2.469  0.0953 -1.2436 -0.0681
10268SOL    HW241734   3.798   2.712   2.315  0.0503  0.8544 -0.2975
10269SOL     OW41735   3.449   9.232   2.333 -0.5371 -0.0008  0.0749
10269SOL    HW141736   3.418   9.197   2.245 -0.6242  0.3378 -0.0314
10269SOL    HW241737   3.549   9.228   2.338 -0.3773  2.0464 -0.9314
10270SOL     OW41738   2.503   3.299   3.927  0.1996 -0.0549 -0.7983
10270SOL    HW141739   2.469   3.352   4.005  1.2222  2.3924 -1.9620
10270SOL    HW241740   2.584   3.247   3.955  0.6467  0.9196 -0.2575
10271SOL     OW41741   8.365   3.774   2.133  0.1714  0.1863  0.3215
10271SOL    HW141742   8.416   3.809   2.211  0.6121 -1.0906  0.6066
10271SOL    HW241743   8.269   3.763   2.158  0.4943 -1.1725  0.9987
10272SOL     OW41744   4.259   4.956   0.135  0.3886  0.1094  0.2649
10272SOL    HW141745   4.201   4.879   0.109  1.0744  0.1885 -1.5858
10272SOL    HW241746   4.355   4.932   0.119  0.8693  0.0444  3.1081
10273SOL     OW41747   3.859   2.676   1.748 -0.1104  0.5693 -0.1249
10273SOL    HW141748   3.796   2.747   1.778 -1.0187  0.0893 -0.8534
10273SOL    HW241749   3.858   2.601   1.814 -1.6742 -0.2306 -1.0158
10274SOL     OW41750   4.509   0.458   2.749 -0.3892  0.0250  0.6336
10274SOL    HW141751   4.554   0.527   2.806  1.3375 -0.8446  0.3405
10274SOL    HW241752   4.570   0.432   2.674 -2.4092  0.7550 -1.3140
10275SOL     OW41753   0.415   6.793   2.640 -0.1013 -0.1849  0.1101
10275SOL    HW141754   0.479   6.818   2.568 -0.5661  0.4344 -0.0969
10275SOL    HW241755   0.441   6.705   2.679  0.0339 -0.6181 -0.9465
10276SOL     OW41756   5.428   0.284   2.363 -0.3194  0.3638  0.0794
10276SOL    HW141757   5.361   0.210   2.369 -0.1648  0.0589 -1.7200
10276SOL    HW241758   5.520   0.246   2.359 -0.2133  0.6513 -0.3648
10277SOL     OW41759   8.117   0.307   4.320  0.0038 -0.5286 -0.3908
10277SOL    HW141760   8.028   0.271   4.347  0.7249 -0.5831  1.9929
10277SOL    HW241761   8.188   0.241   4.343  0.8537  0.3741 -0.4156
10278SOL     OW41762   2.434   4.421   3.697  0.4243 -0.2656 -0.2005
10278SOL    HW141763   2.497   4.349   3.724  0.7651  0.0570 -0.1214
10278SOL    HW241764   2.453   4.450   3.603  0.6678  0.1181 -0.0345
10279SOL     OW41765   2.969   6.290   2.741 -0.3999 -0.4388 -0.0414
10279SOL    HW141766   3.005   6.346   2.667 -0.0887  0.0045  0.4412
10279SOL    HW241767   2.871   6.307   2.751 -0.3166 -0.0186  0.0704
10280SOL     OW41768   1.466   7.576   4.875 -0.0802 -0.3543  0.1904
10280SOL    HW141769   1.476   7.500   4.939 -0.7085  0.8659  1.7876
10280SOL    HW241770   1.461   7.662   4.926 -1.2028  0.6024 -1.4658
10281SOL     OW41771   0.463   6.026   6.314 -0.5813  0.0792  0.3299
10281SOL    HW141772   0.444   6.124   6.312  0.4140  0.2685 -0.1775
10281SOL    HW241773   0.529   6.003   6.242 -0.8289 -0.9701  0.4201
10282SOL     OW41774   6.860   9.575   2.956  0.7192  0.0989  0.1545
10282SOL    HW141775   6.922   9.500   2.937 -0.9827 -1.2846 -0.0361
10282SOL    HW241776   6.784   9.574   2.891 -0.2649  0.9014  1.2567
10283SOL     OW41777   9.752   8.044   2.362  0.0703  0.3880 -0.0611
10283SOL    HW141778   9.794   8.135   2.368  1.6726 -0.3244 -0.1688
10283SOL    HW241779   9.824   7.975   2.354 -1.1865 -0.7809 -1.4526
10284SOL     OW41780   2.899   1.803   1.497  0.4294  0.3277  0.4981
10284SOL    HW141781   2.926   1.731   1.433 -2.5946  0.5541 -1.1675
10284SOL    HW241782   2.909   1.892   1.452  0.1831  0.6287  1.0397
10285SOL     OW41783   4.823   3.321   4.846 -0.1704  0.6418 -0.5866
10285SOL    HW141784   4.860   3.236   4.883 -0.8954  1.1249  1.2986
10285SOL    HW241785   4.731   3.336   4.883  0.9744  3.5709  1.2454
10286SOL     OW41786   2.637   4.908   2.675 -0.2108  0.0955 -0.0369
10286SOL    HW141787   2.689   4.991   2.695  0.2650 -0.6729  1.9881
10286SOL    HW241788   2.677   4.861   2.596  0.3832  1.0377 -0.2945
10287SOL     OW41789   9.871   6.156   5.893 -0.2181 -0.2592 -0.4076
10287SOL    HW141790   9.803   6.128   5.961  0.0060  1.0803  0.4020
10287SOL    HW241791   9.824   6.184   5.809 -0.6775  0.4932  0.0861
10288SOL     OW41792   5.946   7.945   4.526  0.2357 -0.1204 -0.3035
10288SOL    HW141793   5.963   7.855   4.485  1.0040 -1.2507  2.3525
10288SOL    HW241794   5.936   7.934   4.625  0.3231  2.7462  0.0518
10289SOL     OW41795   0.981   2.628   4.171 -0.2096 -0.3687 -0.2399
10289SOL    HW141796   1.054   2.688   4.202  0.4209 -1.1929 -0.0982
10289SOL    HW241797   0.997   2.535   4.206 -2.8291  0.0153  2.1419
10290SOL     OW41798   9.284   1.180   2.200  0.0426  0.1612  0.3188
10290SOL    HW141799   9.255   1.089   2.229 -1.2755  0.8615  1.2275
10290SOL    HW241800   9.384   1.186   2.203  0.1420 -1.3033  0.0804
10291SOL     OW41801   5.258   4.060   0.717 -0.1755  0.0263  0.2242
10291SOL    HW141802   5.291   4.107   0.799  0.7072 -0.4593  0.1455
10291SOL    HW241803   5.252   4.126   0.642  2.0233 -0.1751 -0.1542
10292SOL     OW41804   8.003   6.634   4.361 -0.4721  0.0244 -0.0094
10292SOL    HW141805   7.998   6.732   4.342  0.1591 -0.1087 -0.8934
10292SOL    HW241806   7.923   6.588   4.322  0.6640 -0.2047 -2.1523
10293SOL     OW41807   1.080   8.068   2.298  0.0233  0.3360 -0.3618
10293SOL    HW141808   1.115   7.975   2.309 -1.3845 -0.2443 -0.7153
10293SOL    HW241809   1.017   8.089   2.373  0.6741  1.1670 -0.0415
10294SOL     OW41810   4.812   4.586   3.690 -0.5152  0.5645  0.4908
10294SOL    HW141811   4.791   4.629   3.602 -1.4439  2.2346  1.4945
10294SOL    HW241812   4.911   4.585   3.703 -0.4397  1.9588  0.1936
10295SOL     OW41813   0.281   9.859   1.456 -0.0603  0.5144 -0.0583
10295SOL    HW141814   0.370   9.850   1.411 -0.0477  0.6811 -0.0677
10295SOL    HW241815   0.264   9.955   1.476 -1.3399  0.7868 -2.2880
10296SOL     OW41816   7.960   2.961   1.146  0.1308  0.2113  0.2012
10296SOL    HW141817   8.026   3.037   1.139 -0.0452  0.4359  1.0082
10296SOL    HW241818   7.871   2.991   1.113  0.2794  0.0823 -0.3309
10297SOL     OW41819   8.105   2.054   3.620 -0.4687  0.0991 -0.3443
10297SOL    HW141820   8.078   1.959   3.638 -0.6055  0.1097 -0.4960
10297SOL    HW241821   8.191   2.073   3.666 -0.8787  0.1588  0.4052
10298SOL     OW41822   0.323   1.876   2.710 -0.7587  0.4241  0.0594
10298SOL    HW141823   0.389   1.801   2.704 -2.1319 -0.6984 -1.3823
10298SOL    HW241824   0.331   1.921   2.800  1.5765 -0.0246  0.1000
10299SOL     OW41825   4.915   8.694   2.010  0.0885 -0.6760  0.1144
10299SOL    HW141826   4.967   8.624   1.960 -0.5529 -0.1764 -1.2958
10299SOL    HW241827   4.855   8.742   1.946  2.2885  2.8462  0.5674
10300SOL     OW41828   0.520   0.137   4.421  0.4241  0.2702  0.1921
10300SOL    HW141829   0.551   0.042   4.415 -2.1225 -0.5856 -0.1867
10300SOL    HW241830   0.535   0.171   4.514 -0.5669 -1.2386  0.9339
10301SOL     OW41831   3.661   8.723   1.616 -0.1028 -0.1212 -0.0384
10301SOL    HW141832   3.761   8.719   1.617  0.1025  3.2136 -1.4652
10301SOL    HW241833   3.628   8.711   1.523 -1.0404 -0.9134  0.3896
10302SOL     OW41834   2.136   6.631   6.629  0.7408  0.0119 -0.2419
10302SOL    HW141835   2.050   6.682   6.628  1.1349  0.7799  1.5767
10302SOL    HW241836   2.209   6.690   6.663  1.9933 -0.6347 -1.7837
10303SOL     OW41837   6.650   1.513   2.269  0.3715 -0.2535 -0.5466
10303SOL    HW141838   6.608   1.424   2.289  0.2130  0.0727  0.5512
10303SOL    HW241839   6.736   1.522   2.319  0.0220  0.5224 -0.0812
10304SOL     OW41840   6.768   8.887   2.568 -0.3917  0.2443 -0.5530
10304SOL    HW141841   6.752   8.839   2.655 -0.4959 -1.1683 -1.3400
10304SOL    HW241842   6.827   8.831   2.510 -0.0173  1.3597 -1.2536
10305SOL     OW41843   3.696   3.849   3.876 -0.5662 -0.0963  0.2582
10305SOL    HW141844   3.761   3.775   3.894 -0.3850  0.3158  1.3555
10305SOL    HW241845   3.673   3.894   3.962 -2.3277 -0.2558 -0.1123
10306SOL     OW41846   2.908   4.068   5.353 -0.1200  0.1852 -0.7399
10306SOL    HW141847   2.949   4.159   5.363 -2.3236  1.1849 -0.4904
10306SOL    HW241848   2.859   4.062   5.266 -1.6618 -0.0440  0.1184
10307SOL     OW41849   8.997   0.863   4.769 -0.5598  0.0691  0.1907
10307SOL    HW141850   9.074   0.854   4.706  0.2854 -2.1318  1.4907
10307SOL    HW241851   9.007   0.946   4.824  1.0746 -0.4176  0.6249
10308SOL     OW41852   5.155   2.499   2.662  0.0914  0.0567 -0.6217
10308SOL    HW141853   5.094   2.571   2.628  1.1191  0.3002 -2.0111
10308SOL    HW241854   5.242   2.503   2.613  0.8105 -1.0247  0.5258
10309SOL     OW41855   1.745   3.205   3.890  0.6357  0.0005 -0.0657
10309SOL    HW141856   1.669   3.256   3.931 -0.4350 -0.3598 -1.5833
10309SOL    HW241857   1.759   3.120   3.940 -0.0036  0.0348  0.1747
10310SOL     OW41858   2.267   2.656   4.722 -0.7275 -0.1279  0.0761
10310SOL    HW141859   2.191   2.596   4.747 -0.7588  0.1411  0.6299
10310SOL    HW241860   2.232   2.747   4.702 -0.6268 -0.1765 -0.3285
10311SOL     OW41861   1.808   2.926   3.280 -0.1992  0.4105 -0.3172
10311SOL    HW141862   1.889   2.870   3.296 -0.5284 -0.2682 -0.9837
10311SOL    HW241863   1.832   3.004   3.222  0.2882  1.0512  0.7222
10312SOL     OW41864   7.394   4.596   0.430 -0.3385  0.0939 -0.4630
10312SOL    HW141865   7.366   4.514   0.479 -0.1810 -0.0128 -0.5491
10312SOL    HW241866   7.403   4.575   0.332 -1.9482  0.6262 -0.7439
10313SOL     OW41867   6.703   8.023   5.451 -0.0045 -0.2931  0.3260
10313SOL    HW141868   6.732   8.114   5.422  2.1069 -0.5839  1.4365
10313SOL    HW241869   6.637   8.031   5.526  0.0330  0.3091  0.2972
10314SOL     OW41870   9.077   0.241   5.154  0.6483  0.4011  0.7299
10314SOL    HW141871   9.137   0.313   5.119  0.3160  0.5067  0.3765
10314SOL    HW241872   8.985   0.277   5.165  0.4156 -0.0464  0.2793
10315SOL     OW41873   4.421   9.915   1.575  0.1017 -0.0823  0.0435
10315SOL    HW141874   4.509   9.959   1.554  0.9856 -1.4044  0.8961
10315SOL    HW241875   4.367   9.907   1.492  0.7292  0.8686 -0.4693
10316SOL     OW41876   1.809   4.975   2.905  0.5398 -0.5880  0.0672
10316SOL    HW141877   1.780   4.903   2.968  2.7962 -0.7775  0.9411
10316SOL    HW241878   1.885   4.943   2.849  0.9173  0.7675 -0.2225
10317SOL     OW41879   4.364   7.234   4.269  0.6792 -0.3094 -0.0827
10317SOL    HW141880   4.330   7.304   4.206  1.6930 -0.2785 -0.6015
10317SOL    HW241881   4.328   7.251   4.361 -0.8915 -0.4054 -0.6520
10318SOL     OW41882   9.592   9.296   2.344  0.1344  0.4289 -0.3742
10318SOL    HW141883   9.542   9.381   2.362  1.2627  1.1929 -0.8541
10318SOL    HW241884   9.546   9.245   2.271 -1.4624 -0.1642  0.9974
10319SOL     OW41885   6.743   6.793   3.792 -0.5244  0.3041  0.2736
10319SOL    HW141886   6.656   6.761   3.755 -0.9167  2.1836 -0.4998
10319SOL    HW241887   6.733   6.813   3.889 -0.3104 -1.7299  0.7339
10320SOL     OW41888   9.495   4.852   5.340  0.1753  0.1014 -0.5328
10320SOL    HW141889   9.548   4.815   5.264 -1.4491 -0.1295 -1.5611
10320SOL    HW241890   9.468   4.946   5.320 -0.6243 -0.1048 -0.4485
10321SOL     OW41891   2.230   1.975   0.938  0.2965  0.2329 -0.0924
10321SOL    HW141892   2.238   1.898   0.875 -0.3127  0.0295  0.0836
10321SOL    HW241893   2.312   1.979   0.996  1.1313  0.7697 -1.2782
10322SOL     OW41894   3.593   2.704   2.559  0.5705 -0.5017 -0.0473
10322SOL    HW141895   3.538   2.745   2.486  0.3658 -1.2682 -0.3344
10322SOL    HW241896   3.600   2.767   2.636 -0.3556 -0.2288 -0.1870
10323SOL     OW41897   9.022   8.274   1.858  0.2356  0.4010 -0.4040
10323SOL    HW141898   9.115   8.312   1.861  0.1044  0.6885  0.1422
10323SOL    HW241899   9.021   8.195   1.797  1.6144 -1.6505  2.1088
10324SOL     OW41900   1.962   4.704   0.070 -0.2912  0.6777 -0.4052
10324SOL    HW141901   1.980   4.791   0.117 -2.2384  0.6236  0.4867
10324SOL    HW241902   1.916   4.723  -0.016  1.6063  0.6592 -1.4563
10325SOL     OW41903   9.905   7.193   4.921 -0.4688 -0.5067 -0.1313
10325SOL    HW141904   9.877   7.209   4.826 -0.8722 -0.6788 -0.0430
10325SOL    HW241905   9.824   7.177   4.977 -0.3386  1.0852  0.5296
10326SOL     OW41906   7.442   0.991   1.240 -0.5090  0.6946 -0.2321
10326SOL    HW141907   7.485   0.940   1.165 -0.1361 -1.7418  1.5660
10326SOL    HW241908   7.506   1.059   1.275  0.2023  0.2116 -0.5750
10327SOL     OW41909   5.836   7.308   3.286 -0.1065  0.7557  0.0610
10327SOL    HW141910   5.803   7.338   3.197  0.1842  0.7787 -0.0406
10327SOL    HW241911   5.936   7.301   3.284 -0.3161 -3.6215 -1.0256
10328SOL     OW41912   3.584   4.558   1.924 -0.2312  0.0668  0.0162
10328SOL    HW141913   3.576   4.658   1.922 -0.5122  0.0213 -1.8199
10328SOL    HW241914   3.500   4.518   1.887 -0.3547 -0.8759  1.2936
10329SOL     OW41915   1.222   4.009   5.695  0.3975  0.0475 -0.0845
10329SOL    HW141916   1.283   3.931   5.684 -0.6686 -0.8879  0.5875
10329SOL    HW241917   1.163   3.995   5.775  0.8840  1.9997  0.6594
10330SOL     OW41918   1.695   5.086   3.508 -0.6067  0.2659 -0.0698
10330SOL    HW141919   1.718   5.175   3.470  0.9184 -0.6194 -1.2900
10330SOL    HW241920   1.600   5.063   3.485 -0.0423  0.2141 -2.4940
10331SOL     OW41921   1.519   4.670   0.153 -0.0304 -0.3214 -0.1460
10331SOL    HW141922   1.478   4.696   0.065 -1.7804  0.1651  0.7965
10331SOL    HW241923   1.559   4.751   0.196  0.7906 -0.5528 -0.4648
10332SOL     OW41924   3.944   2.916   4.764 -0.0691  0.0810 -0.0792
10332SOL    HW141925   3.852   2.890   4.792 -0.0736  0.9088  0.6965
10332SOL    HW241926   3.943   2.949   4.670 -0.6708  0.6691  0.1305
10333SOL     OW41927   4.064   3.208   0.310  0.1909 -0.2145  0.4443
10333SOL    HW141928   3.983   3.169   0.266  0.2777 -0.1328  0.2096
10333SOL    HW241929   4.139   3.211   0.244  0.1481  0.4587  0.4259
10334SOL     OW41930   0.635   5.067   1.440  0.1158  0.0854 -0.0905
10334SOL    HW141931   0.721   5.017   1.426  0.0967 -0.1686  0.6764
10334SOL    HW241932   0.650   5.164   1.422  0.8646  0.2197  1.2178
10335SOL     OW41933   1.513   4.280   3.559 -0.2886 -0.0972  0.0577
10335SOL    HW141934   1.558   4.307   3.644  0.6735  0.0296 -0.4832
10335SOL    HW241935   1.416   4.301   3.564  0.0357  1.3184  0.5400
10336SOL     OW41936   8.180   3.796   3.450 -0.3300 -0.2726  0.2067
10336SOL    HW141937   8.208   3.700   3.454 -0.6614 -0.3776  0.0800
10336SOL    HW241938   8.222   3.846   3.526  1.6325 -0.0314 -1.0157
10337SOL     OW41939   0.069   8.601   2.752  0.2117 -0.5025  0.1972
10337SOL    HW141940   0.007   8.630   2.825 -0.4022  0.6529 -0.7696
10337SOL    HW241941   0.145   8.665   2.745  0.8389 -1.2124  0.5411
10338SOL     OW41942   8.429   9.412   0.521  0.0866 -0.0359  0.0023
10338SOL    HW141943   8.509   9.367   0.560  0.0221  0.5609  0.8331
10338SOL    HW241944   8.372   9.448   0.595 -0.7961 -0.1972 -0.5938
10339SOL     OW41945   2.160   4.882   5.506  0.5073  0.0312  0.2532
10339SOL    HW141946   2.127   4.911   5.596 -1.4407 -0.6737 -0.2052
10339SOL    HW241947   2.235   4.941   5.477  1.0802  0.3443  2.2797
10340SOL     OW41948   3.487   3.646   1.434  0.0824 -0.2914 -0.5767
10340SOL    HW141949   3.450   3.554   1.442 -0.6674 -0.0229 -0.8694
10340SOL    HW241950   3.421   3.712   1.472  0.4679  0.1469 -0.6628
10341SOL     OW41951   2.015   7.627   6.495  0.5677  0.4893 -0.3258
10341SOL    HW141952   2.103   7.583   6.514 -0.5180 -1.4506  0.3791
10341SOL    HW241953   1.954   7.561   6.452 -0.7840  1.6286 -0.1755
10342SOL     OW41954   1.550   4.635   3.704  0.0345  0.3895 -0.0507
10342SOL    HW141955   1.558   4.551   3.758  1.2972  1.3095  1.2108
10342SOL    HW241956   1.559   4.612   3.607 -2.0438 -1.2473  0.1014
10343SOL     OW41957   4.075   5.104   0.583  0.3422  0.2397 -0.5237
10343SOL    HW141958   4.155   5.058   0.544  1.6559  0.6524  1.5709
10343SOL    HW241959   4.104   5.159   0.662 -2.1883 -0.4570  0.9214
10344SOL     OW41960   6.962   9.150   3.809  0.2457  0.2988  0.3616
10344SOL    HW141961   6.903   9.227   3.832  0.5625  0.3272  1.1117
10344SOL    HW241962   7.050   9.184   3.775  1.8061  0.3934  4.1689
10345SOL     OW41963   1.519   3.809   4.465 -0.0028  0.0770  0.5205
10345SOL    HW141964   1.560   3.878   4.525 -1.5440  0.9184  0.6239
10345SOL    HW241965   1.420   3.812   4.473 -0.2331  0.1906 -2.0511
10346SOL     OW41966   2.018   8.704   3.837 -0.0526  0.6822  0.3397
10346SOL    HW141967   2.068   8.618   3.849 -0.6535  0.4557  1.3334
10346SOL    HW241968   2.081   8.781   3.850  0.0498  0.3996  1.6719
10347SOL     OW41969   1.075   8.580   0.484 -0.2399  0.4574 -0.3086
10347SOL    HW141970   1.142   8.561   0.412 -0.0418 -1.1802  0.2938
10347SOL    HW241971   1.087   8.674   0.515  2.7254 -0.2032  0.7414
10348SOL     OW41972   1.593   2.477   4.079 -0.5982  0.0150 -0.2147
10348SOL    HW141973   1.639   2.551   4.030 -0.4872 -0.0580 -0.2209
10348SOL    HW241974   1.499   2.504   4.100 -1.0324 -0.4311 -1.5562
10349SOL     OW41975   2.986   6.869   5.276  0.2670 -0.6142 -0.7967
10349SOL    HW141976   2.915   6.938   5.264  1.3517  0.6222 -0.2098
10349SOL    HW241977   3.009   6.863   5.373  1.3688 -0.6072 -1.0602
10350SOL     OW41978   0.866   1.189   1.574 -0.2848 -0.6540  0.4190
10350SOL    HW141979   0.859   1.277   1.526 -1.5440 -0.2396  1.3426
10350SOL    HW241980   0.802   1.124   1.534  0.4361 -1.0705 -0.0681
10351SOL     OW41981   7.639   9.430   3.824 -0.1520 -0.3336  0.7327
10351SOL    HW141982   7.580   9.459   3.901  1.3991 -1.5010  2.4011
10351SOL    HW241983   7.663   9.510   3.769  0.9110  0.9884  3.0411
10352SOL     OW41984   5.411   1.237   5.509  0.3701 -0.0704  0.7036
10352SOL    HW141985   5.477   1.162   5.512  2.5138  1.6818 -0.4415
10352SOL    HW241986   5.329   1.208   5.460  1.7181 -1.2911 -0.9252
10353SOL     OW41987   8.580   8.267   2.103 -0.0767 -0.2753  0.3907
10353SOL    HW141988   8.626   8.179   2.104  3.0811  1.2945 -0.8592
10353SOL    HW241989   8.507   8.266   2.034  1.9119 -0.9928 -1.7720
10354SOL     OW41990   2.124   9.437   2.053  0.2566  0.2896  0.4461
10354SOL    HW141991   2.070   9.353   2.050  0.4044  0.2049  0.0473
10354SOL    HW241992   2.221   9.414   2.048  0.2221  0.6141 -2.8294
10355SOL     OW41993   9.211   9.915   0.594  0.1128 -0.4331  0.1208
10355SOL    HW141994   9.203   9.960   0.683 -0.1272 -1.0059  0.3876
10355SOL    HW241995   9.121   9.882   0.565  0.3899 -1.2296  0.1761
10356SOL     OW41996   6.188   4.746   6.423 -0.2010 -0.4924 -0.4221
10356SOL    HW141997   6.243   4.755   6.505  0.3154 -1.0313 -0.6960
10356SOL    HW241998   6.212   4.818   6.358  0.5973 -1.0538 -0.7652
10357SOL     OW41999   4.315   1.639   1.239 -0.1337  0.5975 -0.6421
10357SOL    HW142000   4.320   1.580   1.320 -1.1203  0.3270 -0.7668
10357SOL    HW242001   4.321   1.735   1.268  1.7203  0.4405 -0.4659
10358SOL     OW42002   4.438   8.041   3.295 -0.1354 -0.5467 -0.6636
10358SOL    HW142003   4.485   8.129   3.294  0.4803 -0.8682 -0.1579
10358SOL    HW242004   4.398   8.024   3.205  0.7752 -0.3034 -1.1199
10359SOL     OW42005   0.906   6.276   1.729 -0.1510 -0.2974  0.2659
10359SOL    HW142006   0.980   6.239   1.673  0.7060  0.1947  1.0692
10359SOL    HW242007   0.895   6.219   1.811 -0.5363 -0.2598  0.2419
10360SOL     OW42008   5.218   5.096   1.919  0.3744 -0.2935  0.3302
10360SOL    HW142009   5.163   5.014   1.936 -0.0124 -0.0626  0.2004
10360SOL    HW242010   5.263   5.089   1.830 -1.0671  0.4025 -0.4773
10361SOL     OW42011   1.806   7.989   2.290  0.1687  0.1025 -0.1950
10361SOL    HW142012   1.895   8.023   2.320  0.7597 -1.5008 -0.0986
10361SOL    HW242013   1.741   7.996   2.366  0.7712 -0.7031  0.4119
10362SOL     OW42014   4.698   0.857   0.926 -0.7267 -0.0072 -0.1370
10362SOL    HW142015   4.672   0.916   0.849 -1.7406 -1.7597 -1.1752
10362SOL    HW242016   4.687   0.761   0.899  0.2306 -0.6644  1.7559
10363SOL     OW42017   2.334   8.235   4.889 -0.0729 -0.2253  0.0951
10363SOL    HW142018   2.285   8.248   4.975  2.8953  0.0321  1.8404
10363SOL    HW242019   2.357   8.138   4.877 -0.3224 -0.2339 -0.3265
10364SOL     OW42020   3.714   7.735   0.609 -0.1740 -0.3028 -0.1512
10364SOL    HW142021   3.646   7.741   0.683 -0.2952 -0.8569 -0.2169
10364SOL    HW242022   3.802   7.768   0.642 -0.7151  1.4172 -0.3658
10365SOL     OW42023   7.110   8.508   3.497  0.0358  0.0080 -0.5941
10365SOL    HW142024   7.141   8.423   3.538  0.5374  0.4435 -0.0638
10365SOL    HW242025   7.125   8.584   3.561 -1.6922  0.2988 -0.5105
10366SOL     OW42026   1.599   6.739   3.273  0.4357  0.2569 -0.0226
10366SOL    HW142027   1.518   6.720   3.217  0.6569  0.2903 -0.3541
10366SOL    HW242028   1.665   6.665   3.264  1.2192  1.0737 -1.1754
10367SOL     OW42029   9.206   1.363   2.444  0.1962  0.2250  0.0957
10367SOL    HW142030   9.232   1.317   2.529  1.2992 -0.4107 -0.5767
10367SOL    HW242031   9.243   1.313   2.366 -0.0272  1.3139 -0.7216
10368SOL     OW42032   6.780   0.940   2.636 -0.2365  0.8714  0.1885
10368SOL    HW142033   6.818   0.879   2.566 -1.4026  1.4500 -0.9677
10368SOL    HW242034   6.851   0.961   2.704  1.0419  0.6669 -1.0680
10369SOL     OW42035   2.413   2.399   3.850 -0.4109 -0.2997  0.2398
10369SOL    HW142036   2.319   2.418   3.822  0.1525  3.0134  0.3459
10369SOL    HW242037   2.448   2.321   3.798 -3.3190 -1.8484  0.4964
10370SOL     OW42038   0.926   2.735   2.102  0.2095  0.5009  0.8204
10370SOL    HW142039   0.831   2.765   2.114 -0.1046 -0.3892  0.5999
10370SOL    HW242040   0.971   2.733   2.191 -0.5494 -0.9137  1.2004
10371SOL     OW42041   7.180   0.438   2.557 -0.3832 -0.3151  0.5350
10371SOL    HW142042   7.145   0.344   2.554 -1.7256  0.2021 -0.7157
10371SOL    HW242043   7.211   0.459   2.650 -1.5308 -1.4930  1.1993
10372SOL     OW42044   4.388   0.825   2.416  0.4657  0.1271 -0.2399
10372SOL    HW142045   4.298   0.840   2.457  0.5941  1.9197 -0.5630
10372SOL    HW242046   4.397   0.881   2.334  1.8779 -0.0184 -0.1959
10373SOL     OW42047   3.064   5.181   5.158  0.1403  0.0760 -0.2960
10373SOL    HW142048   3.086   5.273   5.124  0.6504  0.2245  0.4035
10373SOL    HW242049   2.968   5.161   5.140  0.3699  0.1942 -1.6839
10374SOL     OW42050   2.616   2.669   0.758  0.0741 -0.3653  0.6838
10374SOL    HW142051   2.565   2.583   0.753  1.9256 -1.3801 -2.1111
10374SOL    HW242052   2.586   2.721   0.837 -3.0777 -2.3175  0.8572
10375SOL     OW42053   8.296   9.562   2.774  0.1225  0.0629  0.1138
10375SOL    HW142054   8.357   9.641   2.775  0.1927  0.0129 -0.1428
10375SOL    HW242055   8.201   9.593   2.769  0.0960  0.1533  1.0864
10376SOL     OW42056   3.789   5.143   2.378  0.2942 -0.2298 -0.4663
10376SOL    HW142057   3.741   5.126   2.292  0.0088 -0.2232 -0.3088
10376SOL    HW242058   3.777   5.065   2.439 -1.0156  0.5277  0.2541
10377SOL     OW42059   2.226   7.168   3.416  0.3010 -0.3167  0.5799
10377SOL    HW142060   2.180   7.224   3.485  0.9284  0.8352  0.0844
10377SOL    HW242061   2.246   7.224   3.335  0.1358 -1.4872 -0.2926
10378SOL     OW42062   4.207   6.092   3.584  0.7067 -0.7758 -0.2842
10378SOL    HW142063   4.153   6.116   3.664 -0.0367  0.0686 -1.0327
10378SOL    HW242064   4.184   5.999   3.554  2.0998 -1.6832  1.3843
10379SOL     OW42065   4.647   9.524   1.402 -0.5776 -0.0351 -0.2135
10379SOL    HW142066   4.664   9.621   1.385 -1.3304  0.3973  1.3707
10379SOL    HW242067   4.556   9.513   1.441 -0.1182 -1.2670  0.5443
10380SOL     OW42068   9.671   2.034   2.758 -0.0681 -0.2454 -0.2085
10380SOL    HW142069   9.672   2.002   2.663 -1.3801  0.1076 -0.3413
10380SOL    HW242070   9.577   2.046   2.789  0.3591  0.1650  0.9706
10381SOL     OW42071   1.202   3.099   3.134  0.0885 -0.2841  0.0558
10381SOL    HW142072   1.240   3.188   3.159  0.7235 -0.3123 -0.7917
10381SOL    HW242073   1.270   3.028   3.148 -0.3754 -0.6194  0.6061
10382SOL     OW42074   7.699   1.825   3.002 -0.0008 -0.1792  1.0387
10382SOL    HW142075   7.709   1.875   3.088 -1.7065 -0.2846  1.3282
10382SOL    HW242076   7.642   1.878   2.939 -1.5355 -1.5798  1.2222
10383SOL     OW42077   2.487   3.966   5.899  0.1419 -0.4536  0.2864
10383SOL    HW142078   2.404   4.011   5.869  1.7245  1.4612 -1.3383
10383SOL    HW242079   2.483   3.869   5.875 -0.0600  0.3686 -3.1822
10384SOL     OW42080   0.937   6.905   1.438 -0.0634  0.3424 -0.6501
10384SOL    HW142081   0.989   6.836   1.488  0.7932  0.5859 -1.2103
10384SOL    HW242082   0.842   6.904   1.470  0.4752  0.4952  0.9970
10385SOL     OW42083   3.017   7.322   3.315  0.0026 -0.4058  0.1441
10385SOL    HW142084   2.954   7.259   3.362  1.6863 -0.6628  2.1292
10385SOL    HW242085   3.098   7.337   3.372  1.6450  0.1297 -2.2470
10386SOL     OW42086   0.801   6.988   5.374 -0.1867 -0.1675  0.1393
10386SOL    HW142087   0.823   6.909   5.431 -1.2034  0.8698  2.0356
10386SOL    HW242088   0.853   7.067   5.407  2.3056 -0.4201 -2.9380
10387SOL     OW42089   5.141   0.347   4.351  0.3807 -0.4562  0.2719
10387SOL    HW142090   5.052   0.358   4.396  0.4178 -0.3760  0.3258
10387SOL    HW242091   5.213   0.385   4.410  0.3693  0.1548 -0.1022
10388SOL     OW42092   7.247   8.077   4.702 -0.1238  0.0693  0.1382
10388SOL    HW142093   7.211   8.163   4.666 -1.4770 -0.3038  0.5587
10388SOL    HW242094   7.282   8.092   4.795 -0.0309  0.2459  0.0744
10389SOL     OW42095   9.935   4.791   0.408 -0.3851 -0.2755  0.0088
10389SOL    HW142096   9.903   4.866   0.349 -0.3398  0.5565  1.0331
10389SOL    HW242097  10.004   4.826   0.471 -0.2045 -1.2419  0.3470
10390SOL     OW42098   0.657   0.512   3.175  0.3292  0.4664 -0.2347
10390SOL    HW142099   0.577   0.554   3.218 -0.0377 -0.4415 -0.0160
10390SOL    HW242100   0.634   0.483   3.082  0.5628  0.6738 -0.3606
10391SOL     OW42101   1.394   5.770   0.709  0.0319 -0.4396  0.6679
10391SOL    HW142102   1.303   5.812   0.704  0.0404 -0.4154  0.7203
10391SOL    HW242103   1.411   5.718   0.625  0.0421 -0.2953  0.5801
10392SOL     OW42104   9.252   6.369   2.684 -0.0643  0.5108 -0.0266
10392SOL    HW142105   9.250   6.304   2.608  3.2203  1.2880 -0.8690
10392SOL    HW242106   9.314   6.335   2.755  0.6835  2.0842  0.1006
10393SOL     OW42107   2.519   9.111   1.959  0.4188  0.4327  0.0376
10393SOL    HW142108   2.461   9.156   2.027 -1.0900  0.0241 -0.9678
10393SOL    HW242109   2.462   9.058   1.896  1.7650  1.0491 -1.7333
10394SOL     OW42110   6.117   1.761   3.528 -0.0535  0.0106 -0.5880
10394SOL    HW142111   6.205   1.800   3.555  0.4418 -1.2641 -0.3641
10394SOL    HW242112   6.046   1.791   3.592  0.0148  1.8546 -1.3401
10395SOL     OW42113   3.409   8.229   4.873  0.4271  0.3836 -0.2341
10395SOL    HW142114   3.479   8.268   4.813  0.0374  0.6642 -0.5205
10395SOL    HW242115   3.416   8.130   4.874  0.7154  0.4049 -0.4031
10396SOL     OW42116   9.718   9.807   0.458 -0.3779 -0.6036 -0.1866
10396SOL    HW142117   9.759   9.863   0.386 -0.2113  0.4452  0.7125
10396SOL    HW242118   9.618   9.814   0.454 -0.3259  1.6142  1.3383
10397SOL     OW42119   2.510   6.008   3.311  0.0771  0.2136 -0.0747
10397SOL    HW142120   2.582   5.987   3.377  0.2487  0.5425 -0.1517
10397SOL    HW242121   2.490   5.928   3.256 -1.9020 -0.8371  2.1140
10398SOL     OW42122   7.464   1.559   1.845 -0.1672 -0.1515 -0.0291
10398SOL    HW142123   7.545   1.577   1.901  0.5176 -0.9877 -0.7173
10398SOL    HW242124   7.381   1.571   1.899  0.4722 -0.7334  1.0902
10399SOL     OW42125   3.249   5.289   4.747 -0.0971  0.1996  0.2419
10399SOL    HW142126   3.169   5.230   4.732  0.1010  0.0232 -0.1169
10399SOL    HW242127   3.304   5.253   4.822 -0.4134  0.3809  0.5605
10400SOL     OW42128   8.692   1.928   6.670 -0.0452 -0.5886 -0.4307
10400SOL    HW142129   8.710   1.946   6.574  1.2333 -0.4468 -0.1656
10400SOL    HW242130   8.664   1.832   6.681  0.1689 -0.7043 -0.8867
10401SOL     OW42131   0.708   7.200   5.824 -0.2125  0.5321  0.4182
10401SOL    HW142132   0.760   7.133   5.877 -1.1605  0.1495  0.8830
10401SOL    HW242133   0.610   7.186   5.840 -0.5030  0.4638 -1.3906
10402SOL     OW42134   7.013   9.114   5.160  0.1500  0.1695  0.1277
10402SOL    HW142135   6.972   9.175   5.092 -0.8311 -0.5497  0.0677
10402SOL    HW242136   6.953   9.036   5.176  1.4226 -0.8185  0.1774
10403SOL     OW42137   7.279   0.623   2.160  0.1595  0.5615 -0.0523
10403SOL    HW142138   7.260   0.655   2.067 -0.1090  0.3762 -0.0607
10403SOL    HW242139   7.196   0.629   2.215  0.1837  0.1606  0.0302
10404SOL     OW42140   6.386   2.378   3.339  0.9294  0.1314 -0.1170
10404SOL    HW142141   6.464   2.417   3.388  0.2410 -0.6161  1.6463
10404SOL    HW242142   6.301   2.416   3.377  0.4095  0.2034 -1.3484
10405SOL     OW42143   9.747   7.646   3.073 -0.4626  0.1047 -0.0759
10405SOL    HW142144   9.837   7.677   3.107  0.1142  0.7074 -2.0984
10405SOL    HW242145   9.694   7.610   3.149  1.0476  0.8460  1.3686
10406SOL     OW42146   8.868   7.948   2.323  0.3543  0.0523  0.0182
10406SOL    HW142147   8.949   7.914   2.371  0.7502  0.1988 -0.5372
10406SOL    HW242148   8.839   8.036   2.361  0.1009 -0.2842  0.6062
10407SOL     OW42149   1.236   7.288   5.874 -0.5867  0.1440  0.3493
10407SOL    HW142150   1.137   7.302   5.875 -0.7487 -0.9621  0.1159
10407SOL    HW242151   1.256   7.192   5.893  0.4215  0.2480 -0.1969
10408SOL     OW42152   4.768   2.590   4.322 -0.2067  0.2222  0.2636
10408SOL    HW142153   4.810   2.585   4.232 -1.2249 -1.1673 -0.1640
10408SOL    HW242154   4.838   2.582   4.393  0.8020  3.1554 -0.3626
10409SOL     OW42155   8.887   9.923   3.822  0.3211  0.2323  0.8230
10409SOL    HW142156   8.864  10.020   3.816 -1.3436 -0.2301 -1.0356
10409SOL    HW242157   8.968   9.904   3.766  0.9241  0.6177  1.5594
10410SOL     OW42158   2.251   3.163   0.712 -0.0017 -0.7180 -0.1437
10410SOL    HW142159   2.330   3.179   0.652 -1.2388  1.0047 -1.3719
10410SOL    HW242160   2.169   3.153   0.656 -0.9815 -0.3550  1.2129
10411SOL     OW42161   6.694   0.001   0.943 -0.4532 -0.2374  0.3453
10411SOL    HW142162   6.653  -0.072   0.998  0.6027 -0.1108  1.3182
10411SOL    HW242163   6.772  -0.036   0.892 -2.8058 -0.9267 -2.9292
10412SOL     OW42164   8.310   5.725   4.004 -0.4844 -0.0934 -0.2369
10412SOL    HW142165   8.388   5.663   4.011 -0.0797  0.1651 -2.2270
10412SOL    HW242166   8.240   5.686   3.945 -1.1972  0.3464  0.3111
10413SOL     OW42167   5.938   1.583   1.434 -0.2329 -0.0963  0.1733
10413SOL    HW142168   5.932   1.608   1.531  1.0791 -1.3553  0.5935
10413SOL    HW242169   5.953   1.485   1.426 -1.8090 -0.2227 -1.3621
10414SOL     OW42170   7.184   0.061   0.984 -0.0247 -0.2229  0.5252
10414SOL    HW142171   7.137   0.086   1.068  1.2028 -1.0753  1.4894
10414SOL    HW242172   7.233  -0.026   0.997  0.4190 -0.2237 -0.9738
10415SOL     OW42173   5.933   9.106   4.274 -0.0780  0.1809 -0.1673
10415SOL    HW142174   5.896   9.115   4.367  1.3206  1.3925  0.3038
10415SOL    HW242175   6.013   9.045   4.276 -0.4789 -0.3687 -0.7105
10416SOL     OW42176   1.259   4.218   5.519  0.1210  0.2732 -0.4285
10416SOL    HW142177   1.275   4.147   5.588 -0.9283  0.9557  0.5256
10416SOL    HW242178   1.339   4.223   5.459  0.9721 -0.4748  0.5989
10417SOL     OW42179   1.574   5.281   2.283  0.0411  0.5438  0.1191
10417SOL    HW142180   1.664   5.239   2.294 -0.7859 -1.6858 -1.2950
10417SOL    HW242181   1.520   5.266   2.366 -0.0898 -0.8203 -0.2048
10418SOL     OW42182   1.617   8.610   3.693  0.0397 -0.3360  0.4441
10418SOL    HW142183   1.684   8.664   3.642  0.3946 -0.5448  0.6846
10418SOL    HW242184   1.638   8.616   3.791  0.5805 -1.5789  0.4176
10419SOL     OW42185   9.269   2.199   2.996 -0.0536 -0.1619  0.3348
10419SOL    HW142186   9.291   2.111   2.954  0.9815 -0.1431  0.8071
10419SOL    HW242187   9.341   2.265   2.974 -1.4329  0.9329 -1.0504
10420SOL     OW42188   9.512   7.607   0.455  0.2373  0.4679 -0.1108
10420SOL    HW142189   9.527   7.675   0.526  0.0310  0.8931 -0.4683
10420SOL    HW242190   9.589   7.543   0.452  1.7500  2.3203 -1.6004
10421SOL     OW42191   7.239   9.320   3.746 -0.3965  0.5169  0.0580
10421SOL    HW142192   7.216   9.384   3.820 -0.3326 -1.0996  1.5055
10421SOL    HW242193   7.262   9.372   3.663 -2.0331  2.3247  0.6841
10422SOL     OW42194   0.212   7.550   6.190  0.1767 -0.0702  0.2147
10422SOL    HW142195   0.117   7.562   6.163  0.3110  0.3109 -0.0885
10422SOL    HW242196   0.232   7.608   6.269  0.9728  2.1490 -1.5826
10423SOL     OW42197   8.949   5.345   5.162  0.5225  0.2983 -0.2861
10423SOL    HW142198   8.881   5.414   5.142  1.2202  0.9732 -0.3500
10423SOL    HW242199   9.012   5.336   5.085  0.0431 -0.8811 -0.5528
10424SOL     OW42200   9.975   4.551   2.461 -0.1441  0.2872 -0.3525
10424SOL    HW142201   9.883   4.589   2.469  0.1396  1.0267 -0.5174
10424SOL    HW242202  10.028   4.605   2.396  0.5786  0.2076  0.1592
10425SOL     OW42203   4.888   1.145   3.692  0.3200  0.6679 -0.0812
10425SOL    HW142204   4.913   1.219   3.630 -2.1902  1.9205  0.3306
10425SOL    HW242205   4.868   1.183   3.783 -1.0580 -0.4717  0.1246
10426SOL     OW42206   9.089   2.329   4.864 -0.1550  0.1682 -0.0604
10426SOL    HW142207   9.098   2.337   4.765  0.4059  0.8117  0.0398
10426SOL    HW242208   9.118   2.414   4.907  0.1868 -0.3224  0.6931
10427SOL     OW42209   9.469   5.045   6.542  0.1279 -0.0986 -0.4272
10427SOL    HW142210   9.544   5.110   6.557 -0.2248  0.3994 -0.8063
10427SOL    HW242211   9.393   5.092   6.496 -1.5220  0.1288  2.3949
10428SOL     OW42212   3.116   4.487   6.377  0.1495  0.8095  0.2136
10428SOL    HW142213   3.160   4.423   6.440 -0.8828  1.1968  1.3265
10428SOL    HW242214   3.039   4.442   6.332  1.2731  0.3246 -1.2933
10429SOL     OW42215   9.315   9.617   5.052 -0.0152  0.2266  0.0978
10429SOL    HW142216   9.279   9.533   5.011  0.7303 -0.1008  0.1045
10429SOL    HW242217   9.245   9.659   5.110 -0.5116 -0.1957 -0.1949
10430SOL     OW42218   6.062   7.668   4.424  0.5231 -0.1898  0.6403
10430SOL    HW142219   6.012   7.582   4.437 -0.4007  0.0387 -1.2260
10430SOL    HW242220   6.158   7.649   4.407  0.7117 -0.7443  2.2985
10431SOL     OW42221   9.061   9.594   3.215  0.2742 -0.7904  0.1518
10431SOL    HW142222   8.993   9.666   3.197  1.3793  0.1956 -0.1355
10431SOL    HW242223   9.040   9.514   3.158 -0.5095 -0.4163 -0.1014
10432SOL     OW42224   3.155   7.625   0.520  0.3867  0.0423  0.4762
10432SOL    HW142225   3.223   7.698   0.524 -1.1917  1.5710  0.4681
10432SOL    HW242226   3.146   7.583   0.610 -0.4391  1.5562  1.1343
10433SOL     OW42227   6.887   0.397   4.785 -0.4921  0.7377 -0.2032
10433SOL    HW142228   6.808   0.354   4.742 -0.8861  0.6083  0.6368
10433SOL    HW242229   6.954   0.421   4.715 -0.2643 -1.2508 -0.6964
10434SOL     OW42230   5.552   8.618   3.156 -0.2892  0.5223  0.0352
10434SOL    HW142231   5.496   8.540   3.129 -0.0851  0.1504  0.6905
10434SOL    HW242232   5.641   8.586   3.189 -0.5183  0.9667  1.1167
10435SOL     OW42233   1.210   1.662   4.154 -0.4065 -0.5856  0.8455
10435SOL    HW142234   1.175   1.748   4.116 -1.3990 -1.4900 -0.3073
10435SOL    HW242235   1.231   1.675   4.251  1.1252  1.4454  0.2821
10436SOL     OW42236   4.216   8.157   2.443  0.0447  0.3560 -0.0484
10436SOL    HW142237   4.272   8.213   2.504  0.4109 -0.2055  0.1446
10436SOL    HW242238   4.131   8.204   2.422 -0.3930  0.2600  1.4754
10437SOL     OW42239   3.565   5.524   3.204  0.0554  0.3571  0.2788
10437SOL    HW142240   3.479   5.566   3.234 -0.6088 -0.2852 -0.6869
10437SOL    HW242241   3.577   5.540   3.106  0.5689 -0.3655  0.2241
10438SOL     OW42242   4.248   5.152   2.705  0.1974  0.1233 -0.1180
10438SOL    HW142243   4.303   5.235   2.692 -0.1665  0.1133 -1.9708
10438SOL    HW242244   4.289   5.077   2.653  0.0926 -0.6645  0.9239
10439SOL     OW42245   1.566   6.588   4.790 -0.2170 -0.4803  0.3355
10439SOL    HW142246   1.593   6.672   4.837 -1.9483 -0.3414  1.1356
10439SOL    HW242247   1.488   6.607   4.730  0.7019 -1.0873 -1.0979
10440SOL     OW42248   2.738   5.144   2.781 -0.3496 -0.5435  0.6415
10440SOL    HW142249   2.699   5.127   2.872  1.2215  1.9734  1.8115
10440SOL    HW242250   2.836   5.161   2.789 -0.4749  1.2731 -1.3525
10441SOL     OW42251   3.070   5.466   1.672 -0.0532  0.3139 -0.0044
10441SOL    HW142252   3.108   5.530   1.607 -0.5489  0.6440  0.0260
10441SOL    HW242253   3.135   5.392   1.689 -0.1141 -0.0380 -1.2399
10442SOL     OW42254   5.422   0.863   4.094  0.2396  0.0268 -0.3894
10442SOL    HW142255   5.356   0.800   4.053 -0.7550  1.2463 -0.7242
10442SOL    HW242256   5.505   0.866   4.040  0.6698 -1.6955  0.1524
10443SOL     OW42257   7.662   0.370   5.812  0.5803  0.1969 -0.0050
10443SOL    HW142258   7.755   0.367   5.849 -0.0183 -2.7623  1.4056
10443SOL    HW242259   7.596   0.378   5.887 -0.4165 -0.3284 -0.8054
10444SOL     OW42260   2.403   0.139   1.519  0.0794  0.2413  0.0397
10444SOL    HW142261   2.440   0.107   1.433 -0.6463  0.5298 -0.3892
10444SOL    HW242262   2.328   0.204   1.501 -0.4355 -0.1094  0.8764
10445SOL     OW42263   0.919   5.717   1.429 -0.3368  0.1722  0.1946
10445SOL    HW142264   0.882   5.648   1.367  2.3314 -0.2373 -0.9779
10445SOL    HW242265   0.930   5.804   1.380  2.3301 -0.3072 -0.1175
10446SOL     OW42266   6.406   1.301   2.909 -0.2015  0.2752  0.2151
10446SOL    HW142267   6.382   1.363   2.983  2.4292  1.5358  0.0523
10446SOL    HW242268   6.452   1.220   2.947  0.0744  0.3651  0.0769
10447SOL     OW42269   4.193   0.081   0.943  0.2763  0.0656  0.2251
10447SOL    HW142270   4.155   0.123   1.025  1.1753  0.6098  0.3674
10447SOL    HW242271   4.129   0.091   0.867 -0.5079 -0.3418  0.8335
10448SOL     OW42272   3.047   5.850   5.777 -0.2228  0.1976  0.1468
10448SOL    HW142273   3.137   5.812   5.797 -0.2249  0.2752  0.3049
10448SOL    HW242274   3.023   5.831   5.681  0.6321  1.5240 -0.3405
10449SOL     OW42275   9.485   6.142   1.628  0.4939 -0.3521 -0.1019
10449SOL    HW142276   9.556   6.188   1.683  1.0347 -0.4076 -0.7407
10449SOL    HW242277   9.450   6.063   1.679  2.4987 -1.6682 -0.6892
10450SOL     OW42278   8.037   0.273   3.108  0.0389  0.4370 -0.4928
10450SOL    HW142279   8.121   0.322   3.082  1.9492 -2.1016  0.6682
10450SOL    HW242280   7.981   0.258   3.027  1.3485  0.9880 -1.5183
10451SOL     OW42281   4.464   8.376   1.324  0.2010  0.1893  0.3936
10451SOL    HW142282   4.477   8.279   1.305  0.1485 -0.0721  1.6270
10451SOL    HW242283   4.547   8.413   1.365  1.7050  1.6541 -3.7844
10452SOL     OW42284   6.052   7.799   2.360 -0.2722 -0.4450 -0.2858
10452SOL    HW142285   5.954   7.815   2.373 -0.2976 -0.7085 -0.1360
10452SOL    HW242286   6.104   7.878   2.392 -0.6291  1.4291 -4.0265
10453SOL     OW42287   7.057   7.781   5.017 -0.2120 -0.8342  0.3401
10453SOL    HW142288   7.077   7.835   5.099  3.4132 -2.1826  0.4346
10453SOL    HW242289   6.986   7.714   5.038 -0.4496 -0.1067  1.9205
10454SOL     OW42290   0.139   7.400   3.239 -0.3798  0.0361 -0.2775
10454SOL    HW142291   0.160   7.437   3.148 -1.0225  1.6179  0.2125
10454SOL    HW242292   0.202   7.324   3.258  1.0698  0.9654 -1.2258
10455SOL     OW42293   9.127   4.687   6.628  0.0048 -0.0500 -0.3141
10455SOL    HW142294   9.030   4.681   6.649  0.0400  1.7626  0.4439
10455SOL    HW242295   9.140   4.715   6.533 -0.2754  3.4768  0.6305
10456SOL     OW42296   3.116   9.366   3.774  0.0176  0.1743 -0.0741
10456SOL    HW142297   3.051   9.293   3.752  3.0884 -3.1278  1.1262
10456SOL    HW242298   3.174   9.384   3.695  0.4011  0.0536  0.1781
10457SOL     OW42299   0.411   3.458   5.271 -0.7555  0.7015 -0.1861
10457SOL    HW142300   0.425   3.365   5.306 -0.4292  1.0370  0.5763
10457SOL    HW242301   0.490   3.485   5.216 -0.0898  1.1675  0.9929
10458SOL     OW42302   7.938   2.130   3.079 -0.2717  0.6198 -0.0536
10458SOL    HW142303   7.953   2.038   3.042  1.2211  1.2528 -1.0257
10458SOL    HW242304   7.996   2.143   3.159  0.0706  0.9915 -0.3642
10459SOL     OW42305   5.288   1.664   3.847 -0.2351 -0.1350 -0.0014
10459SOL    HW142306   5.337   1.579   3.827  0.6420  0.3270  0.1414
10459SOL    HW242307   5.304   1.689   3.943  2.6759  2.1946 -0.9972
10460SOL     OW42308   8.425   6.356   0.540  0.4277 -0.1155  0.9043
10460SOL    HW142309   8.480   6.393   0.465  0.7152 -2.1414  0.0690
10460SOL    HW242310   8.340   6.408   0.548  0.2166 -0.0944 -1.1043
10461SOL     OW42311   9.024   6.978   1.279  0.1486  0.4867  0.0082
10461SOL    HW142312   8.988   7.042   1.210  1.3775  0.9683 -0.1903
10461SOL    HW242313   8.954   6.963   1.349  0.0496  2.4982  0.3724
10462SOL     OW42314   3.641   4.126   1.058 -0.0149 -0.1444 -0.0622
10462SOL    HW142315   3.543   4.133   1.040 -0.4515 -1.4880  1.7071
10462SOL    HW242316   3.686   4.075   0.985 -0.8467 -0.6901 -0.1859
10463SOL     OW42317   9.990   6.643   3.341 -0.0780 -0.8010  0.1006
10463SOL    HW142318  10.001   6.717   3.276  4.1303 -0.4714  1.0211
10463SOL    HW242319   9.986   6.556   3.292  0.4937 -0.3652 -0.7362
10464SOL     OW42320   1.242   4.235   6.446 -0.7953 -0.1258  0.1130
10464SOL    HW142321   1.268   4.314   6.502 -1.6220  0.3430 -0.1553
10464SOL    HW242322   1.313   4.218   6.378 -0.1534 -0.2151  0.7953
10465SOL     OW42323   7.251   8.818   2.403  0.1032 -0.7060 -0.3203
10465SOL    HW142324   7.295   8.739   2.361  0.3457 -0.0446 -1.3212
10465SOL    HW242325   7.224   8.795   2.497  0.9379 -1.6921 -0.3173
10466SOL     OW42326   1.328   6.754   4.195  0.7126 -0.9907  0.2594
10466SOL    HW142327   1.235   6.754   4.232  0.0725  0.7568 -1.2618
10466SOL    HW242328   1.337   6.679   4.129 -0.8670  1.0898 -2.4402
10467SOL     OW42329   9.047   7.936   4.217 -0.4440 -0.0436 -0.0147
10467SOL    HW142330   9.005   7.901   4.301 -2.7177 -1.4469 -1.6853
10467SOL    HW242331   9.042   8.036   4.217  0.1003  0.0053  1.7591
10468SOL     OW42332   0.056   2.871   5.041  0.2426  0.0412 -0.4284
10468SOL    HW142333   0.049   2.783   4.993  1.6070 -0.2637 -0.0773
10468SOL    HW242334   0.016   2.862   5.132  0.2961 -0.1931 -0.4264
10469SOL     OW42335   8.191   8.594   4.021  0.1844  0.3145  0.0335
10469SOL    HW142336   8.175   8.497   4.034  0.7465  0.1339 -0.5966
10469SOL    HW242337   8.116   8.646   4.061 -0.4113 -0.4004 -0.1579
10470SOL     OW42338   0.820   8.864   1.676  0.3435 -0.3750  0.2752
10470SOL    HW142339   0.754   8.791   1.660 -0.7463  0.2678  1.7889
10470SOL    HW242340   0.836   8.913   1.590  0.1594 -1.6054 -0.4775
10471SOL     OW42341   8.301   0.072   0.991 -0.3055 -0.0667 -0.0621
10471SOL    HW142342   8.231   0.061   0.920  0.0102 -1.7433 -0.1320
10471SOL    HW242343   8.388   0.094   0.948 -0.2883 -0.2932 -0.1463
10472SOL     OW42344   9.491   4.804   1.693 -0.2873  0.1477  0.5458
10472SOL    HW142345   9.482   4.902   1.709  0.3626  0.1188  1.1202
10472SOL    HW242346   9.466   4.783   1.599 -0.5657  0.8451  0.4618
10473SOL     OW42347   3.291   4.065   5.372  0.0775  0.3223 -0.2545
10473SOL    HW142348   3.287   3.972   5.337  0.0667  0.0349  0.4994
10473SOL    HW242349   3.365   4.115   5.328  0.6382 -0.3042 -0.0232
10474SOL     OW42350   8.081   9.365   5.362 -0.1439 -0.2116  0.5402
10474SOL    HW142351   8.094   9.330   5.455 -0.3207  0.1207  0.6914
10474SOL    HW242352   8.076   9.288   5.298 -0.3530 -0.4544  0.8468
10475SOL     OW42353   4.524   9.356   4.423  0.1061 -0.4614 -0.0690
10475SOL    HW142354   4.488   9.447   4.404 -1.5229 -1.2495 -0.8914
10475SOL    HW242355   4.529   9.304   4.337  5.0233  0.2024 -0.3314
10476SOL     OW42356   1.157   1.931   4.905  1.1202  0.0796  0.3678
10476SOL    HW142357   1.079   1.871   4.922  0.0642  1.5689  0.8474
10476SOL    HW242358   1.233   1.877   4.869  0.0144 -1.4517  0.2820
10477SOL     OW42359   0.015   0.334   3.497  0.1176 -0.0570  0.2992
10477SOL    HW142360  -0.040   0.262   3.454  1.2632 -1.6603  1.4366
10477SOL    HW242361  -0.011   0.343   3.593  1.0419 -0.0545  0.5601
10478SOL     OW42362   2.547   7.915   1.408  0.0417  0.3040  0.7514
10478SOL    HW142363   2.458   7.902   1.366  0.7081 -1.0132 -0.2927
10478SOL    HW242364   2.536   7.962   1.496 -1.7597 -0.7351  1.1010
10479SOL     OW42365   8.628   0.349   5.474  0.2495  0.4400 -0.0699
10479SOL    HW142366   8.641   0.270   5.534  1.4861  0.8690  0.2410
10479SOL    HW242367   8.593   0.426   5.528 -0.1072  0.3632 -0.1953
10480SOL     OW42368   0.658   0.030   4.844 -0.0716 -0.4802 -0.4357
10480SOL    HW142369   0.752   0.037   4.814  0.2369 -1.8420  0.1557
10480SOL    HW242370   0.652  -0.034   4.921 -1.2468  0.7602  0.5330
10481SOL     OW42371   8.269   0.104   4.070 -0.9217  0.5891  0.4105
10481SOL    HW142372   8.330   0.026   4.080 -1.9350 -0.3524 -0.5627
10481SOL    HW242373   8.193   0.096   4.135 -1.9171 -0.1251 -0.8082
10482SOL     OW42374   8.386   0.181   1.980 -0.0088 -0.2143 -0.0958
10482SOL    HW142375   8.390   0.091   2.022  1.0605 -0.0560  0.1394
10482SOL    HW242376   8.294   0.218   1.991 -0.3527 -1.1208  0.1245
10483SOL     OW42377   6.835   0.627   0.173 -0.0453 -0.2554 -0.1291
10483SOL    HW142378   6.852   0.704   0.235 -0.0645 -1.0678  0.8895
10483SOL    HW242379   6.825   0.543   0.226  0.8436 -1.1086 -1.2856
10484SOL     OW42380   2.151   1.388   4.405  0.4260 -0.1233 -0.1277
10484SOL    HW142381   2.251   1.382   4.401  0.3659 -1.0582 -0.4199
10484SOL    HW242382   2.118   1.438   4.325  0.6820  0.4832  0.1433
10485SOL     OW42383   0.150   7.666   5.039  0.5133  0.2468 -0.1004
10485SOL    HW142384   0.210   7.586   5.027  1.4460  0.8059  0.6834
10485SOL    HW242385   0.203   7.741   5.079 -0.8885  0.5274  1.2787
10486SOL     OW42386   1.465   8.677   4.350 -0.0143  0.1751 -0.0574
10486SOL    HW142387   1.377   8.661   4.305 -1.1383  2.7965  1.0751
10486SOL    HW242388   1.513   8.590   4.363 -2.7994 -1.3966  0.0250
10487SOL     OW42389   9.123   6.949   6.172 -0.6250  0.0557  0.3034
10487SOL    HW142390   9.153   6.854   6.180 -1.2392 -0.1093  0.6548
10487SOL    HW242391   9.111   6.971   6.075  1.4799  0.3981  0.1057
10488SOL     OW42392   5.729   9.428   4.835 -0.1054  0.1539 -0.4418
10488SOL    HW142393   5.782   9.347   4.860 -0.2323  0.0714 -0.4399
10488SOL    HW242394   5.695   9.472   4.918 -2.0935 -1.1643 -0.5143
10489SOL     OW42395   4.996   9.070   4.620  0.2261  0.2207 -0.2181
10489SOL    HW142396   4.960   9.067   4.527 -0.7815  0.9220  0.1299
10489SOL    HW242397   5.041   8.984   4.642 -1.1733 -0.6437 -0.7056
10490SOL     OW42398   4.035   2.847   2.536  0.4313 -1.1185  0.5609
10490SOL    HW142399   4.108   2.882   2.477 -0.0866  2.3925  1.8368
10490SOL    HW242400   3.970   2.794   2.482 -0.0188  1.9476 -2.0733
10491SOL     OW42401   8.382   5.174   6.674 -0.0180 -0.1041 -0.5587
10491SOL    HW142402   8.419   5.088   6.707  1.4747  1.2735  1.4246
10491SOL    HW242403   8.451   5.223   6.620  0.2916  1.3561  1.1139
10492SOL     OW42404   4.543   2.842   1.348 -0.1490 -0.6761 -0.0764
10492SOL    HW142405   4.490   2.831   1.264 -0.7493 -2.5028  0.5042
10492SOL    HW242406   4.641   2.843   1.326 -0.1736 -3.7899 -0.6221
10493SOL     OW42407   1.776   5.137   5.391 -0.3602 -0.1583 -0.2961
10493SOL    HW142408   1.862   5.087   5.383 -0.5266 -0.7114  1.1955
10493SOL    HW242409   1.793   5.235   5.392  0.4751 -0.3196  2.4888
10494SOL     OW42410   3.001   7.285   0.534 -0.0604 -0.1996 -0.2634
10494SOL    HW142411   2.997   7.289   0.633  1.0701 -0.2682 -0.2153
10494SOL    HW242412   2.972   7.373   0.496 -0.1288 -0.0524  0.1275
10495SOL     OW42413   0.606   4.236   1.919 -0.1991 -0.1481  0.4951
10495SOL    HW142414   0.669   4.281   1.983  0.2043  0.2796 -0.1951
10495SOL    HW242415   0.647   4.151   1.886  0.0839  0.2034 -0.0670
10496SOL     OW42416   8.723   1.019   2.731 -0.1247  0.1947  0.4969
10496SOL    HW142417   8.695   0.979   2.819 -0.7498 -0.6423 -0.0744
10496SOL    HW242418   8.659   0.990   2.660 -0.0824  1.5244 -0.0939
10497SOL     OW42419   4.854   3.020   1.597 -0.4482 -0.1796  0.4303
10497SOL    HW142420   4.915   3.085   1.642  0.0602  0.2845 -0.8918
10497SOL    HW242421   4.786   2.987   1.662 -0.9106  1.9041  1.0307
10498SOL     OW42422   0.188   2.495   1.185 -0.2639  0.0711 -0.2626
10498SOL    HW142423   0.196   2.430   1.260 -1.9585  0.5857  0.4041
10498SOL    HW242424   0.255   2.568   1.196  0.8031 -0.8808 -0.3321
10499SOL     OW42425   0.385   8.719   0.187  0.6377 -0.8367 -0.4298
10499SOL    HW142426   0.453   8.650   0.161  1.9669  0.6125 -0.8799
10499SOL    HW242427   0.426   8.810   0.181 -0.7676 -0.0606  1.1823
10500SOL     OW42428   7.987   0.823   6.205 -0.1111 -0.4401 -0.6557
10500SOL    HW142429   8.010   0.890   6.276 -2.0881 -0.5934  0.1762
10500SOL    HW242430   8.056   0.751   6.204  1.0149  0.6131 -0.2637
10501SOL     OW42431   0.284   3.085   0.758 -0.6206 -0.0708 -0.3789
10501SOL    HW142432   0.308   3.104   0.853 -0.4565  0.7822 -0.5902
10501SOL    HW242433   0.254   2.990   0.750 -1.4759  0.0975  0.6908
10502SOL     OW42434   3.686   6.103   0.768  0.1310  0.3038 -0.1145
10502SOL    HW142435   3.604   6.120   0.713  0.6992  2.3012 -0.3971
10502SOL    HW242436   3.754   6.173   0.748  1.9131 -1.3164  0.1411
10503SOL     OW42437   1.052   0.834   4.648  0.1741 -0.4200  0.2373
10503SOL    HW142438   1.114   0.802   4.575 -1.6942  0.5285 -1.8254
10503SOL    HW242439   0.964   0.789   4.639 -1.1743  2.2083 -0.2018
10504SOL     OW42440   1.976   1.816   2.791  0.5683 -0.7077  0.1446
10504SOL    HW142441   1.980   1.914   2.771  0.0480 -0.9154 -1.0076
10504SOL    HW242442   1.965   1.765   2.706 -0.1303 -1.7063  0.8213
10505SOL     OW42443   3.825   9.996   3.511 -0.1369 -0.0802 -0.6634
10505SOL    HW142444   3.811   9.911   3.562 -1.1484  0.0041 -0.7822
10505SOL    HW242445   3.782   9.987   3.421 -1.0056  0.8567 -0.3577
10506SOL     OW42446   0.817   6.005   4.426  0.4723  0.5319  0.0503
10506SOL    HW142447   0.740   6.023   4.365  1.5888  1.8289 -1.0278
10506SOL    HW242448   0.815   5.910   4.455 -1.1580  0.3864 -0.5041
10507SOL     OW42449   3.680   2.573   3.162 -0.5327  0.3031 -0.6293
10507SOL    HW142450   3.607   2.602   3.225 -0.0306  0.5897 -0.1710
10507SOL    HW242451   3.655   2.599   3.069 -1.0836  0.2709 -0.4966
10508SOL     OW42452   9.966   8.667   4.148 -0.0327  0.3696  0.1639
10508SOL    HW142453   9.878   8.634   4.112  0.0173  1.2893 -0.8336
10508SOL    HW242454  10.040   8.633   4.091  0.0059  2.3242 -0.9892
10509SOL     OW42455   7.633   9.357   3.225  0.3265  0.5514 -0.2218
10509SOL    HW142456   7.708   9.412   3.187 -0.8975  1.1299 -1.8548
10509SOL    HW242457   7.609   9.285   3.160  0.2752 -0.4045  0.8362
10510SOL     OW42458   9.896   8.492   5.125 -0.2396 -0.1762 -0.0705
10510SOL    HW142459   9.948   8.444   5.195 -1.4181 -1.1343  0.1656
10510SOL    HW242460   9.800   8.462   5.128 -0.6085  0.8510 -1.1214
10511SOL     OW42461   9.355   6.808   1.523 -0.4662 -0.3326  0.1236
10511SOL    HW142462   9.355   6.739   1.451  0.5399  0.2923 -0.4880
10511SOL    HW242463   9.336   6.898   1.484  1.4517  0.2178  0.3991
10512SOL     OW42464   2.016   5.648   1.830 -0.2559 -0.3132  0.4228
10512SOL    HW142465   2.113   5.666   1.846 -0.2078 -0.9433  0.8400
10512SOL    HW242466   2.000   5.549   1.833 -0.9733 -0.1858  0.7059
10513SOL     OW42467   5.814   8.547   3.181 -0.4677  0.0531  0.2186
10513SOL    HW142468   5.871   8.466   3.171  2.5953  2.1707 -0.3252
10513SOL    HW242469   5.838   8.594   3.267 -1.5896  0.8196  0.1252
10514SOL     OW42470   0.691   8.961   3.626 -0.2916 -0.0774  0.7938
10514SOL    HW142471   0.656   9.054   3.629 -2.2540 -0.6842 -1.6772
10514SOL    HW242472   0.632   8.904   3.569  1.9160 -2.3869  0.6809
10515SOL     OW42473   3.474   5.622   4.824 -0.3776 -0.2411 -0.2118
10515SOL    HW142474   3.525   5.615   4.738 -0.9475  2.4259 -0.8147
10515SOL    HW242475   3.448   5.530   4.854  1.4923 -1.3631 -1.8600
10516SOL     OW42476   4.542   1.149   3.925  0.1666 -0.2298 -0.4891
10516SOL    HW142477   4.509   1.126   4.017  0.9576 -1.2241 -0.4483
10516SOL    HW242478   4.637   1.179   3.930 -0.4269  1.7428 -0.7303
10517SOL     OW42479   6.774   8.256   2.775  0.2280  0.2510  0.0890
10517SOL    HW142480   6.783   8.157   2.785 -0.6346  0.2444  0.9638
10517SOL    HW242481   6.855   8.294   2.730 -0.0016 -1.0126 -1.4034
10518SOL     OW42482   9.315   1.990   1.726 -0.3808  0.2004 -0.0712
10518SOL    HW142483   9.292   2.035   1.812 -1.8431 -0.1123 -0.2913
10518SOL    HW242484   9.383   1.918   1.743  0.1526  0.8640  0.6441
10519SOL     OW42485   4.578   9.366   3.475  0.0570 -0.0255  0.0478
10519SOL    HW142486   4.617   9.348   3.565 -0.9200 -3.2728 -0.1002
10519SOL    HW242487   4.480   9.384   3.484 -0.1010 -0.6456 -0.3506
10520SOL     OW42488   1.114   5.926   4.062 -0.9215 -0.3290  0.4614
10520SOL    HW142489   1.072   6.000   4.114  1.5484  1.2226  0.3115
10520SOL    HW242490   1.139   5.959   3.971  0.8505 -1.1536  0.6394
10521SOL     OW42491   1.002   4.858   1.843  0.7387  0.1659 -0.1338
10521SOL    HW142492   1.091   4.812   1.837  0.7606  0.1441  0.3925
10521SOL    HW242493   0.973   4.863   1.938 -0.2812 -0.6906 -0.3904
10522SOL     OW42494   9.216   3.784   3.330 -0.1464  0.6257  0.1660
10522SOL    HW142495   9.273   3.857   3.291  0.3781  0.8008  1.2249
10522SOL    HW242496   9.141   3.826   3.381 -0.5710  0.4034 -0.2720
10523SOL     OW42497   8.870   6.615   6.177 -0.9871  0.0142  0.0971
10523SOL    HW142498   8.814   6.676   6.120 -1.2789 -0.1278  0.2300
10523SOL    HW242499   8.906   6.667   6.255  1.3750  0.8285 -1.4628
10524SOL     OW42500   0.437   1.069   2.586  0.9720 -0.0857  0.0589
10524SOL    HW142501   0.419   1.167   2.594  0.5820 -0.1828  0.3947
10524SOL    HW242502   0.431   1.041   2.490 -0.7818 -0.1279  0.1641
10525SOL     OW42503   6.405   7.596   1.983 -0.3689  0.2583  0.6251
10525SOL    HW142504   6.394   7.690   1.950  1.5619  0.5615  0.7583
10525SOL    HW242505   6.351   7.534   1.927  0.8325  1.0704 -1.4892
10526SOL     OW42506   2.284   4.114   1.135  0.6538 -0.4885 -0.3275
10526SOL    HW142507   2.348   4.054   1.184  1.4962  0.5405 -0.1375
10526SOL    HW242508   2.294   4.208   1.169 -2.1836 -0.5807  0.9233
10527SOL     OW42509   9.321   9.043   4.825 -0.1131 -0.3845  0.2541
10527SOL    HW142510   9.399   8.989   4.858  0.7993  0.7714  0.0020
10527SOL    HW242511   9.352   9.135   4.801 -1.4263 -0.1508 -0.5501
10528SOL     OW42512   1.858   0.615   2.925 -0.2376  0.4625 -0.0674
10528SOL    HW142513   1.933   0.679   2.942 -0.7662  0.7476  1.2332
10528SOL    HW242514   1.863   0.583   2.830  1.7374  0.1876  0.0998
10529SOL     OW42515   0.525   7.117   4.801 -0.3609 -0.1428 -0.0063
10529SOL    HW142516   0.460   7.107   4.726 -0.8270 -0.2610  0.4115
10529SOL    HW242517   0.480   7.094   4.888  0.6731 -1.8414  0.1157
10530SOL     OW42518   4.123   6.357   3.610 -0.1844  0.0983 -0.0108
10530SOL    HW142519   4.151   6.297   3.535 -0.2559  0.1426 -0.0724
10530SOL    HW242520   4.198   6.420   3.632 -0.3889  0.4972 -0.4608
10531SOL     OW42521   0.171   3.431   0.821  0.7531 -0.4720 -0.1258
10531SOL    HW142522   0.107   3.501   0.851  0.5278 -1.5387  1.9391
10531SOL    HW242523   0.125   3.367   0.759 -0.0140 -0.8852  0.8747
10532SOL     OW42524   0.910   1.157   2.654  0.3256  0.2330 -0.4710
10532SOL    HW142525   1.006   1.169   2.631 -0.0344  1.0264 -1.5591
10532SOL    HW242526   0.860   1.126   2.574 -0.4372  0.3965 -0.0629
10533SOL     OW42527   7.361   7.848   4.259 -0.3069 -0.4107  0.0682
10533SOL    HW142528   7.403   7.927   4.216  0.3044 -0.7690  0.0102
10533SOL    HW242529   7.323   7.875   4.348 -0.4896  0.0450 -0.1481
10534SOL     OW42530   5.094   2.334   1.890  0.1059  0.3146  0.3446
10534SOL    HW142531   5.189   2.352   1.864 -0.1803  1.5049  0.1290
10534SOL    HW242532   5.051   2.276   1.821 -0.2199  2.2763 -1.1326
10535SOL     OW42533   9.336   1.787   4.469  0.0694  0.1552 -0.4506
10535SOL    HW142534   9.429   1.767   4.501  0.2347  0.1698 -0.9166
10535SOL    HW242535   9.328   1.764   4.372 -0.1769  0.9178 -0.6182
10536SOL     OW42536   4.243   7.605   4.421 -0.6720 -0.4539 -0.3464
10536SOL    HW142537   4.211   7.689   4.466  3.0356  0.5582  0.5271
10536SOL    HW242538   4.187   7.528   4.452 -1.2141  0.9912  2.4112
10537SOL     OW42539   9.951   1.286   3.595  0.3554  0.4454 -0.0073
10537SOL    HW142540   9.964   1.368   3.650  0.2316  0.6987 -0.3541
10537SOL    HW242541   9.963   1.205   3.653  1.1674  0.6970  0.1927
10538SOL     OW42542   3.697   2.613   4.753 -0.0340  0.8198 -0.2577
10538SOL    HW142543   3.789   2.635   4.786  0.4116  1.3936 -1.8402
10538SOL    HW242544   3.701   2.530   4.697 -0.7344  0.0055  0.8895
10539SOL     OW42545   0.754   1.307   1.212  0.0126 -0.3488  0.0005
10539SOL    HW142546   0.790   1.349   1.296 -0.2364  1.9194 -1.0030
10539SOL    HW242547   0.666   1.265   1.232 -0.0549  0.1850  0.8697
10540SOL     OW42548   5.032   8.754   4.532  0.3627  0.0014 -0.5165
10540SOL    HW142549   5.029   8.664   4.575 -1.2134 -0.7889 -2.1999
10540SOL    HW242550   5.126   8.778   4.510  0.8254 -1.0749  0.2762
10541SOL     OW42551   8.692   1.293   1.234 -0.0030  0.4681 -0.1951
10541SOL    HW142552   8.749   1.259   1.308  1.5676 -1.8932 -2.3864
10541SOL    HW242553   8.598   1.263   1.247  0.6734 -1.7232 -0.2160
10542SOL     OW42554   8.771   4.095   0.366 -0.5931 -0.3574 -0.1221
10542SOL    HW142555   8.810   4.013   0.324 -0.8822 -0.7387  0.3518
10542SOL    HW242556   8.816   4.112   0.453  0.6337  0.9482 -0.9901
10543SOL     OW42557   3.171   6.370   3.602 -0.2319 -0.4725  0.4109
10543SOL    HW142558   3.222   6.342   3.521 -1.8976 -1.3166 -0.3651
10543SOL    HW242559   3.235   6.398   3.674  1.3244 -2.0073 -0.3479
10544SOL     OW42560   0.870   7.047   2.900  0.4460 -0.3489  0.8055
10544SOL    HW142561   0.941   7.087   2.958 -0.2688  0.0031  1.4471
10544SOL    HW242562   0.835   6.964   2.943 -0.1634 -0.0261  0.9333
10545SOL     OW42563   7.994   9.628   4.345  0.2303  0.3601  0.1377
10545SOL    HW142564   8.017   9.710   4.398  1.7408  0.5757 -0.8400
10545SOL    HW242565   8.049   9.551   4.376  1.0136  0.4531 -1.0219
10546SOL     OW42566   2.493   6.673   4.126 -0.3093  0.2737  0.3600
10546SOL    HW142567   2.482   6.749   4.061 -1.4554 -1.2397 -1.2747
10546SOL    HW242568   2.589   6.645   4.127 -0.0902  0.9911  0.1085
10547SOL     OW42569   5.308   0.285   1.841  0.3848  0.6316 -0.2075
10547SOL    HW142570   5.350   0.317   1.757 -0.8058  1.6297 -0.4430
10547SOL    HW242571   5.215   0.253   1.822  0.0129  1.1026  0.7638
10548SOL     OW42572   3.519   0.351   4.533  0.6516  0.2758  0.1811
10548SOL    HW142573   3.472   0.264   4.539 -0.5177  0.9581  1.2858
10548SOL    HW242574   3.470   0.411   4.469  0.1567  0.8912  1.1258
10549SOL     OW42575   2.020   5.836   0.687  0.1401 -0.3909  0.4233
10549SOL    HW142576   1.964   5.806   0.609  0.4260  1.3986 -0.4881
10549SOL    HW242577   2.014   5.935   0.696 -0.4921 -0.6237  3.1662
10550SOL     OW42578   6.339   0.270   5.100 -0.1840  0.2362 -0.5704
10550SOL    HW142579   6.367   0.263   5.196 -0.4639  1.4703 -0.3834
10550SOL    HW242580   6.394   0.341   5.055 -0.8438  0.4742 -1.0147
10551SOL     OW42581   1.838   5.253   3.860  0.3069  0.4052  0.4814
10551SOL    HW142582   1.764   5.186   3.857 -1.4808  2.3185  0.6272
10551SOL    HW242583   1.838   5.299   3.949  2.3091 -0.2764  0.8389
10552SOL     OW42584   4.785   1.502   4.618 -0.4936  0.1181  0.1308
10552SOL    HW142585   4.686   1.491   4.618 -0.3929 -0.8349  0.0443
10552SOL    HW242586   4.819   1.507   4.524 -0.3799 -0.3311  0.1463
10553SOL     OW42587   6.319   1.153   3.355 -0.0032 -0.0100  0.1372
10553SOL    HW142588   6.279   1.075   3.403  0.5580 -0.7692 -0.6114
10553SOL    HW242589   6.262   1.176   3.276  0.9390 -0.9987 -0.8449
10554SOL     OW42590   5.683   4.456   0.988 -0.0942 -0.0187 -0.2140
10554SOL    HW142591   5.665   4.358   0.978 -1.2858  0.1991 -0.3091
10554SOL    HW242592   5.652   4.486   1.078 -1.2935  0.6005 -0.8246
10555SOL     OW42593   0.506   2.596   1.169  0.2854 -0.1970 -0.2085
10555SOL    HW142594   0.581   2.651   1.134  0.8307  0.0481  1.3058
10555SOL    HW242595   0.478   2.528   1.100  2.0423 -0.4508 -0.6812
10556SOL     OW42596   9.090   9.388   3.038  0.1092 -0.2781  0.8241
10556SOL    HW142597   9.018   9.340   2.987 -0.8540  1.2142  0.7510
10556SOL    HW242598   9.173   9.394   2.983 -0.5242  0.2077 -0.0864
10557SOL     OW42599   8.772   0.414   5.208 -0.0037  0.2562 -0.0472
10557SOL    HW142600   8.737   0.390   5.298 -1.1974  0.1114 -0.5446
10557SOL    HW242601   8.807   0.508   5.210 -0.2698  0.3457  0.4946
10558SOL     OW42602   1.315   5.280   0.198  0.0619 -0.0885 -0.2045
10558SOL    HW142603   1.230   5.312   0.240  1.6449  2.3152  1.3126
10558SOL    HW242604   1.358   5.212   0.257  0.2841  0.3051  0.0842
10559SOL     OW42605   3.391   4.046   6.740 -1.0164  0.1485 -0.4984
10559SOL    HW142606   3.430   4.133   6.770 -1.6535  0.2076  0.1713
10559SOL    HW242607   3.358   4.055   6.646 -0.4640  0.4317 -0.6667
10560SOL     OW42608   8.206   3.231   0.236 -0.2529  0.1177 -0.2082
10560SOL    HW142609   8.194   3.324   0.203  0.5241  0.2218 -0.1970
10560SOL    HW242610   8.209   3.168   0.158 -0.2084  0.1638 -0.2433
10561SOL     OW42611   2.947   0.973   3.479 -0.2184 -0.6710 -0.0004
10561SOL    HW142612   2.892   0.978   3.562 -0.1142  1.8566 -0.0403
10561SOL    HW242613   2.984   0.880   3.468 -1.4743 -1.4240  1.9373
10562SOL     OW42614   1.738   8.511   5.592  0.0223  0.1117  0.2278
10562SOL    HW142615   1.754   8.575   5.517  0.1743 -0.0816  0.0947
10562SOL    HW242616   1.732   8.561   5.678  3.1421  0.0381  0.5452
10563SOL     OW42617   9.093   3.450   3.655  0.3982  0.0446 -0.5524
10563SOL    HW142618   9.101   3.542   3.692  0.4825 -0.1811 -0.0037
10563SOL    HW242619   9.007   3.409   3.685  0.8513 -0.4496  0.0929
10564SOL     OW42620   3.734   8.638   2.965  0.1825 -0.5588  0.8151
10564SOL    HW142621   3.672   8.710   2.996  0.9024  0.0188  0.9339
10564SOL    HW242622   3.694   8.590   2.887 -0.8691 -0.8830  1.5544
10565SOL     OW42623   6.678   9.677   1.862  0.1116 -0.5332  0.6459
10565SOL    HW142624   6.614   9.604   1.840  0.6367 -0.8971  0.3261
10565SOL    HW242625   6.709   9.721   1.777  0.1178 -0.2140  0.8124
10566SOL     OW42626   3.764   2.330   1.058 -0.2656 -0.3018  0.0549
10566SOL    HW142627   3.757   2.249   1.001 -2.0908  0.8825 -1.4404
10566SOL    HW242628   3.844   2.384   1.031 -0.0740 -0.6822 -0.1306
10567SOL     OW42629   1.224   7.640   2.574 -0.3110 -0.0373 -0.3785
10567SOL    HW142630   1.205   7.625   2.671  0.5219 -0.2055 -0.2370
10567SOL    HW242631   1.265   7.557   2.535 -1.2652 -0.2130 -1.0439
10568SOL     OW42632   2.455   8.856   1.538 -0.0481 -0.1611 -0.2362
10568SOL    HW142633   2.363   8.853   1.498 -0.2214  0.1379  0.1390
10568SOL    HW242634   2.472   8.770   1.587 -0.1080 -0.2387 -0.3524
10569SOL     OW42635   8.801   1.485   2.460 -0.1165  0.4084 -0.2395
10569SOL    HW142636   8.750   1.468   2.376  0.2507 -2.6374  0.1024
10569SOL    HW242637   8.738   1.491   2.537 -0.3244  1.6583 -0.4951
10570SOL     OW42638   2.631   4.652   4.531 -0.2913  0.3972  0.8219
10570SOL    HW142639   2.646   4.616   4.624  0.7983  3.2392  1.8052
10570SOL    HW242640   2.685   4.599   4.466  0.3304 -0.5174  2.0548
10571SOL     OW42641   9.251   4.755   2.249  0.1580 -0.1127 -0.1106
10571SOL    HW142642   9.266   4.846   2.211  0.7368 -0.2001 -0.0976
10571SOL    HW242643   9.337   4.704   2.249  0.2275 -0.0251  1.5641
10572SOL     OW42644   7.287   2.628   2.460  0.2515 -0.7359  1.0237
10572SOL    HW142645   7.348   2.656   2.534 -0.9606  0.2684  1.6815
10572SOL    HW242646   7.194   2.659   2.481  0.0921  0.6685 -1.4973
10573SOL     OW42647   8.221   0.858   0.235 -0.5111  0.1435  0.1828
10573SOL    HW142648   8.298   0.922   0.237 -0.0941 -0.3352 -0.3803
10573SOL    HW242649   8.229   0.795   0.312 -0.4577  0.2318  0.2502
10574SOL     OW42650   0.438   1.689   1.377  0.1376  0.3018 -0.2121
10574SOL    HW142651   0.462   1.731   1.290  1.8344 -2.5281 -1.1653
10574SOL    HW242652   0.446   1.757   1.451 -0.7351  2.5492 -2.1269
10575SOL     OW42653   2.210   8.653   3.288 -0.1258  0.5687  0.5904
10575SOL    HW142654   2.268   8.618   3.215  0.3393  0.5500  0.9667
10575SOL    HW242655   2.205   8.584   3.361  0.2344  1.0048  1.0260
10576SOL     OW42656   3.319   4.448   0.621 -0.6047  0.0884 -0.0988
10576SOL    HW142657   3.275   4.537   0.606  0.5766  0.7452  0.3344
10576SOL    HW242658   3.358   4.445   0.713 -0.9167 -1.0064  0.0065
10577SOL     OW42659   9.638   1.646   3.328 -0.0280  0.1043 -0.5422
10577SOL    HW142660   9.562   1.586   3.301  0.3193 -0.3883 -0.4387
10577SOL    HW242661   9.697   1.598   3.393  0.9678  0.0853 -1.4329
10578SOL     OW42662   7.176   9.474   5.557 -0.1730  0.1907 -0.0617
10578SOL    HW142663   7.098   9.427   5.598  0.7648 -0.6335  0.8269
10578SOL    HW242664   7.158   9.572   5.553 -1.1611  0.0301  0.3324
10579SOL     OW42665   3.833   2.575   4.019 -0.4141  0.0617  0.0822
10579SOL    HW142666   3.738   2.581   3.986 -0.0045 -0.4683 -1.2435
10579SOL    HW242667   3.836   2.599   4.116 -1.6826  1.5960 -0.2306
10580SOL     OW42668   1.560   2.420   1.622 -0.4254  0.4735 -0.0933
10580SOL    HW142669   1.470   2.445   1.586 -0.5637  0.8248  0.4897
10580SOL    HW242670   1.551   2.340   1.681 -0.3112  0.3404 -0.2558
10581SOL     OW42671   4.210   2.885   0.809  0.3927 -0.3885 -0.1434
10581SOL    HW142672   4.166   2.968   0.841  0.6016 -1.2015  2.3232
10581SOL    HW242673   4.288   2.864   0.867  0.5860 -2.1090 -0.9879
10582SOL     OW42674   3.394   4.935   6.427  0.0205  0.6273  0.3672
10582SOL    HW142675   3.488   4.917   6.457  0.2446 -0.8937 -1.1592
10582SOL    HW242676   3.335   4.859   6.455  0.0506 -0.3529 -2.0924
10583SOL     OW42677   4.032   7.127   1.506  0.3432  0.2936 -0.3370
10583SOL    HW142678   4.105   7.191   1.484  0.6796  0.5152  1.3503
10583SOL    HW242679   3.953   7.177   1.540 -0.3693  0.0061 -1.5487
10584SOL     OW42680   0.491   0.329   2.144 -0.6543  0.1059  0.0105
10584SOL    HW142681   0.502   0.280   2.231 -0.7404  0.5919  0.3003
10584SOL    HW242682   0.414   0.393   2.152  0.9096  1.9674  0.4078
10585SOL     OW42683   2.420   7.056   6.270 -0.1525  0.3382 -0.4120
10585SOL    HW142684   2.512   7.087   6.243 -0.1421  0.2591 -0.4666
10585SOL    HW242685   2.404   7.080   6.366 -1.1082  2.7680 -1.1430
10586SOL     OW42686   8.639   3.423   5.604  0.3469 -0.2437  0.1366
10586SOL    HW142687   8.698   3.499   5.630 -0.7178  0.4754  0.4807
10586SOL    HW242688   8.669   3.386   5.516  0.4015  1.0736 -0.4059
10587SOL     OW42689   2.984   1.373   3.282  0.4376  0.2059  0.2656
10587SOL    HW142690   3.041   1.451   3.256  0.9867 -0.4058 -0.3637
10587SOL    HW242691   2.892   1.386   3.244  0.8551 -0.0192 -0.8393
10588SOL     OW42692   4.865   6.656   2.222 -0.0901 -0.1368  0.3764
10588SOL    HW142693   4.818   6.570   2.207 -0.6634 -0.3112  3.0614
10588SOL    HW242694   4.809   6.731   2.186  0.0505 -0.7696 -1.2309
10589SOL     OW42695   9.065   2.398   0.709  0.6911 -0.5892 -0.4696
10589SOL    HW142696   9.101   2.337   0.779  0.4859  0.9550  1.0145
10589SOL    HW242697   9.065   2.351   0.621 -1.5602 -3.5168  0.9944
10590SOL     OW42698   4.306   5.110   1.668  0.5124  0.1718 -0.4429
10590SOL    HW142699   4.361   5.033   1.636 -0.4423 -0.5313 -0.4108
10590SOL    HW242700   4.262   5.085   1.755  0.1264  0.7246 -0.4788
10591SOL     OW42701   1.372   3.452   4.223 -0.5214  0.2578  0.3889
10591SOL    HW142702   1.395   3.449   4.320 -1.6280  0.3875  0.6672
10591SOL    HW242703   1.354   3.546   4.195 -2.4055 -0.0016  0.6135
10592SOL     OW42704   1.850   5.428   3.139  0.4333  0.7308 -0.3803
10592SOL    HW142705   1.928   5.466   3.189  0.1841  1.3036 -0.4232
10592SOL    HW242706   1.765   5.463   3.178  0.2418  1.4202 -1.3915
10593SOL     OW42707   0.153   6.942   5.267  0.1190 -0.3739  0.1442
10593SOL    HW142708   0.160   6.930   5.168 -2.5338  0.0230 -0.1389
10593SOL    HW242709   0.176   7.036   5.291 -1.4780  0.1820 -0.4101
10594SOL     OW42710   5.745   1.417   2.086  0.1682 -0.2761  0.3294
10594SOL    HW142711   5.740   1.515   2.101  3.4331  0.1189 -0.9113
10594SOL    HW242712   5.660   1.385   2.044 -1.0757  1.9105  1.1335
10595SOL     OW42713   5.521   8.665   3.686  0.0344 -0.3793  0.7150
10595SOL    HW142714   5.511   8.592   3.618 -2.5295 -1.4507  2.1882
10595SOL    HW242715   5.517   8.754   3.641  2.6456 -1.0794 -1.0364
10596SOL     OW42716   8.532   4.980   1.128 -0.1939  0.0163  0.6015
10596SOL    HW142717   8.460   4.915   1.102 -0.2613  1.0960 -2.0737
10596SOL    HW242718   8.524   5.000   1.226 -1.3876 -2.4730  1.0708
10597SOL     OW42719   1.393   4.367   0.489  0.6021 -0.3218 -0.0006
10597SOL    HW142720   1.430   4.459   0.498  0.2225  0.0041 -1.6387
10597SOL    HW242721   1.406   4.335   0.395 -1.7622 -0.8519 -0.1647
10598SOL     OW42722   8.182   4.700   0.952 -0.1890  0.3388  0.5283
10598SOL    HW142723   8.174   4.601   0.966 -0.5914  0.3370  0.2953
10598SOL    HW242724   8.187   4.719   0.854  2.3283  0.3759  0.6116
10599SOL     OW42725   2.765   7.443   4.261 -0.4382  0.3516  0.1376
10599SOL    HW142726   2.741   7.442   4.358 -1.2739  1.2329 -0.0508
10599SOL    HW242727   2.837   7.377   4.244 -1.5855 -1.1622  1.0320
10600SOL     OW42728   3.315   3.853   1.549  0.0093  0.4643 -0.1106
10600SOL    HW142729   3.265   3.785   1.603  2.0527 -1.1589 -0.2025
10600SOL    HW242730   3.369   3.910   1.611  0.5527  0.1080 -0.2550
10601SOL     OW42731   2.508   9.465   3.777  0.0240  0.3496  0.5138
10601SOL    HW142732   2.412   9.483   3.801 -0.1714  0.1508 -0.1233
10601SOL    HW242733   2.514   9.385   3.718  0.6509 -0.0379  1.0962
10602SOL     OW42734   2.727   0.281   4.540 -0.0896  0.3186 -0.2641
10602SOL    HW142735   2.754   0.293   4.445 -1.7039 -0.0316 -0.7763
10602SOL    HW242736   2.767   0.355   4.595 -0.1156  1.2012 -1.4108
10603SOL     OW42737   0.453   4.403   1.762  0.1171  0.4863  0.6554
10603SOL    HW142738   0.431   4.369   1.670  0.2815  2.0587  0.0223
10603SOL    HW242739   0.500   4.331   1.813  0.3977 -0.2643 -0.6314
10604SOL     OW42740   8.372   1.159   3.194  0.0667 -0.2318 -0.2368
10604SOL    HW142741   8.277   1.131   3.207  0.2192 -0.9706 -0.7103
10604SOL    HW242742   8.406   1.201   3.278 -0.5531 -0.3302  0.0656
10605SOL     OW42743   9.746   8.568   4.012 -0.1979 -0.0350 -0.4123
10605SOL    HW142744   9.781   8.504   3.943 -1.8310 -1.5965  0.1857
10605SOL    HW242745   9.679   8.629   3.970 -1.2961 -1.0770 -0.1722
10606SOL     OW42746   6.976   6.877   3.678  0.2796  0.0119 -0.1834
10606SOL    HW142747   7.040   6.800   3.675 -1.2454 -1.2710 -0.4017
10606SOL    HW242748   6.883   6.843   3.694  0.0678  2.0995  3.4754
10607SOL     OW42749   4.363   3.951   0.745 -0.0480  0.0333  0.1619
10607SOL    HW142750   4.334   3.951   0.650  0.9514 -1.4548 -0.1429
10607SOL    HW242751   4.463   3.946   0.750 -0.0849  0.2491  1.2904
10608SOL     OW42752   8.107   2.243   4.508 -0.0113 -0.1010 -0.0712
10608SOL    HW142753   8.025   2.255   4.565  0.2725 -0.1773  0.3583
10608SOL    HW242754   8.126   2.328   4.459  0.9723  0.6604  1.5997
10609SOL     OW42755   2.108   3.053   4.421  0.3338  0.3047 -0.3576
10609SOL    HW142756   2.111   2.979   4.355  1.0903 -0.4577  0.5174
10609SOL    HW242757   2.098   3.140   4.374 -1.3413 -0.4114 -1.3647
10610SOL     OW42758   2.629   4.770   3.682  0.2862  0.0333  0.0920
10610SOL    HW142759   2.686   4.732   3.755  0.8658  0.5325 -0.0983
10610SOL    HW242760   2.612   4.699   3.613 -0.7055 -0.5976  0.9594
10611SOL     OW42761   1.193   4.384   2.547 -0.1485 -0.4641 -0.0093
10611SOL    HW142762   1.246   4.323   2.606 -0.0719  0.3666  0.7865
10611SOL    HW242763   1.253   4.422   2.477 -0.1560 -1.1543 -0.3991
10612SOL     OW42764   5.360   8.015   4.649  0.2435  0.2590 -0.0977
10612SOL    HW142765   5.361   8.093   4.712  1.9037 -0.7432  1.1597
10612SOL    HW242766   5.378   8.048   4.556  0.4433  1.4321  0.3432
10613SOL     OW42767   0.188   9.332   3.481 -0.4340 -0.1947  0.2709
10613SOL    HW142768   0.129   9.401   3.522 -3.1971 -2.6631  0.6453
10613SOL    HW242769   0.188   9.343   3.381 -1.8184 -0.3402  0.2406
10614SOL     OW42770   8.299   1.736   4.708  0.2976  0.3423 -0.1584
10614SOL    HW142771   8.200   1.737   4.698  0.3139 -0.1397 -0.3997
10614SOL    HW242772   8.328   1.816   4.761 -0.2831  0.0752  0.5641
10615SOL     OW42773   1.037   6.913   4.830 -0.4387 -0.0532  0.3256
10615SOL    HW142774   1.089   6.963   4.761 -0.3502  0.5821  0.8572
10615SOL    HW242775   0.942   6.902   4.799 -0.5803  0.8705  0.4348
10616SOL     OW42776   0.867   8.213   1.175 -0.0435 -0.5639  0.1317
10616SOL    HW142777   0.809   8.155   1.233  0.2878 -1.0752 -0.0483
10616SOL    HW242778   0.904   8.159   1.100  0.1512 -0.0831 -0.1205
10617SOL     OW42779   2.995   6.514   6.437  0.2280  0.6397  0.0536
10617SOL    HW142780   2.995   6.511   6.537 -0.0732 -0.5122  0.0246
10617SOL    HW242781   3.020   6.424   6.401  1.6942  1.4098 -0.9073
10618SOL     OW42782   2.237   1.923   2.591  0.0487  0.2488 -0.1656
10618SOL    HW142783   2.315   1.979   2.620 -1.1985  1.0664  1.7965
10618SOL    HW242784   2.187   1.971   2.519 -0.6599  1.4400  1.0787
10619SOL     OW42785   1.130   5.351   1.949 -0.1244  0.1721  0.2631
10619SOL    HW142786   1.105   5.292   2.025  0.0405  1.0638  1.0186
10619SOL    HW242787   1.181   5.430   1.983  0.9524  0.0056 -0.8960
10620SOL     OW42788   4.678   4.186   1.384  0.3081  0.0492  0.3857
10620SOL    HW142789   4.704   4.195   1.480  1.0645  1.1807  0.0866
10620SOL    HW242790   4.749   4.135   1.335 -0.4154 -1.1478  0.5618
10621SOL     OW42791   8.818   9.666   3.863 -0.1442 -0.3096 -0.2421
10621SOL    HW142792   8.820   9.766   3.860 -0.0754 -0.2951  0.1907
10621SOL    HW242793   8.884   9.630   3.797 -1.0464 -0.0841 -1.2764
10622SOL     OW42794   4.720   9.653   4.805  0.0841 -0.4365 -0.5210
10622SOL    HW142795   4.812   9.632   4.772  0.8957  0.4421  1.1534
10622SOL    HW242796   4.690   9.580   4.866  2.0474  2.0458  3.5911
10623SOL     OW42797   1.875   5.011   6.206  0.1934 -0.5129 -0.2732
10623SOL    HW142798   1.794   4.956   6.229 -0.0906 -0.3039 -0.7824
10623SOL    HW242799   1.906   5.060   6.288  0.4080 -1.3696  0.1742
10624SOL     OW42800   0.853   3.343   2.624 -0.0919  0.0853 -0.0279
10624SOL    HW142801   0.768   3.297   2.649 -0.1825  0.6799  0.7731
10624SOL    HW242802   0.927   3.312   2.683 -0.5216  2.2493  1.7122
10625SOL     OW42803   0.657   7.378   4.483  0.7077  0.5373  0.0158
10625SOL    HW142804   0.648   7.385   4.583  0.0116 -1.8413  0.1775
10625SOL    HW242805   0.705   7.458   4.448  2.4973  0.6178  2.4604
10626SOL     OW42806   2.623   8.686   3.248 -0.0479 -0.5459 -0.7541
10626SOL    HW142807   2.706   8.738   3.271 -0.1646 -0.5377 -0.3566
10626SOL    HW242808   2.617   8.605   3.306 -2.2556  1.3737  1.8126
10627SOL     OW42809   2.907   0.715   2.789 -0.0196 -0.0187 -0.2643
10627SOL    HW142810   2.844   0.773   2.842  0.4257  0.1507  0.0751
10627SOL    HW242811   2.986   0.770   2.760  0.4858 -0.5043  0.1974
10628SOL     OW42812   9.485   7.080   4.066  0.2560 -0.0021 -0.2470
10628SOL    HW142813   9.515   7.171   4.096  1.5471 -0.2232 -0.8275
10628SOL    HW242814   9.559   7.036   4.016 -1.0323 -0.5899 -1.6737
10629SOL     OW42815   8.095   0.420   0.276 -0.4908  0.2991  0.4400
10629SOL    HW142816   8.073   0.373   0.191 -0.2747  1.5284 -0.3029
10629SOL    HW242817   8.068   0.363   0.354 -0.6276 -0.8536 -0.4474
10630SOL     OW42818   3.611   6.844   2.273  0.0227  0.1353  0.3147
10630SOL    HW142819   3.652   6.889   2.352 -2.0256  0.2400  1.3615
10630SOL    HW242820   3.579   6.753   2.299 -0.8935  0.2688 -0.2910
10631SOL     OW42821   1.859   1.011   2.575 -0.0444 -0.1821 -0.3679
10631SOL    HW142822   1.854   1.111   2.565 -4.0374 -0.0668  1.7919
10631SOL    HW242823   1.805   0.968   2.503 -0.0298 -0.7472 -0.0387
10632SOL     OW42824   4.212   4.098   3.738 -0.4399 -0.1312  0.4264
10632SOL    HW142825   4.296   4.152   3.736 -0.2571 -0.3898  0.9054
10632SOL    HW242826   4.140   4.146   3.689 -0.8501  1.5269  2.5596
10633SOL     OW42827   8.486   3.369   1.522  0.4237 -0.1054 -0.1108
10633SOL    HW142828   8.400   3.320   1.506 -0.9978  0.9539  3.6348
10633SOL    HW242829   8.545   3.314   1.581  1.4558  0.0937 -0.9388
10634SOL     OW42830   4.676   3.046   3.307  0.1724  0.0356 -0.0261
10634SOL    HW142831   4.671   2.960   3.255  0.5500  1.0017 -1.7057
10634SOL    HW242832   4.611   3.111   3.268  1.0893  1.0672  0.1717
10635SOL     OW42833   5.011   2.826   0.832 -0.0319  0.1398 -0.1333
10635SOL    HW142834   5.027   2.900   0.767 -1.3126  0.9323  0.4501
10635SOL    HW242835   5.057   2.743   0.799  1.8835  1.3119 -0.5054
10636SOL     OW42836   5.638   0.116   4.403 -0.7354 -0.2699  0.1737
10636SOL    HW142837   5.650   0.102   4.501  3.0656  0.2351 -0.1564
10636SOL    HW242838   5.671   0.207   4.378 -0.7831 -0.7447 -1.7162
10637SOL     OW42839   8.261   8.888   3.908  0.4471 -0.4945 -0.0265
10637SOL    HW142840   8.187   8.904   3.843  1.7793 -1.4446 -1.7937
10637SOL    HW242841   8.285   8.791   3.910  1.3375 -0.2703  0.8779
10638SOL     OW42842   6.283   0.840   2.883  0.5356  0.1153  0.1325
10638SOL    HW142843   6.223   0.903   2.834 -0.0858  1.0874  2.0977
10638SOL    HW242844   6.368   0.828   2.831 -0.3749  0.5932 -1.4942
10639SOL     OW42845   1.683   6.170   0.320  0.1323 -0.4084 -0.2478
10639SOL    HW142846   1.759   6.219   0.278  0.2781  0.1160  0.6206
10639SOL    HW242847   1.690   6.176   0.419  0.1603 -2.2143 -0.1260
10640SOL     OW42848   4.537   2.829   4.243 -0.6591 -0.0891  0.3023
10640SOL    HW142849   4.615   2.842   4.305 -1.3939 -0.6017  1.3675
10640SOL    HW242850   4.558   2.869   4.154  0.4820  0.5463  0.8369
10641SOL     OW42851   6.191   0.336   0.750  0.5529  0.0221  0.4256
10641SOL    HW142852   6.161   0.270   0.819 -0.4435  0.9221  0.8613
10641SOL    HW242853   6.289   0.324   0.733  0.0208 -2.7599 -0.8229
10642SOL     OW42854   2.922   5.199   5.944  0.1104 -0.1020  0.3479
10642SOL    HW142855   2.982   5.235   6.016  0.2080  0.2462  0.0914
10642SOL    HW242856   2.832   5.181   5.982  0.2037 -0.0599  0.5932
10643SOL     OW42857   9.947   2.442   0.103 -0.3734  0.0811  0.3319
10643SOL    HW142858   9.998   2.523   0.074  2.3365 -2.3488 -1.9867
10643SOL    HW242859   9.884   2.414   0.029  0.9774 -1.6940 -0.1829
10644SOL     OW42860   4.897   0.382   3.011 -0.1183 -0.0742  0.0385
10644SOL    HW142861   4.915   0.473   2.975 -0.7937 -0.2465 -0.7636
10644SOL    HW242862   4.804   0.379   3.050 -0.1646 -0.4621 -0.0946
10645SOL     OW42863   2.109   4.908   0.876  0.2168 -0.4453  0.1035
10645SOL    HW142864   2.179   4.906   0.805  1.8325 -0.0448  1.6361
10645SOL    HW242865   2.062   4.996   0.874 -0.2547 -0.7206 -0.9486
10646SOL     OW42866   8.180   0.898   4.910  0.6685  0.0784  0.1616
10646SOL    HW142867   8.205   0.927   5.002  0.4501 -0.9409  0.5474
10646SOL    HW242868   8.170   0.979   4.852  0.8349  0.7290  1.0175
10647SOL     OW42869   1.031   9.940   3.786 -0.2093 -0.0586  0.5423
10647SOL    HW142870   0.946   9.922   3.737 -0.2649  1.3702  0.0841
10647SOL    HW242871   1.011   9.958   3.883 -0.6970  2.3693  0.0390
10648SOL     OW42872   3.606   0.296   1.192 -0.4035  0.0731 -0.3899
10648SOL    HW142873   3.507   0.284   1.185 -0.2870 -0.5791 -0.9793
10648SOL    HW242874   3.652   0.217   1.153  0.3649  0.9996 -1.3919
10649SOL     OW42875   9.075   4.880   5.060 -0.5886  0.0698 -0.0764
10649SOL    HW142876   8.975   4.879   5.064 -0.5761  0.6122  0.3407
10649SOL    HW242877   9.111   4.935   5.135  0.0372 -0.4054 -0.0247
10650SOL     OW42878   8.669   8.825   3.574 -0.0068 -0.1713 -0.1071
10650SOL    HW142879   8.619   8.830   3.488  1.6501  0.4560 -1.0560
10650SOL    HW242880   8.613   8.863   3.648 -0.8032  0.8039 -1.2065
10651SOL     OW42881   7.556   3.466   1.531  0.3190  0.4599 -0.1909
10651SOL    HW142882   7.596   3.485   1.621  0.5557  1.3696 -0.4861
10651SOL    HW242883   7.593   3.380   1.496  0.5407  0.3091  0.3995
10652SOL     OW42884   7.192   9.043   5.630 -0.0381  0.0765 -0.0543
10652SOL    HW142885   7.207   9.137   5.599  1.7224  0.2111  1.0936
10652SOL    HW242886   7.247   9.026   5.712  1.5246 -2.6727 -1.5755
10653SOL     OW42887   8.170   9.671   0.565  0.2128  0.0342  0.4465
10653SOL    HW142888   8.082   9.628   0.585 -0.4099  0.7014 -0.8079
10653SOL    HW242889   8.192   9.738   0.637 -0.6059  0.3270  0.4253
10654SOL     OW42890   3.777   4.743   1.317  0.0066 -0.1437  0.3065
10654SOL    HW142891   3.847   4.776   1.380  0.4785  2.1902 -1.3866
10654SOL    HW242892   3.686   4.762   1.355  0.2819  1.3807  0.2164
10655SOL     OW42893   3.548   3.616   4.974 -0.4048 -0.4168 -0.3742
10655SOL    HW142894   3.467   3.581   5.020 -0.4304 -1.1143 -0.9380
10655SOL    HW242895   3.569   3.559   4.894  1.0536 -0.6818  0.1686
10656SOL     OW42896   9.559   3.036   1.035 -0.2292  0.5891 -0.1195
10656SOL    HW142897   9.608   3.111   1.080 -1.5784  1.5032 -0.1094
10656SOL    HW242898   9.600   3.016   0.947  1.2223  0.1418  0.6501
10657SOL     OW42899   9.148   1.685   1.038  0.0393 -0.3903 -0.1510
10657SOL    HW142900   9.175   1.684   1.135  0.0464  1.1020 -0.1184
10657SOL    HW242901   9.228   1.699   0.981  0.1222 -1.9038 -0.4238
10658SOL     OW42902   6.257   0.464   5.610  0.6469  0.1827  0.1674
10658SOL    HW142903   6.224   0.529   5.679 -1.7523  0.0332 -0.7806
10658SOL    HW242904   6.285   0.515   5.528  0.1552  0.1297 -0.0358
10659SOL     OW42905   8.295   9.619   4.177  0.3119  0.1593  0.1729
10659SOL    HW142906   8.368   9.582   4.120 -0.2446  0.6967 -0.9000
10659SOL    HW242907   8.267   9.550   4.244  2.1928  0.1528  0.9738
10660SOL     OW42908   2.526   2.242   4.223 -0.0973  0.0321 -0.2370
10660SOL    HW142909   2.486   2.333   4.212  1.3703  0.8202  0.7105
10660SOL    HW242910   2.596   2.227   4.154  0.5273  0.1210  0.3701
10661SOL     OW42911   0.503   8.981   2.509 -0.2855  0.6594 -0.5328
10661SOL    HW142912   0.471   8.891   2.541  0.5805  0.8736  1.0158
10661SOL    HW242913   0.546   9.029   2.586 -0.5967  2.3330 -1.4005
10662SOL     OW42914   4.152   1.147   1.091  0.3780 -0.1298  0.2577
10662SOL    HW142915   4.182   1.147   1.187  1.2618 -0.2340 -0.0177
10662SOL    HW242916   4.109   1.235   1.070  1.7180  0.5467  0.2843
10663SOL     OW42917   7.789   8.927   2.351 -0.4743 -0.1924 -0.4511
10663SOL    HW142918   7.827   8.855   2.293  0.6601 -0.1211  0.1761
10663SOL    HW242919   7.713   8.889   2.405 -1.9514 -0.0815 -2.4254
10664SOL     OW42920   4.114   7.293   2.991 -0.2995 -0.2550 -0.0054
10664SOL    HW142921   4.210   7.321   2.981  0.1150 -1.0339  1.7161
10664SOL    HW242922   4.086   7.243   2.909  0.6004  0.4291 -0.7443
10665SOL     OW42923   2.245   6.869   1.446 -0.2633 -0.3242 -0.6913
10665SOL    HW142924   2.222   6.966   1.438  0.9460  0.0254  0.0198
10665SOL    HW242925   2.162   6.814   1.432 -1.3314  0.8712  0.7381
10666SOL     OW42926   6.681   0.077   5.863  0.1638 -0.1217  0.0620
10666SOL    HW142927   6.645   0.140   5.932  1.3032  0.1471  0.4220
10666SOL    HW242928   6.617   0.071   5.786 -0.8352  0.0318  0.8697
10667SOL     OW42929   1.321   6.972   0.723 -0.2382  0.2274  0.3846
10667SOL    HW142930   1.229   6.936   0.708 -0.9359  1.6519  1.1475
10667SOL    HW242931   1.329   7.003   0.818  0.5182  1.5628 -0.1078
10668SOL     OW42932   6.818   0.688   1.285 -0.1665 -0.0864  0.9633
10668SOL    HW142933   6.832   0.608   1.344  0.3531 -0.0654  0.8739
10668SOL    HW242934   6.851   0.667   1.193 -2.5551 -0.7180  0.2186
10669SOL     OW42935   8.266   1.801   6.695 -0.2627 -0.0745  0.0089
10669SOL    HW142936   8.184   1.755   6.731 -1.2169  0.7325 -1.0873
10669SOL    HW242937   8.245   1.839   6.605  0.8856  1.4363  0.3741
10670SOL     OW42938   3.334   6.056   2.057  0.1688  0.6137 -0.0101
10670SOL    HW142939   3.354   5.963   2.027 -1.1340 -0.2884  1.8489
10670SOL    HW242940   3.347   6.064   2.155  0.6002  2.4999 -0.1910
10671SOL     OW42941   2.805   8.516   5.307 -0.0230 -0.3344 -0.2467
10671SOL    HW142942   2.834   8.455   5.233 -2.5241 -2.0875  0.1559
10671SOL    HW242943   2.865   8.504   5.386 -0.3410 -2.1106 -0.2610
10672SOL     OW42944   8.978   5.661   3.570 -0.0847 -0.0366  0.4812
10672SOL    HW142945   8.964   5.739   3.632 -1.9915  0.4176 -0.4923
10672SOL    HW242946   9.009   5.582   3.623 -0.7542  0.6245  1.8966
10673SOL     OW42947   2.347   3.883   5.614  0.3812  0.4110 -0.2639
10673SOL    HW142948   2.312   3.911   5.525  1.2849 -1.1316 -1.1190
10673SOL    HW242949   2.271   3.858   5.674 -0.2894  2.3067 -0.2760
10674SOL     OW42950   0.083   7.328   2.203 -0.2229 -0.4029  0.8943
10674SOL    HW142951   0.101   7.266   2.127  1.3220 -0.3261  1.1806
10674SOL    HW242952   0.035   7.409   2.169  1.6919  0.2703 -0.2532
10675SOL     OW42953   7.894   0.509   4.444  0.2284 -0.1311  0.1569
10675SOL    HW142954   7.971   0.532   4.504 -1.4127 -0.4672  2.4693
10675SOL    HW242955   7.913   0.423   4.397  1.1973 -0.3043  0.8568
10676SOL     OW42956   7.413   7.903   3.575 -0.2947  0.3737 -0.3872
10676SOL    HW142957   7.469   7.825   3.547 -1.4240  0.0012 -1.6698
10676SOL    HW242958   7.430   7.924   3.671 -0.4871 -1.8848  0.1642
10677SOL     OW42959   3.302   7.470   5.467  0.1524  0.1076 -0.2319
10677SOL    HW142960   3.269   7.409   5.395  0.5149 -0.3955  0.0294
10677SOL    HW242961   3.226   7.495   5.527 -0.4855  1.7421 -1.6563
10678SOL     OW42962   3.958   7.584   2.258 -0.0967  0.5814  0.1069
10678SOL    HW142963   3.990   7.492   2.279 -0.7786  0.5292  0.9376
10678SOL    HW242964   3.990   7.647   2.329  1.0854  1.1445 -0.9011
10679SOL     OW42965   8.755   5.383   0.025 -0.0787  0.0414 -0.0027
10679SOL    HW142966   8.820   5.442  -0.025  3.6961 -3.7201  0.2250
10679SOL    HW242967   8.730   5.427   0.111  0.4161  2.5568 -1.0858
10680SOL     OW42968   8.792   2.537   2.528 -0.3672  0.3309 -0.3328
10680SOL    HW142969   8.801   2.558   2.625 -1.7688  2.1124 -0.5645
10680SOL    HW242970   8.702   2.567   2.495  0.0324 -0.3792 -2.1388
10681SOL     OW42971   3.801   7.221   0.741  0.3812 -0.0635  0.2791
10681SOL    HW142972   3.725   7.226   0.805  3.5784 -0.3506  4.2663
10681SOL    HW242973   3.831   7.313   0.717 -1.0767  0.0470 -1.2032
10682SOL     OW42974   0.235   4.034   6.747 -0.0277 -0.2573  0.0553
10682SOL    HW142975   0.161   3.970   6.765  0.6482 -0.9611  0.3507
10682SOL    HW242976   0.229   4.111   6.811 -1.1270  0.2396 -0.6204
10683SOL     OW42977   3.914   7.886   4.252  0.0192  0.2750  0.3921
10683SOL    HW142978   3.885   7.909   4.345  0.1270 -0.3761  0.5902
10683SOL    HW242979   4.014   7.886   4.247  0.0105  0.5862  0.2035
10684SOL     OW42980   0.023   4.091   4.766 -0.4296 -0.2842  0.0689
10684SOL    HW142981   0.075   4.111   4.849  0.5461  0.0135 -0.6183
10684SOL    HW242982  -0.026   4.173   4.737 -0.5624 -0.3175  0.1963
10685SOL     OW42983   0.622   4.130   3.829 -0.1801  0.2310  0.0316
10685SOL    HW142984   0.658   4.037   3.837  2.1613  1.1117  0.1315
10685SOL    HW242985   0.523   4.127   3.823 -0.0821 -2.3209 -0.7487
10686SOL     OW42986   8.936   3.573   2.535 -0.3843 -0.2276  0.1328
10686SOL    HW142987   8.864   3.534   2.477 -0.5327 -1.0666  0.8632
10686SOL    HW242988   8.948   3.515   2.615  1.7577 -0.6145 -0.4484
10687SOL     OW42989   9.234   2.043   4.512  0.7990  0.4586  0.1448
10687SOL    HW142990   9.283   2.094   4.582  1.2212  0.2807 -0.0221
10687SOL    HW242991   9.281   1.956   4.494  1.2406  0.9496 -1.0645
10688SOL     OW42992   3.030   9.085   1.376 -0.3303  0.1991 -0.2311
10688SOL    HW142993   3.034   9.113   1.280 -0.3154  1.6140  0.1715
10688SOL    HW242994   3.053   9.163   1.434 -4.3809  0.4808  1.0936
10689SOL     OW42995   9.010   1.153   4.712  0.2871  0.7176 -0.0306
10689SOL    HW142996   8.962   1.149   4.624 -1.0398  1.7031  0.6207
10689SOL    HW242997   9.089   1.093   4.710 -0.6285 -0.4774 -1.3715
10690SOL     OW42998   1.289   3.490   1.611  0.1864 -0.2823 -0.0868
10690SOL    HW142999   1.372   3.434   1.619 -0.0235 -0.4190  1.3954
10690SOL    HW243000   1.266   3.527   1.701 -1.0839  0.1681 -0.5872
10691SOL     OW43001   7.917   0.726   5.555  0.6314  0.1552 -0.4519
10691SOL    HW143002   7.845   0.668   5.595 -0.0170  2.1372  1.4005
10691SOL    HW243003   7.985   0.747   5.625  0.1974  2.6236 -0.7451
10692SOL     OW43004   3.380   7.814   0.509  0.0726 -0.5942  0.2425
10692SOL    HW143005   3.455   7.790   0.447  0.7797 -1.6463  1.4922
10692SOL    HW243006   3.407   7.893   0.564 -1.5459  2.0059 -2.5657
10693SOL     OW43007   2.159   0.247   2.992  0.7736 -0.3220  0.0259
10693SOL    HW143008   2.072   0.276   2.953  1.4101 -1.3641 -2.2472
10693SOL    HW243009   2.168   0.285   3.084 -2.0606 -0.1932  0.3036
10694SOL     OW43010   8.839   6.809   3.340 -0.1888 -0.1029  0.0516
10694SOL    HW143011   8.931   6.794   3.374 -0.1161  1.2123  0.4416
10694SOL    HW243012   8.807   6.899   3.367 -1.9433 -0.8905  0.7154
10695SOL     OW43013   1.832   1.442   4.015 -0.1912 -0.0735  0.1446
10695SOL    HW143014   1.850   1.374   4.087 -2.9550 -2.1212 -1.0294
10695SOL    HW243015   1.844   1.534   4.053 -0.8435 -1.1234  3.0390
10696SOL     OW43016   5.650   1.099   0.806 -0.3111 -0.7407 -0.3998
10696SOL    HW143017   5.706   1.135   0.732  1.7106 -0.2509  1.3102
10696SOL    HW243018   5.573   1.161   0.823  2.2134  2.0749  1.4186
10697SOL     OW43019   2.469   6.361   5.602  0.1961 -0.3986 -0.2259
10697SOL    HW143020   2.554   6.374   5.549  0.4076 -3.8583 -0.8424
10697SOL    HW243021   2.403   6.311   5.547 -1.1761 -0.3526  1.3391
10698SOL     OW43022   7.344   6.896   4.462  0.0957  0.2676  0.3323
10698SOL    HW143023   7.430   6.847   4.446  0.2097 -0.1793  2.2839
10698SOL    HW243024   7.333   6.966   4.390  3.2237  1.8738  1.3062
10699SOL     OW43025   6.997   9.260   3.185  0.1020  0.2027 -0.0747
10699SOL    HW143026   6.912   9.214   3.213  0.2592 -0.3032 -0.4172
10699SOL    HW243027   7.056   9.274   3.264  0.6558 -1.4499 -0.1817
10700SOL     OW43028   0.793   4.979   2.172  0.6017  0.0442  0.4892
10700SOL    HW143029   0.741   5.041   2.114  0.6589 -1.6445 -1.3856
10700SOL    HW243030   0.756   4.887   2.166  1.0296 -0.3066  2.6245
10701SOL     OW43031   3.486   5.858   3.730 -0.1125 -0.2255 -0.0877
10701SOL    HW143032   3.577   5.846   3.770  0.0920  2.1437  0.2588
10701SOL    HW243033   3.429   5.778   3.751  1.1264 -0.6565  1.7914
10702SOL     OW43034   8.803   4.278   2.271 -0.0355 -0.5593 -0.1449
10702SOL    HW143035   8.890   4.291   2.224 -0.1575  0.1672 -0.1737
10702SOL    HW243036   8.746   4.360   2.260 -0.9451 -1.2418 -0.6020
10703SOL     OW43037   1.759   2.945   2.839 -0.2158  0.2291  0.0208
10703SOL    HW143038   1.769   3.041   2.865 -3.7599  0.4745  0.7042
10703SOL    HW243039   1.734   2.939   2.743  1.6537 -0.1458 -0.4724
10704SOL     OW43040   1.851   2.354   1.249 -0.2982  0.2722 -0.1271
10704SOL    HW143041   1.933   2.347   1.306 -0.6752 -0.1368  0.3719
10704SOL    HW243042   1.827   2.264   1.214  0.5840  0.6856 -1.8865
10705SOL     OW43043   9.543   3.449   6.422 -0.4868 -0.0848 -0.2536
10705SOL    HW143044   9.525   3.411   6.512 -0.5110  1.3209  0.3574
10705SOL    HW243045   9.481   3.526   6.405  0.9532  1.0392 -0.5628
10706SOL     OW43046   9.050   2.445   1.364  0.4046 -0.0559  0.4498
10706SOL    HW143047   9.100   2.531   1.372  0.6342 -0.0642 -0.8729
10706SOL    HW243048   9.039   2.421   1.268 -2.6962  0.2435  0.6800
10707SOL     OW43049   0.646   4.051   3.266 -0.5565  0.1293 -0.1870
10707SOL    HW143050   0.551   4.020   3.254  0.1067 -2.3543  0.6663
10707SOL    HW243051   0.708   3.973   3.259  1.4811  1.7915 -1.0968
10708SOL     OW43052   8.207   0.334   5.202 -0.0018 -0.9513  0.0659
10708SOL    HW143053   8.193   0.271   5.125 -0.1333  0.1036 -0.7712
10708SOL    HW243054   8.235   0.281   5.283 -0.5082 -2.1375 -0.5190
10709SOL     OW43055   0.212   4.233   0.201 -0.1025  0.2985 -0.0490
10709SOL    HW143056   0.112   4.235   0.198 -0.0552  0.6318 -1.6151
10709SOL    HW243057   0.247   4.326   0.210  0.1119  0.3060 -0.9887
10710SOL     OW43058   5.820   8.035   3.704  0.0121 -0.2125  0.0088
10710SOL    HW143059   5.884   7.970   3.663 -0.6849 -1.0613  0.2625
10710SOL    HW243060   5.806   8.012   3.800 -0.1855  0.3538  0.1170
10711SOL     OW43061   9.787   3.486   2.244 -0.1017 -0.3828 -0.0613
10711SOL    HW143062   9.719   3.553   2.216  0.7970  1.1078  1.2841
10711SOL    HW243063   9.878   3.527   2.245  0.4981 -1.6651  0.5792
10712SOL     OW43064   3.199   3.057   0.941 -0.0090  0.2895  0.9360
10712SOL    HW143065   3.292   3.036   0.971  0.3004 -0.4332 -0.4532
10712SOL    HW243066   3.202   3.087   0.845 -1.1110  1.0987  1.1525
10713SOL     OW43067   4.080   4.632   2.035 -0.3103  0.4375  0.3887
10713SOL    HW143068   4.102   4.552   1.979 -1.0043  0.4816  0.0491
10713SOL    HW243069   4.165   4.673   2.069  0.3116  1.8938 -2.6797
10714SOL     OW43070   2.874   6.260   6.318  0.0385  0.2741  0.0694
10714SOL    HW143071   2.817   6.338   6.291  0.8589  0.4275 -1.2701
10714SOL    HW243072   2.817   6.192   6.364 -0.5574  1.9535  1.8666
10715SOL     OW43073   2.286   3.636   5.907 -0.1354 -0.1375  0.1080
10715SOL    HW143074   2.384   3.654   5.906 -0.3772  1.1160 -1.5097
10715SOL    HW243075   2.251   3.630   5.813 -1.9369  1.2428  0.6588
10716SOL     OW43076   0.154   6.657   3.566  1.0572  0.2817 -0.6933
10716SOL    HW143077   0.139   6.752   3.593  1.5821  0.5071 -1.1985
10716SOL    HW243078   0.138   6.648   3.468 -2.9944 -0.9630 -0.0258
10717SOL     OW43079   5.292   0.033   4.773  0.4084  0.4197  0.8413
10717SOL    HW143080   5.207  -0.020   4.767  0.4720  0.5445 -1.4890
10717SOL    HW243081   5.290   0.107   4.706  3.5184 -1.2764 -1.2352
10718SOL     OW43082   3.357   7.165   5.159  0.4234  0.5982  0.4854
10718SOL    HW143083   3.344   7.114   5.074 -0.8319  2.5665 -0.5431
10718SOL    HW243084   3.454   7.184   5.172  0.4020  2.6723 -1.9789
10719SOL     OW43085   2.481   5.431   3.573  0.3238 -0.0899 -0.0552
10719SOL    HW143086   2.581   5.438   3.574  0.4188 -0.9822 -1.3364
10719SOL    HW243087   2.455   5.334   3.564 -0.6697  0.0134  1.6116
10720SOL     OW43088   9.808   3.362   4.973 -0.0309  0.3958  0.4199
10720SOL    HW143089   9.902   3.395   4.967 -0.3219  1.1374 -0.2249
10720SOL    HW243090   9.799   3.276   4.924  0.1451  0.7238 -0.1984
10721SOL     OW43091   1.798   1.912   1.000 -0.3372  0.1201 -0.3697
10721SOL    HW143092   1.786   1.974   1.077 -0.3174  1.8285 -1.7035
10721SOL    HW243093   1.773   1.960   0.915 -0.3893 -1.7270 -1.4116
10722SOL     OW43094   2.596   9.076   1.112  0.3484 -0.4889  0.3126
10722SOL    HW143095   2.616   9.114   1.202  1.4099 -0.6125  0.1391
10722SOL    HW243096   2.585   9.151   1.046  0.2108 -0.4176  0.4171
10723SOL     OW43097   2.387   1.368   3.700 -0.1588  0.4059  0.4810
10723SOL    HW143098   2.333   1.347   3.619 -0.2681 -0.5384  0.7986
10723SOL    HW243099   2.485   1.363   3.677 -0.1821 -0.6694  0.6088
10724SOL     OW43100   4.679   8.789   3.558  0.0600 -0.0582 -0.4120
10724SOL    HW143101   4.700   8.693   3.577 -1.4646 -0.1758  0.7512
10724SOL    HW243102   4.681   8.804   3.459 -0.1462 -1.3940 -0.6332
10725SOL     OW43103   2.712   5.427   5.571 -0.3040 -0.2960  0.3456
10725SOL    HW143104   2.662   5.454   5.653 -0.8498 -0.7129  0.1558
10725SOL    HW243105   2.795   5.377   5.597 -0.8951 -1.1303  0.6243
10726SOL     OW43106   8.130   2.001   4.581 -0.0932  0.2994  0.1635
10726SOL    HW143107   8.194   2.005   4.658 -0.3665 -1.1432  0.4723
10726SOL    HW243108   8.112   2.094   4.549 -1.4156  1.0770  3.0107
10727SOL     OW43109   7.511   9.419   2.915  0.4057 -0.5112 -0.3569
10727SOL    HW143110   7.465   9.507   2.907  0.6097 -0.2583  1.0951
10727SOL    HW243111   7.606   9.429   2.886 -0.0497 -0.7132 -2.0058
10728SOL     OW43112   0.599   9.354   5.046  0.4678 -0.7297  0.4161
10728SOL    HW143113   0.552   9.266   5.037  0.0510 -0.4553 -0.0861
10728SOL    HW243114   0.537   9.421   5.087  1.3421 -1.1291  2.4532
10729SOL     OW43115   7.999   2.169   4.999  0.0439  0.1890  0.2586
10729SOL    HW143116   7.990   2.199   5.093  0.3450  0.7476  0.1076
10729SOL    HW243117   8.049   2.082   4.996 -0.2860 -0.0153  0.6374
10730SOL     OW43118   7.415   1.285   4.386  0.8966 -0.9967 -0.7118
10730SOL    HW143119   7.327   1.314   4.349  0.7673 -0.1880  0.2130
10730SOL    HW243120   7.402   1.250   4.479  1.8152  0.8882  0.1452
10731SOL     OW43121   5.166   1.965   1.393 -0.3444  0.3901  0.7271
10731SOL    HW143122   5.189   1.921   1.480 -0.2324 -0.6128  0.2028
10731SOL    HW243123   5.168   1.897   1.320  0.0043  1.3188 -0.1396
10732SOL     OW43124   2.115   6.829   0.702  0.1496 -0.7726  0.0193
10732SOL    HW143125   2.121   6.917   0.749 -0.8950 -0.7876  0.1907
10732SOL    HW243126   2.019   6.806   0.687  0.4201 -1.9137  0.0238
10733SOL     OW43127   8.011   9.958   3.534  0.2285  0.0227 -0.2081
10733SOL    HW143128   8.028  10.013   3.616  0.0100 -0.7417  0.3526
10733SOL    HW243129   8.041  10.009   3.454 -0.5568  1.2337  0.2502
10734SOL     OW43130   8.278   2.592   5.216  0.2700  0.3777 -0.3255
10734SOL    HW143131   8.268   2.493   5.205  0.7007  0.2956 -0.0180
10734SOL    HW243132   8.208   2.627   5.278 -0.9689  0.5426 -1.7815
10735SOL     OW43133   8.285   5.158   3.696  0.1492  0.0369  0.1190
10735SOL    HW143134   8.332   5.101   3.763 -0.4201 -0.6012 -0.0204
10735SOL    HW243135   8.189   5.171   3.724  0.3232  1.0740  0.2461
10736SOL     OW43136   0.640   3.514   0.064  0.6370  0.0754 -0.2074
10736SOL    HW143137   0.664   3.519   0.161  0.8157  2.0044 -0.3243
10736SOL    HW243138   0.655   3.603   0.022 -2.1171  0.0108 -1.4031
10737SOL     OW43139   1.848   4.817   4.846  0.4949 -0.4648  0.7247
10737SOL    HW143140   1.798   4.878   4.908  0.1967 -1.2895  1.2935
10737SOL    HW243141   1.811   4.725   4.853  1.6194 -0.9269  0.6059
10738SOL     OW43142   8.929   5.977   0.986 -0.1922 -0.1752  0.0728
10738SOL    HW143143   8.853   5.912   0.979  0.0102 -0.2809 -1.1379
10738SOL    HW243144   8.973   5.987   0.897  0.0020  1.3603  0.3307
10739SOL     OW43145   8.639   7.107   0.045  0.4766 -0.1523 -0.0100
10739SOL    HW143146   8.714   7.071  -0.010  2.1980 -1.4995  3.0912
10739SOL    HW243147   8.578   7.032   0.071 -0.8616  0.6232 -0.8484
10740SOL     OW43148   8.172   1.134   4.788 -0.6222 -0.0508 -0.8328
10740SOL    HW143149   8.118   1.190   4.725 -0.1213  1.5613  0.1216
10740SOL    HW243150   8.267   1.166   4.788 -0.9441  1.1205  1.9341
10741SOL     OW43151   8.525   5.136   0.193 -0.2012 -0.5093  0.5680
10741SOL    HW143152   8.492   5.214   0.139  0.7347  0.9881  2.1454
10741SOL    HW243153   8.618   5.113   0.165 -0.9575 -1.9840 -0.8584
10742SOL     OW43154   4.139   5.030   2.428 -0.3678  0.0008  0.3777
10742SOL    HW143155   4.227   4.994   2.460  0.2442  1.3603  0.2551
10742SOL    HW243156   4.072   4.956   2.427  0.7628 -1.0550  0.4921
10743SOL     OW43157   8.436   6.047   0.012  0.1441  0.0670 -0.7242
10743SOL    HW143158   8.409   6.117  -0.055  1.5814  0.1710 -1.2194
10743SOL    HW243159   8.354   6.005   0.051 -0.7196  0.3855 -2.1512
10744SOL     OW43160   8.974   9.000   1.232  0.4346  0.6129 -0.7824
10744SOL    HW143161   9.039   8.967   1.301 -0.4084  2.7701  1.1060
10744SOL    HW243162   8.968   8.933   1.159  0.4507 -2.3782  1.8211
10745SOL     OW43163   0.851   4.257   2.721  0.3802  0.3484 -0.6132
10745SOL    HW143164   0.927   4.310   2.757 -0.6239  1.1875  0.2700
10745SOL    HW243165   0.776   4.318   2.697 -1.7352 -0.8224  2.6976
10746SOL     OW43166   9.669   1.190   0.783 -0.3106  0.4818  0.2134
10746SOL    HW143167   9.672   1.272   0.726 -1.1005 -0.7154 -1.6006
10746SOL    HW243168   9.740   1.126   0.752  1.6058  1.2115  2.8477
10747SOL     OW43169   1.928   6.192   4.165 -0.6294 -0.2805 -0.1681
10747SOL    HW143170   1.939   6.166   4.069  0.0051  2.0199 -0.7387
10747SOL    HW243171   1.834   6.219   4.181 -0.8961 -1.3163  0.0243
10748SOL     OW43172   1.104   5.630   5.348 -0.2536  0.2401 -0.3116
10748SOL    HW143173   1.154   5.715   5.365  0.3482 -0.1705  0.0027
10748SOL    HW243174   1.109   5.607   5.251 -0.9643  0.9041 -0.5028
10749SOL     OW43175   8.812   7.451   4.460 -0.1426  0.0928  0.7304
10749SOL    HW143176   8.836   7.547   4.441 -0.7583  0.2733  0.8671
10749SOL    HW243177   8.722   7.447   4.504  0.3157 -0.4869  1.6243
10750SOL     OW43178   9.177   8.159   2.354  0.8986 -0.0550 -0.3117
10750SOL    HW143179   9.152   8.173   2.258  2.0111 -0.7119 -0.7069
10750SOL    HW243180   9.203   8.063   2.368  2.2834  0.3952  0.2925
10751SOL     OW43181   1.971   1.370   2.267 -0.1187  0.2583  0.1958
10751SOL    HW143182   1.913   1.382   2.186 -0.3403 -1.3554  0.1164
10751SOL    HW243183   2.025   1.454   2.281 -1.7173  1.4060 -0.3122
10752SOL     OW43184   7.351   9.891   5.987  0.0242  0.1098 -0.3667
10752SOL    HW143185   7.364   9.977   5.937 -2.2165  0.4138 -0.5013
10752SOL    HW243186   7.395   9.898   6.077  1.7958  0.5484 -1.2581
10753SOL     OW43187   0.234   2.622   5.321 -0.1968 -0.2909 -0.0052
10753SOL    HW143188   0.264   2.687   5.390 -1.0942 -0.0481  0.1657
10753SOL    HW243189   0.244   2.662   5.230  2.4815 -1.2034 -0.1313
10754SOL     OW43190   5.435   8.601   1.600  0.1572  0.0050 -0.0434
10754SOL    HW143191   5.382   8.658   1.537 -0.4734  0.0824  0.5475
10754SOL    HW243192   5.391   8.511   1.609  0.1764  0.0349  0.3738
10755SOL     OW43193   8.905   4.661   5.357  0.4745 -0.4217 -0.1508
10755SOL    HW143194   8.814   4.619   5.357  0.3684 -0.2021 -0.9208
10755SOL    HW243195   8.896   4.758   5.380  0.3699 -0.1261 -1.3666
10756SOL     OW43196   4.001   3.402   4.569 -0.2435 -0.3630 -0.2654
10756SOL    HW143197   3.997   3.381   4.667 -1.9223  1.0219 -0.0243
10756SOL    HW243198   4.038   3.493   4.555 -0.4299 -0.3769 -0.8883
10757SOL     OW43199   8.342   6.465   2.473 -0.3263  0.4849  0.3821
10757SOL    HW143200   8.267   6.401   2.494  0.4948 -0.8652 -0.7345
10757SOL    HW243201   8.332   6.498   2.379 -0.7191  1.9912  0.9358
10758SOL     OW43202   2.786   0.970   2.711 -0.2451 -0.6390 -0.7461
10758SOL    HW143203   2.803   0.914   2.630  1.7923  0.8520 -1.3912
10758SOL    HW243204   2.847   1.050   2.710 -0.9641 -0.0155  1.6949
10759SOL     OW43205   2.097   6.210   0.480  0.0977  0.7497 -0.0095
10759SOL    HW143206   2.053   6.179   0.564 -0.8808  0.0634 -0.7586
10759SOL    HW243207   2.165   6.143   0.451 -1.2730 -0.2304 -1.0559
10760SOL     OW43208   4.246   6.619   1.152  0.1522  0.2358  0.3101
10760SOL    HW143209   4.263   6.703   1.102 -0.0613  0.8615  1.2648
10760SOL    HW243210   4.148   6.599   1.151  0.1871  0.0737  0.1931
10761SOL     OW43211   6.412   7.720   3.351  0.0195  0.0487 -0.1649
10761SOL    HW143212   6.418   7.744   3.254 -0.3154  1.6574  0.1989
10761SOL    HW243213   6.494   7.753   3.398  0.8199 -1.9299 -0.1409
10762SOL     OW43214   2.559   1.169   2.597 -1.0509  0.1889  0.6987
10762SOL    HW143215   2.587   1.089   2.544 -0.9085 -0.1175  1.2303
10762SOL    HW243216   2.468   1.154   2.635 -0.2185 -0.5244  2.4203
10763SOL     OW43217   9.094   9.396   3.414 -0.4563 -0.1391 -0.1516
10763SOL    HW143218   9.083   9.324   3.346  0.9871  1.0370 -1.6598
10763SOL    HW243219   9.049   9.479   3.383  1.6259  0.9031 -0.4820
10764SOL     OW43220   3.059   6.023   2.252 -0.3387 -0.1962 -0.0918
10764SOL    HW143221   3.060   6.053   2.156 -2.1126  1.2538  0.3357
10764SOL    HW243222   3.145   6.051   2.296  1.1562 -2.1802 -1.6099
10765SOL     OW43223   0.821   5.492   2.397 -0.3048 -0.1684  0.4431
10765SOL    HW143224   0.832   5.411   2.340 -0.3490  0.8745 -1.0829
10765SOL    HW243225   0.737   5.540   2.371 -1.4733 -0.8401  2.8757
10766SOL     OW43226   1.889   9.281   1.756  0.1035  0.2738  0.4654
10766SOL    HW143227   1.899   9.217   1.680  1.1812 -0.1518  0.9592
10766SOL    HW243228   1.882   9.374   1.720  0.1508  0.0357 -0.1782
10767SOL     OW43229   9.881   3.020   0.893  0.7852 -0.1827 -0.2838
10767SOL    HW143230   9.943   3.088   0.932  0.2768 -0.3750  0.8912
10767SOL    HW243231   9.852   2.957   0.965 -1.3308  0.3421 -0.6456
10768SOL     OW43232   0.635   6.103   0.322 -0.5110 -0.6722  0.8063
10768SOL    HW143233   0.695   6.104   0.402  0.6139 -0.5908 -0.0369
10768SOL    HW243234   0.569   6.028   0.332 -0.1103 -0.9288  1.6072
10769SOL     OW43235   9.382   6.582   5.019 -0.0249 -0.0367  0.6509
10769SOL    HW143236   9.449   6.532   5.074  1.1543  2.7375  1.8540
10769SOL    HW243237   9.429   6.629   4.945 -0.9727  0.1157  0.1389
10770SOL     OW43238   9.426   6.595   6.587 -0.1083  0.1463  0.3630
10770SOL    HW143239   9.369   6.592   6.669  1.6737  0.4321  1.6488
10770SOL    HW243240   9.518   6.564   6.609  0.9960  2.3053 -1.0201
10771SOL     OW43241   6.347   8.761   3.071 -0.6551  0.6372  0.0617
10771SOL    HW143242   6.304   8.819   3.002 -0.3409  0.5806 -0.1834
10771SOL    HW243243   6.353   8.667   3.037 -2.6443  0.1064  1.0975
10772SOL     OW43244   9.219   7.407   3.759  0.4008  0.0065  0.3715
10772SOL    HW143245   9.293   7.458   3.717  0.0116  1.6977  1.6605
10772SOL    HW243246   9.256   7.338   3.821  0.9066  1.2776  1.5035
10773SOL     OW43247   9.970   0.363   1.796 -0.7787  0.0724 -0.3903
10773SOL    HW143248   9.957   0.308   1.713  1.0173 -1.0760  0.0660
10773SOL    HW243249   9.894   0.346   1.859 -1.8013  0.4384 -1.5161
10774SOL     OW43250   1.433   8.569   0.531 -0.0723 -0.5857 -0.7204
10774SOL    HW143251   1.403   8.501   0.463 -0.9613 -0.0428 -0.8753
10774SOL    HW243252   1.374   8.563   0.612  0.3213 -0.5115 -0.4299
10775SOL     OW43253   9.916   8.399   4.364 -0.0431 -0.2470 -0.4426
10775SOL    HW143254   9.990   8.395   4.431  0.6044 -0.4145 -1.1615
10775SOL    HW243255   9.921   8.486   4.314 -0.4016 -0.2067 -0.4110
10776SOL     OW43256   9.331   8.070   2.757 -0.1162  0.3010 -0.4523
10776SOL    HW143257   9.347   7.973   2.735  0.1094 -0.1256  1.5525
10776SOL    HW243258   9.262   8.077   2.829 -2.1006  1.7696 -2.4399
10777SOL     OW43259   9.917   4.472   5.270  0.4222  0.7828  0.6250
10777SOL    HW143260  10.010   4.503   5.285  0.2735  1.6565 -0.2090
10777SOL    HW243261   9.853   4.531   5.318  0.2728  0.4093  0.8903
10778SOL     OW43262   7.743   0.221   6.209  0.0870 -0.2099 -0.3834
10778SOL    HW143263   7.757   0.143   6.147 -0.6618 -1.3380  0.8364
10778SOL    HW243264   7.739   0.188   6.303 -0.9939  1.2157  0.0827
10779SOL     OW43265   3.832   5.470   5.781 -0.0463 -0.3384  0.6143
10779SOL    HW143266   3.854   5.374   5.795  0.1410 -0.6453 -1.5832
10779SOL    HW243267   3.754   5.496   5.837 -0.5970 -1.9888  0.6192
10780SOL     OW43268   2.621   3.882   2.833 -0.4838  0.1169 -0.3504
10780SOL    HW143269   2.576   3.939   2.764 -1.1398 -1.2860 -1.1071
10780SOL    HW243270   2.588   3.907   2.924  0.0016  1.6284 -0.5706
10781SOL     OW43271   4.243   3.020   2.471  0.3593 -0.4566 -0.5008
10781SOL    HW143272   4.275   3.061   2.385 -0.1542  0.2446 -0.3601
10781SOL    HW243273   4.316   3.027   2.539  0.2716  0.2444 -0.4729
10782SOL     OW43274   9.272   7.180   3.891  0.0174  0.2036  0.5317
10782SOL    HW143275   9.349   7.138   3.939  0.1738  0.0660  0.1587
10782SOL    HW243276   9.238   7.117   3.821 -0.4386  0.2606  0.7001
10783SOL     OW43277   9.819   2.496   4.731  0.5312 -0.1057 -0.5823
10783SOL    HW143278   9.731   2.460   4.762  1.2104 -0.8087  0.5827
10783SOL    HW243279   9.870   2.424   4.684  1.4634 -0.4171  0.8497
10784SOL     OW43280   9.056   0.382   1.194 -0.1030 -0.0987 -0.0948
10784SOL    HW143281   8.985   0.409   1.259 -0.2794  0.0837 -0.3587
10784SOL    HW243282   9.034   0.419   1.104  0.9571  1.0036  0.0854
10785SOL     OW43283   1.242   8.206   0.504 -0.3501 -0.2381 -0.1121
10785SOL    HW143284   1.304   8.178   0.577 -0.7509  1.9279  1.1281
10785SOL    HW243285   1.183   8.280   0.538 -2.0180 -0.6805 -1.9735
10786SOL     OW43286   4.205   0.065   3.985  0.3714 -0.7129 -0.3856
10786SOL    HW143287   4.175  -0.018   4.033 -0.3993  0.2262  0.7533
10786SOL    HW243288   4.231   0.135   4.052 -0.7335  0.6227 -1.3396
10787SOL     OW43289   1.295   2.237   0.484 -0.0043 -0.1369 -0.0116
10787SOL    HW143290   1.347   2.232   0.569 -0.5762 -0.2857  0.3382
10787SOL    HW243291   1.355   2.265   0.410  0.3414  0.7235  0.5812
10788SOL     OW43292   1.278   2.292   3.936  0.1962 -0.3696 -0.4825
10788SOL    HW143293   1.228   2.237   4.003  0.6214  0.4125  0.4782
10788SOL    HW243294   1.369   2.252   3.922  1.1482  1.0262  1.4910
10789SOL     OW43295   4.127   7.816   1.939  0.1340 -0.0231 -0.3159
10789SOL    HW143296   4.083   7.732   1.907  1.3577 -0.5106 -0.7388
10789SOL    HW243297   4.186   7.795   2.016  0.0591  0.5324 -0.1087
10790SOL     OW43298   9.482   9.012   2.252 -0.1717 -0.2502  0.2645
10790SOL    HW143299   9.430   9.067   2.317 -1.2294 -0.4387 -0.4022
10790SOL    HW243300   9.575   8.999   2.285 -0.8539 -0.8085  2.0153
10791SOL     OW43301   9.246   8.912   3.175  0.2354 -0.2541  0.3352
10791SOL    HW143302   9.292   8.995   3.208 -0.9647  0.8518 -0.6786
10791SOL    HW243303   9.283   8.832   3.221  0.6909  0.9590  2.1076
10792SOL     OW43304   5.120   7.718   1.677  0.5679 -0.0565  0.1995
10792SOL    HW143305   5.052   7.693   1.608 -1.0407  0.0250  1.7294
10792SOL    HW243306   5.212   7.711   1.637 -0.2895 -0.7147 -1.7204
10793SOL     OW43307   9.951   0.133   0.375  0.2514 -0.4974 -0.7968
10793SOL    HW143308   9.954   0.047   0.426 -1.5014  0.1484  0.4713
10793SOL    HW243309   9.865   0.139   0.325 -0.3263  1.1537  0.3392
10794SOL     OW43310   9.944   0.184   3.236 -0.5971  0.3000  0.1295
10794SOL    HW143311   9.906   0.168   3.145  1.3076  0.2094 -0.6833
10794SOL    HW243312   9.928   0.103   3.293 -1.7816  0.3487 -0.1352
10795SOL     OW43313   7.457   8.739   3.352  0.3053 -0.2876  0.0128
10795SOL    HW143314   7.450   8.812   3.284 -3.2978 -0.5755 -0.0183
10795SOL    HW243315   7.404   8.763   3.433  1.8132 -1.4186  1.3603
10796SOL     OW43316   9.265   3.107   1.531  0.2577  0.4374  0.3825
10796SOL    HW143317   9.175   3.064   1.523 -0.5113  1.8592  1.2263
10796SOL    HW243318   9.336   3.042   1.502 -1.0397 -0.6507 -0.3970
10797SOL     OW43319   4.127   4.067   3.402  0.8003  0.3592  0.4099
10797SOL    HW143320   4.096   4.124   3.326  0.7017  1.1172  1.0099
10797SOL    HW243321   4.081   4.096   3.486 -0.9512 -2.0884  0.3469
10798SOL     OW43322   6.949   8.648   1.645 -0.4224  0.0267  0.2847
10798SOL    HW143323   6.892   8.568   1.625 -0.5011 -0.1630  1.2470
10798SOL    HW243324   7.004   8.671   1.565 -3.0799  1.2256 -1.2444
10799SOL     OW43325   3.732   8.051   1.205 -0.2152  0.1400  0.2354
10799SOL    HW143326   3.718   8.023   1.300 -1.3205  0.8024  0.2755
10799SOL    HW243327   3.808   8.116   1.200 -0.4088  0.4088  0.7240
10800SOL     OW43328   7.861   2.586   0.872 -0.4286  0.0679 -0.2413
10800SOL    HW143329   7.806   2.652   0.821  0.0507  0.6731  0.0161
10800SOL    HW243330   7.802   2.534   0.935 -0.9874 -0.5368 -1.2422
10801SOL     OW43331   9.130   4.385   4.687 -0.0337 -0.1917 -0.1928
10801SOL    HW143332   9.033   4.371   4.669 -0.0324 -1.9674  1.0525
10801SOL    HW243333   9.184   4.350   4.610 -0.3006 -1.4715  0.1889
10802SOL     OW43334   8.017   5.941   4.557 -0.1259 -0.2623  0.5166
10802SOL    HW143335   7.919   5.935   4.575 -0.6057 -0.5530 -2.0513
10802SOL    HW243336   8.052   6.029   4.587 -1.4217  0.3156  0.3309
10803SOL     OW43337   8.452   1.037   5.733  0.6737 -0.6601  0.3896
10803SOL    HW143338   8.363   1.005   5.765  1.1371 -2.8020 -0.3872
10803SOL    HW243339   8.518   1.036   5.809 -0.2055  2.0653  1.2588
10804SOL     OW43340   9.974   1.676   4.566 -0.1490  0.0724  0.6848
10804SOL    HW143341  10.045   1.746   4.566 -1.5717  1.5823 -0.9121
10804SOL    HW243342   9.951   1.651   4.660  1.2477  0.8467  1.2434
10805SOL     OW43343   3.422   1.572   2.395 -0.3662  0.1876 -0.0037
10805SOL    HW143344   3.517   1.584   2.366 -0.2812  1.4129  0.7353
10805SOL    HW243345   3.362   1.580   2.316  0.2315 -2.2224 -0.7575
10806SOL     OW43346   0.926   4.574   2.536 -0.1036 -0.2871  0.0071
10806SOL    HW143347   0.939   4.532   2.626  1.2858  1.9500  0.9047
10806SOL    HW243348   0.831   4.607   2.528 -0.0779  0.0211  0.8906
10807SOL     OW43349   0.052   7.951   1.656 -0.6313 -0.2079  0.0718
10807SOL    HW143350  -0.031   7.913   1.616 -1.7269  2.3262 -0.1625
10807SOL    HW243351   0.043   8.050   1.665  2.2722  0.0999  0.2931
10808SOL     OW43352   9.365   6.111   0.220  0.0887 -0.1103 -0.0135
10808SOL    HW143353   9.458   6.079   0.238 -0.6635 -1.7054  1.1170
10808SOL    HW243354   9.320   6.132   0.307 -1.1441 -0.8918 -0.4508
10809SOL     OW43355   2.979   5.937   5.102 -0.0644  0.4008  0.1835
10809SOL    HW143356   2.959   6.000   5.026 -0.0114  0.5807  0.3164
10809SOL    HW243357   2.913   5.952   5.176  0.7610  1.2504  0.7734
10810SOL     OW43358   6.002   9.335   4.952 -0.1878 -0.3665 -0.3450
10810SOL    HW143359   6.077   9.368   4.895 -0.5769 -0.1877 -0.7564
10810SOL    HW243360   5.954   9.261   4.905 -0.6906 -0.0237 -0.3690
10811SOL     OW43361   1.690   4.320   2.280  0.2735 -0.2231  0.0018
10811SOL    HW143362   1.710   4.393   2.215 -1.8406 -0.8605 -1.4038
10811SOL    HW243363   1.691   4.357   2.373  2.4207  0.8814 -0.4231
10812SOL     OW43364   9.635   4.895   4.383 -0.3678  0.1459  0.3615
10812SOL    HW143365   9.625   4.952   4.465 -0.2541  0.6065  0.0576
10812SOL    HW243366   9.662   4.952   4.306 -0.9490 -0.2141 -0.1123
10813SOL     OW43367   2.985   4.750   0.470  0.3808  0.0522 -0.7206
10813SOL    HW143368   2.924   4.672   0.453  0.0405  0.2615 -0.4750
10813SOL    HW243369   3.079   4.718   0.472  0.1477 -0.6055  0.7840
10814SOL     OW43370   5.250   6.621   1.785 -0.2396 -0.0297 -0.4034
10814SOL    HW143371   5.182   6.607   1.713 -1.1359  3.3648 -0.3095
10814SOL    HW243372   5.209   6.670   1.861  2.0187  1.1368  0.1208
10815SOL     OW43373   8.177   9.285   2.981 -0.3098 -0.8303 -0.3648
10815SOL    HW143374   8.078   9.279   2.996  0.0840 -1.8161  2.2583
10815SOL    HW243375   8.195   9.333   2.896 -3.0091  1.9401  0.5123
10816SOL     OW43376   8.571   1.280   2.450  0.5049 -0.0596 -0.4947
10816SOL    HW143377   8.572   1.351   2.521 -1.5163 -0.9605  0.4905
10816SOL    HW243378   8.543   1.320   2.363 -1.6882  0.1986  0.2868
10817SOL     OW43379   4.444   0.242   2.996 -0.3557  0.0159 -0.0199
10817SOL    HW143380   4.529   0.294   3.008 -0.5585  0.1782  0.7057
10817SOL    HW243381   4.445   0.198   2.906  0.8068 -0.5576  0.2654
10818SOL     OW43382   0.123   9.080   1.214 -0.5945  0.2990 -0.5240
10818SOL    HW143383   0.085   9.098   1.305  0.4216 -0.7470  0.1273
10818SOL    HW243384   0.130   9.166   1.164 -2.5225  0.7016 -0.1712
10819SOL     OW43385   8.228   6.177   0.932  0.3350  0.2686 -0.2214
10819SOL    HW143386   8.166   6.251   0.905  0.1421  1.0150  2.1914
10819SOL    HW243387   8.322   6.202   0.909  0.0695  0.4134 -1.1687
10820SOL     OW43388   9.811   6.950   0.482 -0.2960  0.6206 -0.3567
10820SOL    HW143389   9.909   6.929   0.479 -0.0520  1.8365 -1.0719
10820SOL    HW243390   9.759   6.869   0.457  0.5107 -0.1466  0.4090
10821SOL     OW43391   2.403   6.242   6.174 -0.2733 -0.6179  0.6955
10821SOL    HW143392   2.490   6.291   6.162 -0.0930 -0.6986  1.6524
10821SOL    HW243393   2.422   6.147   6.198 -0.6263 -1.0065 -0.5345
10822SOL     OW43394   8.976   8.936   3.587  0.1330  0.3922 -0.2198
10822SOL    HW143395   8.879   8.913   3.599  0.1979  1.0422  1.7725
10822SOL    HW243396   9.020   8.864   3.533 -0.6996 -1.7695  1.8526
10823SOL     OW43397   1.164   3.694   3.900  0.3377 -0.2438  0.4355
10823SOL    HW143398   1.159   3.785   3.860  2.2192 -0.7528 -1.0321
10823SOL    HW243399   1.087   3.680   3.963 -0.8671  1.7432 -0.5717
10824SOL     OW43400   1.602   3.429   5.221 -0.2091 -0.6773 -0.0062
10824SOL    HW143401   1.599   3.344   5.274 -0.8448 -0.5392  0.1812
10824SOL    HW243402   1.693   3.440   5.182 -0.8112 -2.7487 -2.1223
10825SOL     OW43403   5.040   1.195   1.326  0.2117 -0.0949 -0.1062
10825SOL    HW143404   4.943   1.180   1.344  0.8000 -1.8775  1.7103
10825SOL    HW243405   5.082   1.238   1.406  1.2843 -0.9662 -0.1964
10826SOL     OW43406   3.237   5.171   0.289  0.2058  0.5937  0.0698
10826SOL    HW143407   3.332   5.194   0.268  0.1874 -0.8307 -1.7696
10826SOL    HW243408   3.178   5.200   0.214 -0.2339 -2.2795 -0.7659
10827SOL     OW43409   9.553   1.835   1.252 -0.2067  0.1497 -0.3810
10827SOL    HW143410   9.642   1.841   1.297 -0.7446 -1.7935  1.0017
10827SOL    HW243411   9.504   1.754   1.285 -3.0731  1.9409 -0.0403
10828SOL     OW43412   5.535   0.424   2.771  0.1749 -0.2891  0.1548
10828SOL    HW143413   5.494   0.360   2.837 -0.1708  0.1132  0.3354
10828SOL    HW243414   5.466   0.451   2.704  0.4150 -0.3773 -0.1243
10829SOL     OW43415   6.268   8.151   3.317 -0.4264 -0.4321 -0.0940
10829SOL    HW143416   6.277   8.247   3.342 -0.8321 -0.0323 -1.4373
10829SOL    HW243417   6.174   8.121   3.333  0.7786 -2.0290  5.0785
10830SOL     OW43418   8.106   5.221   4.704 -0.0192 -0.5360 -0.0572
10830SOL    HW143419   8.142   5.284   4.634  0.0835 -1.0503 -0.4729
10830SOL    HW243420   8.062   5.144   4.659 -0.8246 -0.3759  0.4544
10831SOL     OW43421   8.055   5.775   4.334  0.0888 -0.4271  0.4121
10831SOL    HW143422   8.035   5.841   4.407  0.8818 -0.8244  1.0004
10831SOL    HW243423   8.086   5.689   4.375  2.2732 -0.0707 -0.4310
10832SOL     OW43424   0.192   0.812   0.628  0.3113 -0.5544  0.1011
10832SOL    HW143425   0.210   0.727   0.579  0.5539 -0.6679  0.3806
10832SOL    HW243426   0.093   0.825   0.637  0.2730 -0.7692 -0.0057
10833SOL     OW43427   1.353   0.887   2.515  0.3860  0.1398  0.0662
10833SOL    HW143428   1.386   0.810   2.569  0.6941 -0.5879 -1.1412
10833SOL    HW243429   1.400   0.888   2.427  0.5544  1.8553  0.1699
10834SOL     OW43430   4.880   4.881   3.197 -0.4241 -0.1560 -0.3687
10834SOL    HW143431   4.965   4.932   3.209  0.5266 -1.8656  0.3606
10834SOL    HW243432   4.830   4.917   3.117  1.6273  0.0149 -1.6095
10835SOL     OW43433   5.271   7.773   4.581 -0.1534 -0.2741 -0.1849
10835SOL    HW143434   5.175   7.758   4.606  0.3433  0.0759  2.0208
10835SOL    HW243435   5.303   7.858   4.622  0.6894  0.4318 -2.2058
10836SOL     OW43436   2.605   1.447   2.202 -0.5560  0.2558  0.0900
10836SOL    HW143437   2.594   1.452   2.302 -2.5130  0.6544 -0.1287
10836SOL    HW243438   2.617   1.351   2.175 -0.1200  0.1372  0.6806
10837SOL     OW43439   9.403   3.061   2.498 -0.5760 -0.5907  0.7443
10837SOL    HW143440   9.425   3.039   2.593  1.1052 -0.6417  0.3505
10837SOL    HW243441   9.365   3.153   2.492  0.6391 -0.0456  1.2945
10838SOL     OW43442   2.672   4.438   4.744 -0.8554 -0.0926 -0.0936
10838SOL    HW143443   2.745   4.443   4.675  0.1874  0.6135  1.0389
10838SOL    HW243444   2.645   4.342   4.757  0.7722 -0.5066  0.3727
10839SOL     OW43445   8.645   7.472   3.102 -0.1580 -0.3436 -0.2060
10839SOL    HW143446   8.687   7.452   3.013  2.4270 -1.1231  1.1214
10839SOL    HW243447   8.559   7.422   3.111 -0.4159 -0.3057 -2.2246
10840SOL     OW43448   4.644   9.764   3.951 -0.4098  0.0263 -0.7111
10840SOL    HW143449   4.590   9.694   3.904  1.5341 -1.2382 -1.1371
10840SOL    HW243450   4.651   9.845   3.894 -0.4650 -0.4233 -1.3624
10841SOL     OW43451   7.711   1.330   3.774  0.6794  0.1782 -0.0463
10841SOL    HW143452   7.762   1.329   3.861  0.0597 -0.2935  0.3157
10841SOL    HW243453   7.617   1.302   3.791  0.0480  1.9256 -0.5602
10842SOL     OW43454   1.680   2.843   4.705  0.1126  0.0933  0.4706
10842SOL    HW143455   1.705   2.937   4.730 -0.3657  0.1380  0.7942
10842SOL    HW243456   1.757   2.800   4.658  0.3980  0.5914  0.4692
10843SOL     OW43457   5.624   9.820   0.723  0.1299 -0.6116 -0.0170
10843SOL    HW143458   5.683   9.848   0.799 -0.1233  0.3184 -0.1710
10843SOL    HW243459   5.648   9.726   0.697  2.5555  0.2582 -1.0411
10844SOL     OW43460   0.033   6.663   4.712 -0.5700  0.1339 -0.1240
10844SOL    HW143461   0.053   6.565   4.722  0.1268  0.2160 -0.6830
10844SOL    HW243462   0.076   6.697   4.628 -1.2071  0.8137 -0.1734
10845SOL     OW43463   0.556   0.927   1.730  0.9832  0.2759 -0.5455
10845SOL    HW143464   0.490   0.963   1.664  0.3710 -0.3898 -0.3011
10845SOL    HW243465   0.601   0.846   1.691  1.5645  0.6456 -0.6574
10846SOL     OW43466   3.236   7.744   2.948 -0.6972  0.3206 -0.6712
10846SOL    HW143467   3.149   7.709   2.982  0.0640 -2.1277 -1.1367
10846SOL    HW243468   3.273   7.812   3.012 -2.5150  0.7397 -0.0454
10847SOL     OW43469   0.109   4.529   3.999  0.2469  0.0245  0.3166
10847SOL    HW143470   0.178   4.510   3.929 -1.1208  0.0016 -1.0495
10847SOL    HW243471   0.019   4.540   3.956 -0.3411  1.7149  1.9011
10848SOL     OW43472   2.964   6.483   4.631 -0.4056  0.5397 -0.1298
10848SOL    HW143473   2.916   6.396   4.619  1.4262 -1.1646  4.2551
10848SOL    HW243474   3.032   6.493   4.558  0.8632 -2.7461  0.5258
10849SOL     OW43475   3.911   1.821   4.194 -0.5949 -0.3211 -0.2628
10849SOL    HW143476   3.969   1.880   4.138 -0.3646 -1.8306 -1.6687
10849SOL    HW243477   3.856   1.763   4.134 -2.1518 -0.2549  1.0732
10850SOL     OW43478   8.244   3.145   2.020 -0.2173 -0.1444 -0.1258
10850SOL    HW143479   8.153   3.126   2.056 -0.2810 -0.2587 -0.3396
10850SOL    HW243480   8.260   3.089   1.938  0.3509 -0.7182  0.3715
10851SOL     OW43481   4.768   7.317   1.546 -0.0326  0.3496 -0.3718
10851SOL    HW143482   4.750   7.322   1.447  0.9685 -0.1042 -0.5815
10851SOL    HW243483   4.750   7.224   1.578  2.9711 -0.4423 -0.8113
10852SOL     OW43484   3.602   8.398   0.932  0.1495  0.1443 -0.1206
10852SOL    HW143485   3.544   8.478   0.947  1.8056  1.2034  0.7368
10852SOL    HW243486   3.591   8.334   1.008 -1.5306 -0.6848 -1.0362
10853SOL     OW43487   3.258   8.578   4.545  0.5589 -0.0377 -0.0126
10853SOL    HW143488   3.247   8.479   4.552  0.2946  0.0451  0.6981
10853SOL    HW243489   3.252   8.605   4.448  1.0816 -0.7629 -0.2490
10854SOL     OW43490   3.216   8.130   0.653 -0.6307 -0.0682  0.4112
10854SOL    HW143491   3.188   8.199   0.719 -1.4055  0.2749 -0.2666
10854SOL    HW243492   3.135   8.091   0.609 -0.0631  1.9534 -2.6398
10855SOL     OW43493   8.637   3.183   0.374 -0.2844  0.7074  0.0446
10855SOL    HW143494   8.710   3.234   0.418 -0.5645  1.5817 -0.5116
10855SOL    HW243495   8.676   3.117   0.309  0.0983 -0.1822  1.1554
10856SOL     OW43496   2.921   3.688   1.922  0.4656 -0.1879  1.4602
10856SOL    HW143497   2.895   3.658   2.013 -3.3439  0.0927  0.5727
10856SOL    HW243498   2.867   3.637   1.854  1.5624  1.2329 -0.5183
10857SOL     OW43499   8.894   2.147   4.485 -0.3095  0.0176  0.3374
10857SOL    HW143500   8.899   2.082   4.562  1.9198  0.1543  0.3415
10857SOL    HW243501   8.847   2.104   4.408  0.1042 -1.2049  0.7511
10858SOL     OW43502   8.456   8.097   3.814 -0.5696  0.6843  0.2590
10858SOL    HW143503   8.431   8.150   3.732  0.8177 -0.0679 -0.6650
10858SOL    HW243504   8.427   8.002   3.802  0.2509  0.4183  0.3447
10859SOL     OW43505   9.056   7.930   0.303  0.2800  0.0403 -0.3049
10859SOL    HW143506   9.148   7.932   0.263 -0.4248 -0.3210 -1.9490
10859SOL    HW243507   9.020   8.023   0.309  1.9616  0.5631  3.2517
10860SOL     OW43508   6.899   0.610   1.043  0.0382 -0.3440  0.3986
10860SOL    HW143509   6.874   0.526   0.995  1.5847 -1.5446  1.6686
10860SOL    HW243510   6.905   0.685   0.977 -1.2906 -1.2100 -0.7537
10861SOL     OW43511   1.622   7.654   0.213 -0.5289  0.2056 -0.3462
10861SOL    HW143512   1.679   7.729   0.179 -1.6059  0.6463 -1.2045
10861SOL    HW243513   1.539   7.647   0.158 -0.0745 -2.1303 -0.7854
10862SOL     OW43514   5.113   3.661   1.426  0.5660  0.1361 -0.0957
10862SOL    HW143515   5.014   3.649   1.420  0.4750  0.4732  0.6558
10862SOL    HW243516   5.155   3.632   1.340 -0.1057 -0.7715 -0.1299
10863SOL     OW43517   4.746   7.662   1.861  0.2716  0.5207  0.1138
10863SOL    HW143518   4.655   7.700   1.846  0.3158  0.8475  0.6838
10863SOL    HW243519   4.813   7.736   1.865  0.5528  0.2877 -0.2042
10864SOL     OW43520   0.542   2.884   2.410 -0.9572 -0.2309  0.6656
10864SOL    HW143521   0.524   2.791   2.379 -0.9236 -0.8285  2.4076
10864SOL    HW243522   0.484   2.906   2.488 -0.5587  1.0004  0.6331
10865SOL     OW43523   4.628   0.595   0.883 -0.6078  0.3238 -0.4036
10865SOL    HW143524   4.597   0.585   0.977  0.3458 -0.8275 -0.1992
10865SOL    HW243525   4.562   0.551   0.821 -1.2530  1.1154 -0.2940
10866SOL     OW43526   1.543   2.182   1.741  0.5739 -0.4741  0.2310
10866SOL    HW143527   1.476   2.154   1.810  0.3707  0.8086  0.5688
10866SOL    HW243528   1.532   2.125   1.659 -0.6657 -0.5436  0.4298
10867SOL     OW43529   3.421   0.339   1.946 -0.3898  0.3040  0.1665
10867SOL    HW143530   3.477   0.302   2.019 -2.6014  0.0280  1.7823
10867SOL    HW243531   3.426   0.278   1.866  0.5770 -0.3849  0.7428
10868SOL     OW43532   2.754   4.203   1.850 -0.7256  0.4252 -0.4580
10868SOL    HW143533   2.739   4.197   1.751  0.7931 -0.3515 -0.6406
10868SOL    HW243534   2.755   4.112   1.890 -0.0060  0.6598  0.0790
10869SOL     OW43535   4.862   0.802   3.210  0.0961 -0.1224  0.1269
10869SOL    HW143536   4.768   0.769   3.205  0.1228 -0.5699  2.1059
10869SOL    HW243537   4.863   0.902   3.199 -0.5294 -0.1812 -0.5153
10870SOL     OW43538   1.810   3.055   4.489  0.3480 -0.3780  0.3571
10870SOL    HW143539   1.798   3.088   4.583  2.1106  0.0927  0.4351
10870SOL    HW243540   1.905   3.067   4.462  0.3994 -2.8059 -0.6246
10871SOL     OW43541   7.188   1.676   1.774 -0.2033  0.2318  0.3456
10871SOL    HW143542   7.113   1.660   1.710 -0.9407 -1.4080  1.5922
10871SOL    HW243543   7.158   1.654   1.867  1.8355 -0.4815  0.8572
10872SOL     OW43544   9.254   6.148   1.873  0.4240  1.0068  0.8675
10872SOL    HW143545   9.321   6.146   1.799  1.3228  0.8032  1.6868
10872SOL    HW243546   9.246   6.058   1.915 -1.8163  0.5129 -0.4969
10873SOL     OW43547   2.914   3.793   3.689 -0.3462  0.3992 -0.0633
10873SOL    HW143548   2.977   3.827   3.759  1.7131 -0.7017 -1.3164
10873SOL    HW243549   2.852   3.726   3.729 -1.1520  1.9447  1.3276
10874SOL     OW43550   1.993   4.580   5.182 -0.6572  0.4602  0.0642
10874SOL    HW143551   2.030   4.496   5.141 -0.5257 -0.2397  1.5854
10874SOL    HW243552   1.898   4.591   5.154  0.0399  1.1388 -2.1513
10875SOL     OW43553   0.375   7.837   5.035 -0.0146  0.2200  0.2665
10875SOL    HW143554   0.419   7.877   4.955 -0.2021  0.8327  0.4714
10875SOL    HW243555   0.396   7.739   5.039 -1.4724 -0.1844 -1.5127
10876SOL     OW43556   8.103   6.812   5.066 -0.3155 -0.8524  0.1851
10876SOL    HW143557   8.189   6.776   5.104 -0.6384  1.3744  3.1674
10876SOL    HW243558   8.026   6.761   5.106 -0.5205 -0.6941 -0.0124
10877SOL     OW43559   9.383   4.157   0.626  0.2308  0.9078 -0.3469
10877SOL    HW143560   9.307   4.196   0.576 -0.9004  0.3588  0.9172
10877SOL    HW243561   9.439   4.100   0.565 -1.0170  0.3971 -1.0155
10878SOL     OW43562   1.616   1.967   2.878  0.0210 -0.2658 -0.1994
10878SOL    HW143563   1.551   1.939   2.948  0.1576 -0.0256  0.0251
10878SOL    HW243564   1.706   1.981   2.920 -0.2154  1.2519 -0.1627
10879SOL     OW43565   8.893   8.394   4.570  0.1724 -0.6841  0.2600
10879SOL    HW143566   8.962   8.333   4.532  0.0956 -0.7383  0.2060
10879SOL    HW243567   8.937   8.470   4.617  0.2689 -0.8017  0.3608
10880SOL     OW43568   8.329   7.198   3.389  1.0832 -0.5628  0.4735
10880SOL    HW143569   8.372   7.260   3.455 -0.6322 -0.1185  1.1898
10880SOL    HW243570   8.285   7.250   3.317  1.6532 -1.0191 -0.2149
10881SOL     OW43571   3.467   1.989   1.179  0.0832  0.0168 -0.5434
10881SOL    HW143572   3.371   1.960   1.179  0.1569 -0.2357 -1.0926
10881SOL    HW243573   3.475   2.079   1.138 -0.1050  0.6871  0.8681
10882SOL     OW43574   3.317   0.860   0.769  0.0365  0.0715 -0.7360
10882SOL    HW143575   3.389   0.927   0.787  0.1402 -0.2980  0.2744
10882SOL    HW243576   3.347   0.770   0.803 -0.0999 -0.4850 -2.0751
10883SOL     OW43577   2.412   0.345   2.878  0.5400 -0.3184 -0.5196
10883SOL    HW143578   2.490   0.283   2.869  2.2707  1.3375  2.2951
10883SOL    HW243579   2.346   0.307   2.943  0.9497  0.1480  0.1724
10884SOL     OW43580   4.693   3.689   2.460  0.3911 -0.5900 -0.4468
10884SOL    HW143581   4.732   3.620   2.399 -0.7259 -1.4981 -0.1308
10884SOL    HW243582   4.753   3.702   2.539 -0.1866 -2.3429  0.2860
10885SOL     OW43583   0.569   7.097   5.234  0.3428 -0.2824  0.0218
10885SOL    HW143584   0.550   7.174   5.296  1.1752 -0.5041  0.5499
10885SOL    HW243585   0.646   7.044   5.268 -0.1486 -1.2976 -0.4039
10886SOL     OW43586   9.027   1.488   4.147 -0.6473  0.0867 -0.0761
10886SOL    HW143587   9.038   1.466   4.244  1.0424  0.8132 -0.0928
10886SOL    HW243588   9.022   1.587   4.136  1.8985  0.1566 -0.9739
10887SOL     OW43589   1.524   8.193   3.593  0.0282  0.0621  0.2577
10887SOL    HW143590   1.590   8.254   3.551  0.6454  0.8503  2.2848
10887SOL    HW243591   1.434   8.237   3.595 -0.1172 -0.1928 -0.6988
10888SOL     OW43592   7.242   3.506   0.422 -0.1308  0.1653 -0.5006
10888SOL    HW143593   7.180   3.472   0.493 -0.2707 -1.3776 -1.3231
10888SOL    HW243594   7.330   3.531   0.464  0.1216 -1.6305  0.1039
10889SOL     OW43595   5.248   9.590   1.436  0.0572 -0.4292 -0.6199
10889SOL    HW143596   5.268   9.532   1.357  2.5269 -0.5857  0.0833
10889SOL    HW243597   5.151   9.584   1.458 -0.1628 -2.4258 -2.0123
10890SOL     OW43598   1.361   6.115   2.630 -0.9644 -0.0763 -0.3679
10890SOL    HW143599   1.402   6.027   2.653  1.3558  1.1445  0.4523
10890SOL    HW243600   1.281   6.131   2.688 -0.8855 -1.2545  0.0829
10891SOL     OW43601   0.365   7.659   1.667 -0.5339 -0.3758  0.5335
10891SOL    HW143602   0.289   7.689   1.725 -0.2376  0.2908  0.5926
10891SOL    HW243603   0.429   7.735   1.656  0.1123 -0.9318  0.4718
10892SOL     OW43604   3.490   3.392   2.949 -0.1385 -0.3561 -0.0766
10892SOL    HW143605   3.514   3.437   3.035 -2.6731  2.3614 -0.7102
10892SOL    HW243606   3.523   3.448   2.872 -1.5199 -0.6129 -0.8674
10893SOL     OW43607   2.318   5.742   4.136 -0.3679 -0.3764 -0.7606
10893SOL    HW143608   2.339   5.785   4.048 -0.4716 -0.8207 -1.0078
10893SOL    HW243609   2.223   5.708   4.135 -1.1466  1.7170  0.3908
10894SOL     OW43610   8.955   0.282   3.507  0.1790  0.0738  0.6230
10894SOL    HW143611   9.043   0.291   3.461  1.1658  0.0370  2.4659
10894SOL    HW243612   8.909   0.199   3.475  0.4375  0.5230 -0.9496
10895SOL     OW43613   2.986   2.847   4.715 -0.2609 -0.4970  0.7004
10895SOL    HW143614   3.072   2.821   4.670 -0.2750  1.1007 -0.2778
10895SOL    HW243615   3.003   2.864   4.812  0.8667  1.3777  0.2044
10896SOL     OW43616   9.963   4.148   5.489 -0.3683 -0.1961  0.2893
10896SOL    HW143617   9.963   4.051   5.514 -1.1555  0.2167  1.9616
10896SOL    HW243618  10.051   4.189   5.514 -0.0327 -0.4676 -0.4244
10897SOL     OW43619   6.230   4.295   6.690 -0.0474  0.3954 -0.7164
10897SOL    HW143620   6.238   4.383   6.736  1.7101  0.0723 -0.3677
10897SOL    HW243621   6.158   4.241   6.734 -0.4058  1.2459 -0.2499
10898SOL     OW43622   3.835   3.916   0.010  0.0002  0.6769  0.0145
10898SOL    HW143623   3.756   3.910  -0.052 -0.1095  1.3757  0.0832
10898SOL    HW243624   3.846   3.829   0.057 -0.8947  0.6526  0.2019
10899SOL     OW43625   6.854   1.225   1.799  0.0899  0.0979  0.0563
10899SOL    HW143626   6.790   1.246   1.872 -1.7544  0.8831 -1.7314
10899SOL    HW243627   6.923   1.298   1.793  0.7962 -0.4158  1.5390
10900SOL     OW43628   1.963   1.397   3.521 -0.0672 -0.2922 -0.5705
10900SOL    HW143629   1.975   1.314   3.575 -1.1874  0.9310  1.6326
10900SOL    HW243630   1.870   1.400   3.483 -0.3634  0.4427  0.2096
10901SOL     OW43631   6.167   0.080   3.194 -0.6906  0.2345 -0.3933
10901SOL    HW143632   6.224   0.044   3.267  0.4925  0.1376 -1.3554
10901SOL    HW243633   6.222   0.095   3.112 -1.8086  1.2275 -0.9881
10902SOL     OW43634   8.563   3.756   2.982 -0.2144  0.1103  0.0216
10902SOL    HW143635   8.642   3.696   2.972 -0.5712 -0.4719  0.6474
10902SOL    HW243636   8.575   3.814   3.062  0.6601  1.7043 -1.2578
10903SOL     OW43637   1.992   4.685   5.442  0.1443 -0.1470  0.4202
10903SOL    HW143638   1.977   4.664   5.345  0.9240 -0.8197  0.4487
10903SOL    HW243639   2.071   4.746   5.451  1.7353 -2.2157  0.8361
10904SOL     OW43640   7.090   6.793   4.804 -0.2636 -0.0018  0.2794
10904SOL    HW143641   7.139   6.721   4.755 -0.2946 -0.3201  0.7197
10904SOL    HW243642   7.019   6.753   4.861 -1.1390  0.4670 -0.4603
10905SOL     OW43643   8.920   6.032   4.349 -0.5283  0.0097 -0.5698
10905SOL    HW143644   9.006   6.069   4.384 -0.2895  0.5153 -1.6761
10905SOL    HW243645   8.887   5.962   4.411 -1.0145  2.0949  1.5822
10906SOL     OW43646   8.107   0.789   5.747 -0.5549  0.2164  0.6937
10906SOL    HW143647   8.122   0.874   5.797  1.4172  0.1328  0.2766
10906SOL    HW243648   8.182   0.774   5.683 -1.8687 -0.8629 -0.6315
10907SOL     OW43649   3.435   7.371   3.137  0.4487  0.7202  0.2486
10907SOL    HW143650   3.399   7.387   3.045  0.3379 -0.3433  0.1054
10907SOL    HW243651   3.533   7.350   3.131  0.1436 -0.7349  0.2406
10908SOL     OW43652   0.039   6.422   1.427  0.5047  0.7312 -0.0906
10908SOL    HW143653   0.062   6.329   1.399  0.0992 -0.1738  2.4169
10908SOL    HW243654  -0.007   6.469   1.352 -0.3755 -1.4989 -1.0042
10909SOL     OW43655   4.436   6.698   2.822  0.1927 -0.4545 -0.2813
10909SOL    HW143656   4.374   6.619   2.828  1.4439 -1.3805  0.6661
10909SOL    HW243657   4.447   6.739   2.912  0.1168  0.3702 -0.6422
10910SOL     OW43658   3.468   1.794   2.618  0.4485  0.4572  0.1657
10910SOL    HW143659   3.452   1.722   2.550 -0.5563  1.2444 -0.4439
10910SOL    HW243660   3.517   1.756   2.696  1.5069 -0.4947 -0.9423
10911SOL     OW43661   2.191   5.866   3.642  0.0013  0.0181 -0.1397
10911SOL    HW143662   2.250   5.930   3.593 -0.7604  2.2394  1.7497
10911SOL    HW243663   2.246   5.813   3.706  0.1308  1.2645  0.7909
10912SOL     OW43664   7.972   7.234   3.621 -0.2375  0.0690 -0.0816
10912SOL    HW143665   7.972   7.157   3.557  0.0797 -1.6986  1.9672
10912SOL    HW243666   7.975   7.320   3.570 -1.2392 -1.2409 -2.4514
10913SOL     OW43667   4.002   2.528   0.979 -0.1360  0.7905 -0.0451
10913SOL    HW143668   3.997   2.574   0.891  0.1842  0.9031 -0.0040
10913SOL    HW243669   4.015   2.595   1.052 -1.0825  0.7594  0.1614
10914SOL     OW43670   7.667   9.516   2.428 -0.0220  0.1307  0.4458
10914SOL    HW143671   7.598   9.447   2.403 -1.3118  1.9814 -1.1943
10914SOL    HW243672   7.634   9.568   2.507  0.5424 -0.5170  1.1116
10915SOL     OW43673   1.947   4.453   3.400  0.1134 -0.2767  0.0707
10915SOL    HW143674   1.907   4.545   3.398  2.1275  0.6015 -1.0952
10915SOL    HW243675   1.875   4.386   3.381 -1.2577  1.0857  0.2612
10916SOL     OW43676   9.102   2.339   4.586  0.2947  0.5136  0.5236
10916SOL    HW143677   9.048   2.261   4.556  0.3845  0.7122 -0.1563
10916SOL    HW243678   9.071   2.421   4.539  1.1743  0.6314  0.1511
10917SOL     OW43679   8.120   2.573   4.700 -0.2030 -0.1042  0.1641
10917SOL    HW143680   8.179   2.537   4.628  0.2770 -0.7816  0.8930
10917SOL    HW243681   8.156   2.661   4.732 -0.7056  0.4555 -0.7722
10918SOL     OW43682   9.727   1.154   4.175 -0.5500  0.2565 -0.1888
10918SOL    HW143683   9.658   1.084   4.157 -0.3336  0.3852 -1.5865
10918SOL    HW243684   9.720   1.185   4.269 -2.4294  0.3008 -0.3355
10919SOL     OW43685   2.767   7.692   3.630  0.8114 -0.4641  0.1131
10919SOL    HW143686   2.835   7.672   3.560  0.2916 -1.5210 -0.1123
10919SOL    HW243687   2.806   7.675   3.721  0.7838 -1.3121 -0.0255
10920SOL     OW43688   5.574   4.188   6.645  0.6165  0.0645  0.0768
10920SOL    HW143689   5.588   4.130   6.565 -0.6701 -1.3838  0.8677
10920SOL    HW243690   5.662   4.211   6.686  1.1331 -1.7994  0.0648
10921SOL     OW43691   5.224   3.304   2.110 -0.5885  0.0486 -0.5102
10921SOL    HW143692   5.160   3.255   2.170 -0.0470 -0.1440 -0.0920
10921SOL    HW243693   5.276   3.369   2.164 -0.2572  0.0306 -0.8123
10922SOL     OW43694   8.360   2.492   1.000  0.7238 -0.9463 -0.2925
10922SOL    HW143695   8.378   2.398   1.030 -1.5873 -1.1193  0.6411
10922SOL    HW243696   8.297   2.491   0.923  0.9264 -0.1726 -0.4682
10923SOL     OW43697   9.519   5.755   1.377 -0.2757 -0.1106 -0.2304
10923SOL    HW143698   9.454   5.732   1.449  0.6946  1.5962  1.2299
10923SOL    HW243699   9.606   5.710   1.395 -0.1115  0.1110 -0.4543
10924SOL     OW43700   4.201   2.200   3.946  0.0763  0.5803  0.3146
10924SOL    HW143701   4.257   2.121   3.917 -0.5625 -0.9577  3.1486
10924SOL    HW243702   4.119   2.167   3.992  0.0843  2.9478  2.0544
10925SOL     OW43703   8.831   7.665   2.815  0.5770  0.2187  0.2418
10925SOL    HW143704   8.930   7.680   2.817  0.7255 -0.6740  0.1646
10925SOL    HW243705   8.797   7.683   2.723  0.5424  1.2650  0.4598
10926SOL     OW43706   9.067   5.840   1.684  0.2295  0.5487  1.0066
10926SOL    HW143707   9.108   5.869   1.771 -1.2861  0.6118  1.7013
10926SOL    HW243708   9.028   5.919   1.637 -2.3071 -0.0411  2.0543
10927SOL     OW43709   8.707   6.549   3.606 -0.2022  0.0495 -0.3198
10927SOL    HW143710   8.802   6.545   3.640  0.5707 -1.0109 -2.5168
10927SOL    HW243711   8.707   6.544   3.506 -2.7015 -2.6422 -0.2712
10928SOL     OW43712   0.435   0.990   3.020 -0.6811 -0.1036  0.2051
10928SOL    HW143713   0.351   0.992   2.966  0.1665 -1.3008 -1.2125
10928SOL    HW243714   0.476   0.899   3.014  2.4376  1.3431 -1.8268
10929SOL     OW43715   1.229   6.837   2.824 -0.2995  0.3966 -0.3038
10929SOL    HW143716   1.231   6.743   2.789  1.1305 -0.5944  2.3267
10929SOL    HW243717   1.299   6.891   2.776 -0.2540 -0.2132 -0.9325
10930SOL     OW43718   3.483   0.574   2.096 -0.5877 -0.1265 -0.0114
10930SOL    HW143719   3.575   0.544   2.121  0.4157  2.2081 -0.7215
10930SOL    HW243720   3.434   0.499   2.051  0.7691 -1.5522  0.8418
10931SOL     OW43721   0.414   4.365   2.914  0.0342  0.4176 -0.1267
10931SOL    HW143722   0.327   4.317   2.923  0.9572 -0.9869  1.5916
10931SOL    HW243723   0.398   4.464   2.918 -1.4519  0.1664  0.3480
10932SOL     OW43724   0.132   9.371   3.194  0.1337  0.0709 -0.1577
10932SOL    HW143725   0.186   9.374   3.111  1.7665 -0.1841  0.8722
10932SOL    HW243726   0.037   9.349   3.172  0.9956 -2.1984 -1.7612
10933SOL     OW43727   0.111   5.902   1.349  0.5029 -0.4535 -0.3070
10933SOL    HW143728   0.060   5.828   1.393  0.2492 -0.7719 -1.1171
10933SOL    HW243729   0.150   5.869   1.263  1.9004 -0.1502  0.1887
10934SOL     OW43730   5.403   9.505   2.327 -0.9044  0.3463  0.1764
10934SOL    HW143731   5.457   9.548   2.255  1.6102 -0.7099  1.4103
10934SOL    HW243732   5.421   9.551   2.414 -1.3398 -0.5776  0.7530
10935SOL     OW43733   6.047   9.874   1.132  0.3586 -0.0734 -0.3056
10935SOL    HW143734   6.003   9.954   1.172  1.6407  1.3152 -1.5713
10935SOL    HW243735   6.124   9.904   1.075  0.8532 -2.2153 -0.8075
10936SOL     OW43736   7.788   1.383   6.625  0.1369  0.7029  0.3525
10936SOL    HW143737   7.714   1.440   6.589 -0.7120 -0.4617  0.2298
10936SOL    HW243738   7.794   1.395   6.724 -0.6386  0.3246  0.4495
10937SOL     OW43739   3.955   2.170   4.490 -0.2486 -0.1234 -0.3541
10937SOL    HW143740   3.988   2.253   4.445 -1.2691 -0.5640 -1.9406
10937SOL    HW243741   4.027   2.134   4.550 -0.2050  2.5615  1.3083
10938SOL     OW43742   9.669   4.454   2.826  0.5291  0.4468 -0.5657
10938SOL    HW143743   9.647   4.500   2.740  0.3288  0.4265 -0.5260
10938SOL    HW243744   9.768   4.441   2.833  0.2811 -3.0846 -2.6124
10939SOL     OW43745   2.618   4.011   3.412 -0.0889  0.2915  0.8470
10939SOL    HW143746   2.700   4.058   3.379 -1.2515  0.3097 -2.0613
10939SOL    HW243747   2.645   3.946   3.484  1.8957  3.2290  2.9118
10940SOL     OW43748   1.263   7.194   2.252 -0.3098 -0.5227 -0.6544
10940SOL    HW143749   1.224   7.135   2.323 -0.2484  0.7858  0.4852
10940SOL    HW243750   1.352   7.159   2.225  0.9730  0.5366  1.9967
10941SOL     OW43751   7.183   9.351   3.396 -0.0292  0.0416  0.3601
10941SOL    HW143752   7.155   9.443   3.425 -0.9890  1.2495 -4.0178
10941SOL    HW243753   7.282   9.343   3.402  0.2186  1.9508 -0.6472
10942SOL     OW43754   6.748   0.329   3.620  0.0403  0.5701 -0.3860
10942SOL    HW143755   6.779   0.403   3.560 -1.8667  0.7669 -1.1462
10942SOL    HW243756   6.652   0.310   3.603  0.4512 -1.9867 -0.1038
10943SOL     OW43757   2.300   7.653   0.143  0.1081 -0.2644 -0.2949
10943SOL    HW143758   2.335   7.700   0.225  1.0745  1.8575 -1.8799
10943SOL    HW243759   2.376   7.614   0.092 -0.5068 -1.6938 -0.1552
10944SOL     OW43760   0.715   0.664   4.161  0.2793 -0.4082  0.3252
10944SOL    HW143761   0.774   0.711   4.095 -0.4577  0.2934  0.1524
10944SOL    HW243762   0.666   0.590   4.115  0.3926 -0.4514  0.2741
10945SOL     OW43763   1.949   3.000   5.569  0.6526 -0.0577 -0.0177
10945SOL    HW143764   1.873   3.064   5.558  2.0468  1.7655  0.8034
10945SOL    HW243765   2.025   3.045   5.616  1.5053 -2.4349  1.0010
10946SOL     OW43766   8.341   9.591   3.823  0.3428 -0.3787 -0.1455
10946SOL    HW143767   8.298   9.503   3.845  0.1899 -0.3748 -0.4252
10946SOL    HW243768   8.280   9.643   3.764 -0.4997  0.7770  1.7009
10947SOL     OW43769   4.425   2.846   3.021  0.2211 -0.2668  0.0541
10947SOL    HW143770   4.523   2.841   3.007  0.2283 -0.5975  0.2035
10947SOL    HW243771   4.386   2.917   2.963  0.7222  0.7679  0.9693
10948SOL     OW43772   7.349   8.595   1.559 -0.3366 -0.7433 -0.3680
10948SOL    HW143773   7.308   8.510   1.593 -1.7979  0.2404  0.3473
10948SOL    HW243774   7.379   8.651   1.636 -0.5402 -0.0432 -0.7871
10949SOL     OW43775   7.211   1.822   3.318  0.5878 -0.2628  0.0656
10949SOL    HW143776   7.125   1.871   3.304  1.1502  1.4647  2.4107
10949SOL    HW243777   7.196   1.744   3.379  0.6492 -0.1549  0.2164
10950SOL     OW43778   2.772   5.117   6.499  0.3541 -0.5980  0.5440
10950SOL    HW143779   2.738   5.211   6.496  1.7550 -0.0505  1.5122
10950SOL    HW243780   2.791   5.086   6.406 -1.7877 -0.5682  0.0533
10951SOL     OW43781   0.245   7.745   1.178 -0.2391 -0.3415  0.0528
10951SOL    HW143782   0.215   7.747   1.083 -1.9820 -2.6775  0.4894
10951SOL    HW243783   0.165   7.736   1.238  1.0634 -3.5079  1.4624
10952SOL     OW43784   5.838   8.915   4.495 -0.2984  0.0541  0.3574
10952SOL    HW143785   5.758   8.915   4.436  0.8525 -0.0369 -1.2567
10952SOL    HW243786   5.884   8.826   4.488 -0.0857  0.0878  1.2954
10953SOL     OW43787   9.243   9.513   3.924 -0.1377  0.0014  0.0365
10953SOL    HW143788   9.269   9.609   3.913 -0.0531  0.0329  0.4970
10953SOL    HW243789   9.196   9.481   3.841 -0.4649  0.5341  0.0167
10954SOL     OW43790   0.483   6.747   3.293  0.1419  0.2598  0.2902
10954SOL    HW143791   0.472   6.714   3.387 -2.3517  0.6211  0.1665
10954SOL    HW243792   0.451   6.842   3.288  0.7630  0.4166 -0.8087
10955SOL     OW43793   8.805   7.338   0.288  0.4685  0.0099 -0.3584
10955SOL    HW143794   8.898   7.352   0.254  0.7699 -0.8076  0.1208
10955SOL    HW243795   8.740   7.382   0.226  1.1574  0.4033 -0.8066
10956SOL     OW43796   0.503   7.553   3.482 -0.1959 -0.4859  0.5323
10956SOL    HW143797   0.566   7.525   3.409 -0.7168 -0.9862  0.2722
10956SOL    HW243798   0.415   7.577   3.442  0.0587  0.9375  0.8257
10957SOL     OW43799   8.367   8.053   3.517 -0.3496  0.2011  0.3440
10957SOL    HW143800   8.279   8.098   3.525 -0.7315 -0.4713 -0.0234
10957SOL    HW243801   8.369   7.998   3.433  0.6458  0.7290  0.0093
10958SOL     OW43802   4.453   8.610   2.808 -0.4464 -0.2309 -0.3597
10958SOL    HW143803   4.539   8.662   2.807 -2.5180  3.3537  0.3825
10958SOL    HW243804   4.392   8.645   2.737 -3.3782  1.0371  2.6770
10959SOL     OW43805   8.974   0.008   1.893 -0.2457 -0.0792  0.6456
10959SOL    HW143806   8.975   0.067   1.812 -2.2693 -0.7258  0.1224
10959SOL    HW243807   8.953   0.063   1.974  1.5304  0.5237  0.7245
10960SOL     OW43808   0.618   6.001   1.658 -0.0091  0.2083  0.4118
10960SOL    HW143809   0.637   6.089   1.616 -0.0084  0.7933  1.6209
10960SOL    HW243810   0.521   5.995   1.682  0.1939  0.2803  1.2496
10961SOL     OW43811   8.790   2.974   3.714 -0.2470 -0.2547  0.2485
10961SOL    HW143812   8.882   2.962   3.749 -0.2028 -0.5354  0.0422
10961SOL    HW243813   8.740   2.887   3.721 -0.0926 -0.4298 -0.7924
10962SOL     OW43814   2.306   7.993   1.280  0.0499  0.0601  0.3676
10962SOL    HW143815   2.218   7.987   1.328 -0.5199  1.4527 -0.4824
10962SOL    HW243816   2.336   8.088   1.277  0.0687  0.0064 -2.0537
10963SOL     OW43817   8.988   0.432   0.901 -0.1285 -0.2031  0.1724
10963SOL    HW143818   9.002   0.419   0.803 -0.6469 -1.0731  0.2177
10963SOL    HW243819   8.942   0.520   0.917 -2.1204 -1.0965 -0.5238
10964SOL     OW43820   0.785   6.314   4.115 -0.2144 -0.2544 -0.5277
10964SOL    HW143821   0.686   6.322   4.127  0.0441 -0.5559  1.9332
10964SOL    HW243822   0.817   6.388   4.056 -1.9705 -0.4752 -1.8159
10965SOL     OW43823   0.182   7.741   0.873 -0.6445  0.4955 -0.3606
10965SOL    HW143824   0.235   7.677   0.818 -1.8181 -1.2404  0.5106
10965SOL    HW243825   0.193   7.834   0.836 -0.6891 -0.5134 -2.9383
10966SOL     OW43826   3.803   6.003   2.672  0.0081 -0.5962 -0.7447
10966SOL    HW143827   3.895   6.042   2.668  0.1629 -0.9320 -0.5611
10966SOL    HW243828   3.768   6.012   2.765 -0.6849  0.7399 -1.1333
10967SOL     OW43829   9.613   5.683   5.204 -0.2233  0.3137  0.3484
10967SOL    HW143830   9.553   5.755   5.169  0.4273  1.0421  0.7176
10967SOL    HW243831   9.687   5.724   5.256  0.1324 -0.6336  0.5966
10968SOL     OW43832   2.206   9.579   4.705  0.1467 -0.3379 -0.9298
10968SOL    HW143833   2.188   9.670   4.741  0.3870 -0.6334 -0.0337
10968SOL    HW243834   2.281   9.582   4.640  0.2957  0.0663 -0.7349
10969SOL     OW43835   2.553   5.478   5.821  0.4031  0.5109  0.5000
10969SOL    HW143836   2.494   5.405   5.855 -0.2926  0.1722 -1.3254
10969SOL    HW243837   2.601   5.521   5.897 -1.4448  0.1223  1.9236
10970SOL     OW43838   8.369   0.491   3.310 -0.2624  0.4583 -0.4866
10970SOL    HW143839   8.416   0.448   3.388  2.2621  1.7206 -1.2391
10970SOL    HW243840   8.274   0.510   3.335 -0.0026 -0.8123  1.6423
10971SOL     OW43841   4.517   1.746   1.653  0.3258  0.1693  0.4072
10971SOL    HW143842   4.430   1.768   1.609  0.3306  0.3819  0.5047
10971SOL    HW243843   4.590   1.747   1.585  0.0797 -1.0884  0.1228
10972SOL     OW43844   0.548   8.798   1.362  0.0877 -0.2061 -0.2120
10972SOL    HW143845   0.595   8.769   1.446 -0.2493 -0.1546 -0.0037
10972SOL    HW243846   0.488   8.875   1.383 -0.1516 -0.3254 -0.4617
10973SOL     OW43847   7.297   8.089   4.984 -0.2604  0.1884  0.5135
10973SOL    HW143848   7.303   7.989   4.988  0.5127  0.1596 -0.9639
10973SOL    HW243849   7.288   8.126   5.077 -2.7289 -1.3736  0.9533
10974SOL     OW43850   5.373   3.990   1.755 -0.1498  0.7329 -0.4535
10974SOL    HW143851   5.355   3.915   1.692 -0.4828  0.3349  0.1080
10974SOL    HW243852   5.287   4.039   1.774 -0.0855  0.7317 -0.1620
10975SOL     OW43853   4.821   7.739   1.517 -0.4970 -0.3285 -0.1888
10975SOL    HW143854   4.825   7.677   1.595 -0.7124 -1.4997 -1.0887
10975SOL    HW243855   4.910   7.740   1.471 -1.6411 -3.2208 -2.6156
10976SOL     OW43856   1.934   6.928   1.569 -0.4515  0.2615 -0.3886
10976SOL    HW143857   1.915   6.971   1.481  1.8461  0.7598 -0.6722
10976SOL    HW243858   1.902   6.833   1.568  0.1539  0.0610 -2.0123
10977SOL     OW43859   8.559   3.558   1.787 -0.0207  0.1443 -0.5237
10977SOL    HW143860   8.508   3.642   1.804  0.5312  0.4531 -0.4047
10977SOL    HW243861   8.499   3.479   1.800 -1.0618  0.5886 -2.4814
10978SOL     OW43862   8.651   4.241   1.615 -0.0881 -0.0298  0.2099
10978SOL    HW143863   8.646   4.339   1.597 -0.2407 -0.0857 -0.0481
10978SOL    HW243864   8.652   4.191   1.528  2.2725 -0.1403  0.2650
10979SOL     OW43865   3.672   4.845   3.662 -0.4619  0.3524  0.2566
10979SOL    HW143866   3.709   4.806   3.746  0.4915 -0.6660 -0.6108
10979SOL    HW243867   3.673   4.944   3.667  2.3264  0.3607  0.3201
10980SOL     OW43868   7.033   0.771   3.439 -0.4381 -0.0037  0.0376
10980SOL    HW143869   7.108   0.718   3.479 -1.4056 -2.2527 -1.0285
10980SOL    HW243870   7.004   0.842   3.504  2.5295  0.8552  0.4722
10981SOL     OW43871   8.558   0.858   3.371  0.0363 -0.6805 -0.2455
10981SOL    HW143872   8.469   0.860   3.326 -0.3652  2.2633  0.5566
10981SOL    HW243873   8.567   0.774   3.424 -2.5380 -0.7349  0.1684
10982SOL     OW43874   1.049   5.438   2.696 -0.4044  0.3016  0.4582
10982SOL    HW143875   1.002   5.522   2.726  1.6077  1.3003  0.8666
10982SOL    HW243876   1.147   5.455   2.692  0.1937 -2.5119  2.0882
10983SOL     OW43877   9.347   7.957   3.844 -0.2468  0.1444  0.6348
10983SOL    HW143878   9.266   8.015   3.848  1.0277  2.0712 -0.7659
10983SOL    HW243879   9.350   7.909   3.756  1.0713  1.5005 -0.0723
10984SOL     OW43880   2.822   7.887   5.287 -0.1341  0.2718  0.0671
10984SOL    HW143881   2.777   7.970   5.253  0.3460  0.7547  0.5998
10984SOL    HW243882   2.764   7.844   5.356 -1.0426 -0.6308 -1.2443
10985SOL     OW43883   8.141   0.809   1.178  0.0865 -0.8330  0.2767
10985SOL    HW143884   8.080   0.735   1.151 -0.0515 -0.3386 -0.7633
10985SOL    HW243885   8.143   0.879   1.107  0.4916  0.0005  1.0954
10986SOL     OW43886   7.883   0.699   2.942 -0.3596  0.0221  0.1929
10986SOL    HW143887   7.892   0.775   2.878  0.3975  0.6838  1.0743
10986SOL    HW243888   7.789   0.665   2.941 -0.0899 -0.7176 -2.0986
10987SOL     OW43889   1.682   0.455   4.414  0.2299  0.3419 -0.3328
10987SOL    HW143890   1.756   0.406   4.460 -0.3653  0.8482  1.2186
10987SOL    HW243891   1.656   0.406   4.331  1.1930 -0.7139 -0.0279
10988SOL     OW43892   5.961   1.170   2.350  0.2640 -0.5815 -0.2587
10988SOL    HW143893   6.022   1.127   2.284  0.7097  0.3664 -0.4805
10988SOL    HW243894   6.016   1.217   2.419 -0.1847 -2.0853  1.1554
10989SOL     OW43895   0.503   0.255   1.434  0.6005  0.1271  0.1757
10989SOL    HW143896   0.448   0.338   1.441 -0.1283 -0.5193  2.5254
10989SOL    HW243897   0.463   0.184   1.492  3.4655 -0.6160  1.2978
10990SOL     OW43898   3.224   7.403   2.665  0.2225  0.7446 -0.0987
10990SOL    HW143899   3.236   7.370   2.572 -1.9697 -0.4095  0.0019
10990SOL    HW243900   3.272   7.342   2.728 -0.5395 -0.0311 -0.2570
10991SOL     OW43901   9.201   0.442   2.741  0.0134  0.8118  0.2578
10991SOL    HW143902   9.185   0.350   2.776 -1.3445  1.6124  1.7765
10991SOL    HW243903   9.276   0.440   2.674 -1.9726 -1.8882 -1.9681
10992SOL     OW43904   0.600   4.994   2.828  0.0773 -0.0436 -0.1242
10992SOL    HW143905   0.633   5.087   2.815  1.0725 -0.4362 -0.4618
10992SOL    HW243906   0.500   4.993   2.824  0.1145  0.7716 -1.6838
10993SOL     OW43907   9.825   9.883   3.031  0.0200 -0.1068 -0.2155
10993SOL    HW143908   9.827   9.865   2.933 -1.1660 -0.9569 -0.0836
10993SOL    HW243909   9.796   9.978   3.047  0.5526  0.1419 -0.6837
10994SOL     OW43910   6.238   9.664   3.945 -0.4892 -0.0740  0.0927
10994SOL    HW143911   6.241   9.572   3.906 -3.0373 -0.1749  0.0290
10994SOL    HW243912   6.306   9.722   3.899  0.3172 -1.6017 -0.6799
10995SOL     OW43913   4.405   0.116   2.162 -0.5306  0.2365 -0.4994
10995SOL    HW143914   4.313   0.136   2.127 -0.2763  0.2392 -1.1796
10995SOL    HW243915   4.449   0.202   2.188 -0.5543  0.2809 -0.6019
10996SOL     OW43916   1.444   4.566   2.029 -0.1583  0.0472 -0.4234
10996SOL    HW143917   1.364   4.541   2.084  1.2706 -1.0718  1.1876
10996SOL    HW243918   1.459   4.497   1.958  0.6470 -0.8793  0.6442
10997SOL     OW43919   8.733   4.600   6.493 -0.4978  0.0646 -0.3625
10997SOL    HW143920   8.762   4.601   6.588  1.6358 -1.4283 -0.9465
10997SOL    HW243921   8.663   4.669   6.478 -1.0067  0.1660  2.3225
10998SOL     OW43922   4.222   3.890   1.450  0.4659 -0.5722  0.0778
10998SOL    HW143923   4.285   3.941   1.508  0.6871 -1.1186  0.3200
10998SOL    HW243924   4.137   3.942   1.439  1.9169  1.3791 -2.3583
10999SOL     OW43925   3.997   0.011   2.226 -0.3564 -0.0044  0.1070
10999SOL    HW143926   3.929   0.075   2.261  1.3295  1.4892  0.7726
10999SOL    HW243927   4.062  -0.012   2.299  0.0434 -1.1418 -0.5942
11000SOL     OW43928   9.050   2.069   3.560  0.1111  0.4367  0.4310
11000SOL    HW143929   9.040   2.148   3.500  0.0852 -0.3001 -0.5533
11000SOL    HW243930   8.961   2.043   3.597 -0.0227  0.3143  0.0259
11001SOL     OW43931   8.605   2.029   6.193 -0.4142 -0.1569 -0.3758
11001SOL    HW143932   8.622   2.050   6.097 -0.4045 -2.5466 -0.9306
11001SOL    HW243933   8.564   1.938   6.201 -3.3422  1.2346  1.6696
11002SOL     OW43934   1.852   7.912   5.300  0.0182  0.2167 -0.2989
11002SOL    HW143935   1.891   7.944   5.214  1.6802 -0.2067  0.2669
11002SOL    HW243936   1.908   7.837   5.336 -0.7040  0.3184  1.0956
11003SOL     OW43937   0.227   4.565   0.442 -0.4555 -0.0173 -0.0759
11003SOL    HW143938   0.200   4.546   0.537 -1.5980  1.2463 -0.1313
11003SOL    HW243939   0.251   4.662   0.433 -0.4555 -0.1092 -1.0996
11004SOL     OW43940   2.774   1.479   1.477  0.2097 -0.4418  0.0332
11004SOL    HW143941   2.749   1.556   1.536  3.0070 -1.4617  2.6480
11004SOL    HW243942   2.861   1.498   1.433 -0.7195 -0.7212 -1.9892
11005SOL     OW43943   8.902   0.446   1.393  0.4286  0.1846  0.6829
11005SOL    HW143944   8.966   0.519   1.414 -1.6100  2.0340  0.6957
11005SOL    HW243945   8.825   0.450   1.457  0.3985 -2.1349  0.8267
11006SOL     OW43946   1.677   8.825   2.485 -0.2459 -0.3803  0.1137
11006SOL    HW143947   1.738   8.833   2.563 -1.3565 -0.2437  0.9762
11006SOL    HW243948   1.709   8.751   2.425  1.3709  0.4163 -0.0210
11007SOL     OW43949   3.930   6.948   4.601  0.1698 -0.1083 -0.2845
11007SOL    HW143950   4.029   6.942   4.594  0.5457  0.9299  3.2288
11007SOL    HW243951   3.889   6.863   4.568  2.1762 -0.4724 -1.9439
11008SOL     OW43952   3.013   7.505   2.385 -0.3638  0.2658  0.0427
11008SOL    HW143953   3.071   7.424   2.380 -0.5450  0.1731 -0.5793
11008SOL    HW243954   3.056   7.574   2.444 -0.3781 -0.4152  0.8464
11009SOL     OW43955   6.821   1.118   3.264  0.5355  0.5029  0.0416
11009SOL    HW143956   6.799   1.137   3.168 -0.4685 -1.1519 -0.0719
11009SOL    HW243957   6.737   1.121   3.318  0.9439  0.3364  0.6829
11010SOL     OW43958   8.014   2.498   3.565  0.5257  0.6307 -0.4860
11010SOL    HW143959   8.094   2.521   3.511  0.6678 -0.6014 -0.7984
11010SOL    HW243960   7.934   2.545   3.527  0.1819 -2.0271 -3.2004
11011SOL     OW43961   5.222   5.174   1.077 -0.5787 -0.2586  0.3180
11011SOL    HW143962   5.169   5.174   0.992 -0.0088  0.6050 -0.0450
11011SOL    HW243963   5.175   5.232   1.144  0.4425  1.3653 -0.3533
11012SOL     OW43964   7.257   2.374   3.850  0.2780 -0.0164  0.0888
11012SOL    HW143965   7.172   2.410   3.811 -0.2342  0.9029  1.9852
11012SOL    HW243966   7.328   2.374   3.779 -1.4270 -1.3747 -1.6868
11013SOL     OW43967   6.000   9.127   1.655 -0.1257  0.2340  0.3578
11013SOL    HW143968   5.976   9.123   1.752 -1.6636  1.2320  0.0432
11013SOL    HW243969   5.982   9.038   1.613 -1.7504  0.4822  0.4915
11014SOL     OW43970   8.767   7.381   3.999 -0.0339 -0.0372  0.7481
11014SOL    HW143971   8.688   7.361   3.940  1.2402  0.0579 -1.0358
11014SOL    HW243972   8.850   7.351   3.953  1.0311  0.4540  2.3434
11015SOL     OW43973   9.935   7.089   3.017 -0.0329 -0.0706  0.2864
11015SOL    HW143974  10.027   7.079   2.981 -0.5641  1.7401 -1.7415
11015SOL    HW243975   9.914   7.187   3.027 -2.0846 -0.4212 -0.3253
11016SOL     OW43976   3.403   4.779   3.711  0.5653  0.2200  0.5375
11016SOL    HW143977   3.494   4.766   3.672  1.8168  1.4749  2.9447
11016SOL    HW243978   3.385   4.706   3.778  0.0248  0.3054  0.4860
11017SOL     OW43979   1.969   7.483   2.454 -0.6464 -0.5757  0.1022
11017SOL    HW143980   1.989   7.541   2.532  0.4732 -0.4243 -0.2982
11017SOL    HW243981   1.900   7.527   2.396  1.3209  1.0933 -1.0236
11018SOL     OW43982   7.923   3.381   1.454  0.1719 -0.1393  0.1714
11018SOL    HW143983   7.889   3.419   1.541  3.1479  2.2184  0.4104
11018SOL    HW243984   7.892   3.439   1.379  1.4377  0.5222  0.1445
11019SOL     OW43985   2.127   6.086   5.733 -0.2365 -0.5452  0.2477
11019SOL    HW143986   2.164   5.997   5.707 -0.1575 -0.9219  1.6088
11019SOL    HW243987   2.181   6.125   5.808 -0.5106  0.4681 -0.0689
11020SOL     OW43988   7.667   9.212   1.642  0.1452 -0.0142 -0.0108
11020SOL    HW143989   7.617   9.279   1.697 -1.2406 -1.9152  1.1150
11020SOL    HW243990   7.749   9.183   1.692  1.2904  1.5555 -0.9404
11021SOL     OW43991   1.078   4.829   1.500 -0.9975 -0.0087 -0.3039
11021SOL    HW143992   0.982   4.858   1.494 -1.8855 -2.6834  0.1381
11021SOL    HW243993   1.090   4.770   1.580  1.5611  2.1249  0.9450
11022SOL     OW43994   9.483   7.950   0.979 -0.3386 -0.2430 -0.3123
11022SOL    HW143995   9.469   7.864   0.931 -1.2029 -0.2432 -0.0602
11022SOL    HW243996   9.548   7.936   1.054  0.1792 -0.4826 -0.8075
11023SOL     OW43997   3.224   5.257   1.936 -0.3092  0.1000 -0.8524
11023SOL    HW143998   3.240   5.298   2.026 -0.1289 -1.9882  0.0923
11023SOL    HW243999   3.297   5.283   1.874  0.5856  0.0142  0.1529
11024SOL     OW44000   0.106   6.013   3.333 -0.3021  0.2815  0.1855
11024SOL    HW144001   0.172   6.052   3.397  0.8322  0.6339 -1.1561
11024SOL    HW244002   0.130   6.041   3.240 -0.3747 -2.3193 -0.6696
11025SOL     OW44003   2.660   5.826   2.892  0.1816 -0.7670 -0.0179
11025SOL    HW144004   2.759   5.816   2.884  0.1743 -0.6838 -0.1847
11025SOL    HW244005   2.617   5.809   2.804  0.0288 -1.0426  0.1088
11026SOL     OW44006   8.990   2.700   4.280 -0.3112 -0.2642 -0.1384
11026SOL    HW144007   8.925   2.629   4.253 -1.0786  0.4216 -0.0925
11026SOL    HW244008   9.041   2.669   4.361 -0.1402 -1.0548 -0.5424
11027SOL     OW44009   2.262   7.039   0.049  0.2478  0.6142 -0.0502
11027SOL    HW144010   2.288   6.942   0.053  1.4655  0.9985  1.9744
11027SOL    HW244011   2.164   7.048   0.063  0.4204 -0.2056  1.8450
11028SOL     OW44012   3.191   3.806   6.397 -0.3091  0.0955  0.5031
11028SOL    HW144013   3.260   3.739   6.374 -1.0562  0.1993 -2.1482
11028SOL    HW244014   3.100   3.771   6.373 -0.8305  1.5043  0.3738
11029SOL     OW44015   8.624   8.162   4.015  0.0531  0.4273  0.6479
11029SOL    HW144016   8.648   8.079   4.065 -0.6890 -0.2158 -0.0566
11029SOL    HW244017   8.576   8.138   3.931  0.1834  1.5553  0.2358
11030SOL     OW44018   8.078   2.791   1.313 -0.7321  0.1302 -0.8460
11030SOL    HW144019   8.075   2.692   1.294  2.4454 -0.2427  0.2633
11030SOL    HW244020   8.040   2.841   1.236 -2.2994 -1.9712 -1.4724
11031SOL     OW44021   9.822   2.591   3.005  0.6116  0.8062 -0.2274
11031SOL    HW144022   9.919   2.574   2.992  0.1383 -1.8888 -0.5505
11031SOL    HW244023   9.801   2.594   3.102  0.6072 -1.5058 -0.1138
11032SOL     OW44024   1.855   6.802   0.729  0.3814 -0.1381  0.1831
11032SOL    HW144025   1.776   6.749   0.699 -1.1407  0.5778  2.7259
11032SOL    HW244026   1.853   6.892   0.684 -0.6344  0.1153  0.7076
11033SOL     OW44027   9.607   7.118   2.749 -0.2523  0.2499 -0.5598
11033SOL    HW144028   9.648   7.046   2.693  0.5648 -0.6236  1.1492
11033SOL    HW244029   9.677   7.186   2.772 -0.9602  1.4882 -1.9633
11034SOL     OW44030   0.191   4.642   1.424  0.9397 -0.1430 -0.1057
11034SOL    HW144031   0.280   4.597   1.434  0.4819 -0.6356  1.9386
11034SOL    HW244032   0.125   4.598   1.484 -1.0413 -0.6257 -2.5556
11035SOL     OW44033   3.478   6.103   4.170 -0.0923  0.1809 -0.6460
11035SOL    HW144034   3.481   6.019   4.115 -2.6735 -0.8082  0.6213
11035SOL    HW244035   3.389   6.109   4.215  1.0168  2.3209  1.3182
11036SOL     OW44036   0.785   4.501   1.991 -0.2206 -0.1182  0.4046
11036SOL    HW144037   0.868   4.448   2.005 -0.3198 -0.5070 -0.4754
11036SOL    HW244038   0.761   4.502   1.894 -0.7491  0.7374  0.5386
11037SOL     OW44039   2.067   4.807   0.466 -0.0540 -0.2416 -0.0743
11037SOL    HW144040   1.979   4.770   0.437 -0.2120 -1.1515  1.4944
11037SOL    HW244041   2.137   4.736   0.457 -0.4530 -1.1953  3.4596
11038SOL     OW44042   7.267   1.007   5.679  0.3556 -0.3968  0.1264
11038SOL    HW144043   7.306   0.965   5.761  2.0274 -0.4162 -0.6518
11038SOL    HW244044   7.336   1.064   5.635 -0.9392  0.6707 -0.5472
11039SOL     OW44045   1.076   5.200   0.607 -0.3076  0.4220 -0.6818
11039SOL    HW144046   1.102   5.278   0.551  0.2491  0.5331 -0.2685
11039SOL    HW244047   1.079   5.224   0.704  1.7522 -0.6476 -0.4531
11040SOL     OW44048   0.482   2.010   4.924  0.9170 -0.0039 -0.1197
11040SOL    HW144049   0.562   2.005   4.863  1.2785 -1.0083  0.4254
11040SOL    HW244050   0.456   1.918   4.953  0.5359  0.4388  0.9757
11041SOL     OW44051   4.957   3.635   0.980  0.4864  0.1427 -0.0195
11041SOL    HW144052   4.892   3.572   0.938 -1.7032  1.8802  0.6615
11041SOL    HW244053   4.961   3.719   0.926 -0.3391  1.3431  1.7447
11042SOL     OW44054   0.560   6.421   5.654 -0.1037  0.6290 -0.0937
11042SOL    HW144055   0.484   6.481   5.678  0.5323  1.7056 -0.7492
11042SOL    HW244056   0.530   6.326   5.662 -0.7333  0.9753  2.2679
11043SOL     OW44057   9.213   6.597   5.432 -0.3324 -0.2686 -0.2045
11043SOL    HW144058   9.124   6.627   5.397 -1.0078 -0.9549  0.8968
11043SOL    HW244059   9.286   6.646   5.385 -1.3844  2.3551  0.8095
11044SOL     OW44060   9.182   8.370   1.556  0.4382 -0.1497 -0.6980
11044SOL    HW144061   9.202   8.467   1.569 -2.6645  0.2697  1.3364
11044SOL    HW244062   9.213   8.318   1.635  0.0056 -0.4901 -0.7475
11045SOL     OW44063   0.765   9.828   3.354 -0.2634 -0.0491 -1.0472
11045SOL    HW144064   0.702   9.760   3.392 -1.1870  1.8721  0.9933
11045SOL    HW244065   0.816   9.788   3.278 -1.4567 -2.7097 -0.4954
11046SOL     OW44066   1.017   2.000   1.905  0.5491 -0.2909 -0.2303
11046SOL    HW144067   1.035   1.902   1.913  1.9807 -0.1749 -1.8625
11046SOL    HW244068   1.102   2.049   1.887 -0.4122  1.0349 -1.3261
11047SOL     OW44069   2.995   2.079   2.329 -0.4729  0.1549  0.0880
11047SOL    HW144070   2.906   2.104   2.292 -0.8993  0.1608  1.1286
11047SOL    HW244071   3.040   2.160   2.367  0.3588  0.3279 -1.2100
11048SOL     OW44072   8.478   6.903   3.032  0.3263  0.1515 -0.2127
11048SOL    HW144073   8.525   6.907   2.944  0.8994  0.7163  0.1113
11048SOL    HW244074   8.397   6.845   3.024 -0.0642  0.8321 -1.3173
11049SOL     OW44075   0.652   1.580   3.509  0.1601  0.3313 -0.0316
11049SOL    HW144076   0.689   1.628   3.430  0.1010 -0.4359 -0.5302
11049SOL    HW244077   0.587   1.511   3.479  1.8330 -1.5352  0.5058
11050SOL     OW44078   2.625   0.786   4.466 -0.0588 -0.3206  0.6568
11050SOL    HW144079   2.595   0.846   4.392  0.2512 -1.3895 -0.3551
11050SOL    HW244080   2.563   0.708   4.472  0.8705 -1.0811  0.4288
11051SOL     OW44081   9.522   4.337   1.889 -0.4739 -0.0567  0.1040
11051SOL    HW144082   9.429   4.340   1.852 -0.6273  1.1023  0.5657
11051SOL    HW244083   9.572   4.262   1.846 -1.3496 -0.1445 -0.7984
11052SOL     OW44084   9.315   5.634   6.703 -0.0615  0.0209  0.4756
11052SOL    HW144085   9.252   5.601   6.773 -0.0271 -1.2776 -0.0775
11052SOL    HW244086   9.404   5.589   6.713 -0.4640 -1.2391 -1.1997
11053SOL     OW44087   7.425   0.699   0.358 -0.2390 -0.2888  0.3350
11053SOL    HW144088   7.367   0.711   0.277 -0.4667 -0.2145  0.5073
11053SOL    HW244089   7.508   0.754   0.348 -2.0988  2.9432  1.9163
11054SOL     OW44090   2.423   6.631   4.429 -0.5581 -0.0712  0.2475
11054SOL    HW144091   2.480   6.706   4.462 -0.5143 -0.9398  2.2423
11054SOL    HW244092   2.442   6.614   4.333  0.3105  1.6663  0.0998
11055SOL     OW44093   2.233   6.734   2.784 -0.2657 -0.3615  0.2242
11055SOL    HW144094   2.197   6.658   2.838 -2.8641  1.2141  0.7980
11055SOL    HW244095   2.210   6.720   2.688 -1.3020 -0.0100  0.4152
11056SOL     OW44096   4.151   6.229   1.213 -0.7087 -0.6433 -0.4911
11056SOL    HW144097   4.198   6.305   1.258  0.2638 -2.4725  1.6185
11056SOL    HW244098   4.063   6.212   1.258  0.7028 -3.1176  1.4627
11057SOL     OW44099   9.143   9.068   2.320 -0.0388 -0.1423  0.3379
11057SOL    HW144100   9.204   8.990   2.305  2.2644  1.2683  2.1337
11057SOL    HW244101   9.054   9.034   2.353  0.2398 -2.1245 -0.8728
11058SOL     OW44102   7.876   8.894   4.536 -0.2074 -0.2877  0.2549
11058SOL    HW144103   7.859   8.947   4.619  1.3186  0.9346 -0.1659
11058SOL    HW244104   7.874   8.956   4.457 -2.2223 -1.5307 -0.7003
11059SOL     OW44105   0.371   0.515   1.140 -0.0013  0.2951  0.1731
11059SOL    HW144106   0.294   0.458   1.171 -0.8571  1.9934  1.2512
11059SOL    HW244107   0.402   0.484   1.050  0.2962 -2.5884  1.2178
11060SOL     OW44108   2.584   8.850   4.204 -0.2674 -0.1279 -0.1435
11060SOL    HW144109   2.682   8.869   4.200 -0.5241  1.0682 -1.2278
11060SOL    HW244110   2.547   8.844   4.111 -0.8006 -2.9534  0.2220
11061SOL     OW44111   0.976   1.602   2.400  0.1865 -0.5914 -0.4102
11061SOL    HW144112   0.967   1.624   2.303  0.0173  0.1114 -0.2347
11061SOL    HW244113   0.896   1.550   2.430 -0.7575  0.9648 -0.1601
11062SOL     OW44114   0.391   5.550   3.087 -0.6129 -0.0585  0.3109
11062SOL    HW144115   0.425   5.628   3.034  1.9692 -0.3375  1.4814
11062SOL    HW244116   0.450   5.535   3.166 -1.5430 -2.7082  0.5601
11063SOL     OW44117   7.528   1.561   3.582 -0.2235  0.1774  0.0266
11063SOL    HW144118   7.607   1.515   3.624 -0.3110  0.3100  0.3416
11063SOL    HW244119   7.479   1.612   3.652 -1.5440 -1.2417  0.1456
11064SOL     OW44120   0.601   3.374   1.938  0.0027 -0.0838  0.2700
11064SOL    HW144121   0.666   3.309   1.977  2.0988  1.5652 -0.3461
11064SOL    HW244122   0.565   3.339   1.852  2.2883  0.2026 -0.8348
11065SOL     OW44123   8.365   3.543   2.968 -0.0110 -0.5866  0.1448
11065SOL    HW144124   8.306   3.557   2.888  0.2708 -0.1716  0.0017
11065SOL    HW244125   8.445   3.603   2.960  1.0722 -2.0589 -0.3036
11066SOL     OW44126   1.893   6.396   1.876 -0.1773  0.3287 -0.5688
11066SOL    HW144127   1.873   6.374   1.971  0.7052  0.4215 -0.3504
11066SOL    HW244128   1.932   6.316   1.831 -2.1824 -0.2268 -1.3305
11067SOL     OW44129   7.874   8.803   4.175  0.4993  0.1424 -0.0023
11067SOL    HW144130   7.855   8.729   4.111 -1.1088  1.2540 -0.8194
11067SOL    HW244131   7.870   8.891   4.127  1.6566  0.8292  1.1169
11068SOL     OW44132   8.569   8.532   5.055 -0.1109 -0.1637 -0.4597
11068SOL    HW144133   8.515   8.574   5.128  0.8198  1.5728 -0.7441
11068SOL    HW244134   8.589   8.438   5.079 -0.4817  0.1485  1.1691
11069SOL     OW44135   8.337   7.899   4.903  0.5215  0.7010 -0.0086
11069SOL    HW144136   8.307   7.803   4.909  0.2587  0.6803 -1.4873
11069SOL    HW244137   8.411   7.914   4.968 -0.2582 -0.1840  1.1312
11070SOL     OW44138   6.960   3.605   0.748 -0.4956  0.0773  0.2633
11070SOL    HW144139   7.020   3.659   0.689  2.0688 -0.4791  2.2740
11070SOL    HW244140   6.938   3.656   0.831 -3.0475  0.3630 -0.5473
11071SOL     OW44141   8.878   9.925   4.116 -0.1181  0.3908 -0.1503
11071SOL    HW144142   8.951   9.861   4.142 -1.2387 -1.7563 -2.0463
11071SOL    HW244143   8.874   9.931   4.016 -2.5103  0.5120 -0.0665
11072SOL     OW44144   1.800   1.607   1.828 -0.2068  0.2862  0.0294
11072SOL    HW144145   1.731   1.535   1.824  0.1205  0.0733 -2.0793
11072SOL    HW244146   1.811   1.649   1.738  1.6361  1.0541  0.5757
11073SOL     OW44147   4.557   7.787   3.296 -0.1304 -0.0454 -0.2548
11073SOL    HW144148   4.648   7.814   3.266  0.0576  1.1652  1.3336
11073SOL    HW244149   4.498   7.868   3.300 -0.9415 -0.6340 -0.1026
11074SOL     OW44150   8.714   3.019   3.070 -0.7136 -0.0801 -0.5840
11074SOL    HW144151   8.780   2.976   3.007 -1.4306  0.3776 -1.6721
11074SOL    HW244152   8.684   2.952   3.137  0.2688 -0.5137 -0.5618
11075SOL     OW44153   9.265   4.341   0.092  0.6235  0.3824  0.2978
11075SOL    HW144154   9.196   4.393   0.142  0.4152  0.7909 -0.3979
11075SOL    HW244155   9.354   4.354   0.135  0.6359  1.6193 -0.0763
11076SOL     OW44156   5.605   2.368   3.539  0.4250  0.2415  0.2632
11076SOL    HW144157   5.528   2.433   3.536  0.1636 -0.0782  0.0877
11076SOL    HW244158   5.580   2.289   3.594  0.5675  0.0522  0.0547
11077SOL     OW44159   7.527   7.630   3.678 -0.1639  0.2999  0.1546
11077SOL    HW144160   7.488   7.654   3.767  0.3695  1.8319 -0.0090
11077SOL    HW244161   7.458   7.582   3.624 -0.8351  0.2987  0.9909
11078SOL     OW44162   8.458   5.552   1.778 -0.3166 -0.3593  0.2497
11078SOL    HW144163   8.502   5.603   1.852 -1.2059  0.0949  0.4747
11078SOL    HW244164   8.387   5.493   1.817  0.1964 -1.2122 -0.0891
11079SOL     OW44165   3.968   4.175   4.104 -0.0484  0.0557  0.3095
11079SOL    HW144166   3.996   4.246   4.040 -2.7452 -0.5506 -1.5999
11079SOL    HW244167   4.022   4.092   4.087  0.2001  0.3260 -0.2378
11080SOL     OW44168   3.155   6.722   1.154  0.2355 -0.5055 -0.5374
11080SOL    HW144169   3.118   6.796   1.097 -0.0196 -0.0647  0.2046
11080SOL    HW244170   3.252   6.711   1.135  0.3419  0.2230 -0.4316
11081SOL     OW44171   2.799   5.433   1.005 -0.4579 -0.4585  0.3169
11081SOL    HW144172   2.831   5.364   1.071 -0.6803  1.1480  2.1366
11081SOL    HW244173   2.877   5.483   0.969 -0.2804 -1.7527 -1.1382
11082SOL     OW44174   1.267   8.298   4.188  0.1949  0.0065  0.0256
11082SOL    HW144175   1.245   8.239   4.266  1.9784 -0.8329 -0.0858
11082SOL    HW244176   1.291   8.389   4.222 -2.9019  0.8416  0.1747
11083SOL     OW44177   9.400   3.279   2.768 -0.4457 -0.1104  0.3423
11083SOL    HW144178   9.496   3.273   2.741 -0.4385 -3.5272  0.9855
11083SOL    HW244179   9.345   3.304   2.688  0.8303  0.8556 -0.2604
11084SOL     OW44180   1.157   3.891   2.717 -0.1355  0.2405 -0.1387
11084SOL    HW144181   1.105   3.854   2.640 -0.3668 -2.0721  1.0982
11084SOL    HW244182   1.095   3.907   2.794  0.5131  0.2118  0.3849
11085SOL     OW44183   4.366   1.721   3.664  0.0625 -0.1550 -0.2256
11085SOL    HW144184   4.325   1.670   3.739  0.8626  1.8083  1.5836
11085SOL    HW244185   4.295   1.743   3.597 -1.5018  1.4354  1.8754
11086SOL     OW44186   0.221   9.768   2.952 -0.0900  0.4002  0.4944
11086SOL    HW144187   0.157   9.712   2.899  1.1162 -1.6014  1.0883
11086SOL    HW244188   0.238   9.854   2.904 -1.1798 -0.1684 -0.9557
11087SOL     OW44189   5.560   7.613   3.504 -0.2826  0.1191 -0.0529
11087SOL    HW144190   5.532   7.636   3.411 -0.4833 -2.6479 -0.7173
11087SOL    HW244191   5.659   7.600   3.506 -0.1755  0.9885  0.3047
11088SOL     OW44192   9.192   2.964   4.411  0.0852  0.0320  0.0820
11088SOL    HW144193   9.227   3.057   4.401  0.7136  0.1659  3.1812
11088SOL    HW244194   9.268   2.901   4.427 -0.3560 -1.0033 -1.7804
11089SOL     OW44195   3.193   4.944   0.070  0.3054 -0.4712 -0.1345
11089SOL    HW144196   3.268   4.996   0.028  0.2237 -0.3315 -0.1069
11089SOL    HW244197   3.120   5.007   0.096  1.0758 -0.3231  1.7791
11090SOL     OW44198   3.342   0.311   2.887 -0.5930  0.3562 -0.6270
11090SOL    HW144199   3.294   0.292   2.801 -0.7439 -0.7748 -0.3001
11090SOL    HW244200   3.350   0.226   2.940  0.2073  0.8919  0.1135
11091SOL     OW44201   1.443   8.361   2.878  0.3254  0.2026 -0.0125
11091SOL    HW144202   1.410   8.366   2.784  1.4381 -0.9273 -0.4627
11091SOL    HW244203   1.520   8.298   2.884  0.1028  0.0588  1.7020
11092SOL     OW44204   0.861   3.220   5.891  0.0213  0.2283  0.0430
11092SOL    HW144205   0.778   3.170   5.869 -0.7527  0.8863  1.3848
11092SOL    HW244206   0.847   3.318   5.875 -0.0129  0.5237  1.8145
11093SOL     OW44207   6.951   8.074   4.868  0.1479 -0.4786  0.2199
11093SOL    HW144208   6.939   8.158   4.815 -1.2973 -0.9643 -0.2376
11093SOL    HW244209   7.022   8.017   4.826  0.5099  0.1128  0.0334
11094SOL     OW44210   2.229   5.510   5.158  0.6286 -0.3010  0.1178
11094SOL    HW144211   2.193   5.423   5.122  0.2456 -0.2350  0.3287
11094SOL    HW244212   2.218   5.511   5.258  1.1607 -0.2479  0.1743
11095SOL     OW44213   9.875   6.079   1.961 -0.1820 -0.1384  0.1557
11095SOL    HW144214   9.880   6.133   2.045 -1.2674 -0.7347  0.6217
11095SOL    HW244215   9.923   5.992   1.975  1.0400  0.4518 -0.3873
11096SOL     OW44216   9.250   5.248   0.528  0.3741  0.4285 -0.1554
11096SOL    HW144217   9.333   5.229   0.475  0.3871  2.0887 -0.7840
11096SOL    HW244218   9.191   5.167   0.529  1.4478 -0.3653 -0.7493
11097SOL     OW44219   0.098   7.658   5.797 -0.2998  1.0299 -0.4066
11097SOL    HW144220   0.049   7.720   5.858 -0.1546  1.4106 -0.6772
11097SOL    HW244221   0.180   7.703   5.762  1.2328 -0.2454  1.4638
11098SOL     OW44222   5.442   6.294   2.077 -0.4876 -0.2782 -0.2123
11098SOL    HW144223   5.484   6.206   2.056  1.9656  0.4827  1.2912
11098SOL    HW244224   5.492   6.367   2.030  0.0915  0.6657  1.8034
11099SOL     OW44225   8.765   1.908   3.019  0.2558  0.2176  0.0970
11099SOL    HW144226   8.851   1.959   3.023  0.3047 -0.0265  3.4433
11099SOL    HW244227   8.697   1.952   3.077 -1.0681 -1.0718 -0.4430
11100SOL     OW44228   9.245   9.110   3.622  0.5716  0.0945  0.2084
11100SOL    HW144229   9.294   9.048   3.684  1.6251  1.7273  1.0429
11100SOL    HW244230   9.155   9.071   3.601 -0.2691 -0.0164  3.6648
11101SOL     OW44231   3.243   0.721   1.134 -0.4026 -0.1186  0.1633
11101SOL    HW144232   3.342   0.733   1.143 -0.3217 -0.6677 -0.0071
11101SOL    HW244233   3.209   0.661   1.207 -0.6309  0.1762  0.3014
11102SOL     OW44234   1.766   0.552   2.388 -0.1278 -0.0557 -0.8152
11102SOL    HW144235   1.794   0.585   2.298  1.5620  0.5799 -0.0632
11102SOL    HW244236   1.810   0.464   2.406  0.7866  0.5664  0.0355
11103SOL     OW44237   2.175   9.737   3.346  0.2143 -0.0618 -0.5700
11103SOL    HW144238   2.139   9.739   3.253  0.1961  1.6295 -0.5386
11103SOL    HW244239   2.119   9.795   3.405  1.9697  1.2538 -0.1566
11104SOL     OW44240   3.620   2.098   4.336 -0.2547 -0.2636  0.3141
11104SOL    HW144241   3.670   2.020   4.373 -1.4986  0.5925  4.0911
11104SOL    HW244242   3.682   2.152   4.278  0.9404 -3.3167 -1.3684
11105SOL     OW44243   9.388   6.014   6.040  0.1446  0.1789 -0.0423
11105SOL    HW144244   9.352   5.960   6.116  3.1054 -1.4372  0.2864
11105SOL    HW244245   9.313   6.058   5.991 -1.9498 -0.3297  2.6340
11106SOL     OW44246   7.812   0.086   4.648 -0.0905 -0.1250 -0.5130
11106SOL    HW144247   7.712   0.083   4.646 -0.0945  0.0012 -3.6360
11106SOL    HW244248   7.848  -0.005   4.628  0.4390 -0.3896  1.6170
11107SOL     OW44249   7.730   3.486   2.045  0.1454  0.1734 -0.2439
11107SOL    HW144250   7.712   3.388   2.036 -0.3721  0.1344  1.1179
11107SOL    HW244251   7.824   3.500   2.077 -0.0567  0.0791  0.4063
11108SOL     OW44252   1.382   7.228   3.040  0.2535 -0.5278  0.0458
11108SOL    HW144253   1.421   7.297   3.101  0.5358  1.2162 -2.0372
11108SOL    HW244254   1.304   7.183   3.085  0.3956  0.7769  1.6299
11109SOL     OW44255   9.138   3.737   0.274 -0.3394 -0.4886 -0.3232
11109SOL    HW144256   9.185   3.785   0.200  0.1245  0.4498  0.5590
11109SOL    HW244257   9.046   3.775   0.286  0.5552  1.2233  1.3452
11110SOL     OW44258   2.256   0.663   2.699  0.5273  0.4052 -0.7064
11110SOL    HW144259   2.253   0.693   2.794  0.8757 -0.9928 -0.2534
11110SOL    HW244260   2.222   0.569   2.692 -0.6416  0.9039 -2.1298
11111SOL     OW44261   3.478   5.651   0.792 -0.2725 -0.1914 -0.2973
11111SOL    HW144262   3.497   5.644   0.694 -0.1754 -0.9142 -0.2321
11111SOL    HW244263   3.493   5.745   0.823  0.0525 -0.0422 -0.9042
11112SOL     OW44264   2.782   4.907   4.022  0.0671  0.7937 -0.3878
11112SOL    HW144265   2.756   4.866   3.934 -0.9815  1.3073 -0.3207
11112SOL    HW244266   2.754   4.847   4.097  0.0541  0.8387 -0.3567
11113SOL     OW44267   3.766   3.823   1.276 -0.0202  0.1368 -0.5616
11113SOL    HW144268   3.672   3.788   1.271  0.5267 -1.3273 -0.6336
11113SOL    HW244269   3.815   3.800   1.192  0.4015  0.9487 -0.5476
11114SOL     OW44270   2.095   7.037   3.949  0.1627  0.1562  0.1055
11114SOL    HW144271   2.101   6.975   4.027  0.5168 -2.2473 -1.7593
11114SOL    HW244272   2.184   7.044   3.906 -1.0752 -2.9460 -3.2740
11115SOL     OW44273   7.371   0.335   1.692 -0.7525  0.2802  0.2112
11115SOL    HW144274   7.342   0.296   1.779  0.7802 -1.7173 -0.1529
11115SOL    HW244275   7.451   0.286   1.658 -0.0173  2.4192 -1.2809
11116SOL     OW44276   3.387   3.985   4.568 -0.7754 -0.0959 -0.9556
11116SOL    HW144277   3.385   3.934   4.655 -0.8654 -1.2593 -1.6271
11116SOL    HW244278   3.479   3.982   4.530 -0.6021  0.9132 -0.6129
11117SOL     OW44279   8.479   9.548   1.109 -0.4821 -0.2884  0.1370
11117SOL    HW144280   8.398   9.490   1.117  0.2711 -1.2322  1.0640
11117SOL    HW244281   8.451   9.644   1.105 -1.8308 -0.7587 -2.8887
11118SOL     OW44282   1.113   2.941   2.545 -0.0243 -0.0319 -0.6667
11118SOL    HW144283   1.111   3.030   2.590  1.6455 -0.7233  0.8084
11118SOL    HW244284   1.188   2.939   2.480  1.2648 -1.0795  0.8361
11119SOL     OW44285   9.767   0.143   2.999  0.5627 -0.0677 -0.0682
11119SOL    HW144286   9.812   0.163   2.913 -0.9772  0.4213 -0.7794
11119SOL    HW244287   9.669   0.165   2.992 -0.1058 -2.6031  0.9226
11120SOL     OW44288   8.238   8.897   2.967  0.2257 -0.0832  0.0357
11120SOL    HW144289   8.281   8.905   2.877 -2.7598  0.4357 -1.3815
11120SOL    HW244290   8.176   8.818   2.968 -1.4618  1.2302  0.9211
11121SOL     OW44291   8.281   6.091   2.231 -0.1692  0.5867  0.1195
11121SOL    HW144292   8.218   6.087   2.153  1.4979 -1.3342 -1.2074
11121SOL    HW244293   8.358   6.151   2.208 -0.1713  0.8097  0.6917
11122SOL     OW44294   7.563   7.788   2.191  0.6434  0.0527 -0.4604
11122SOL    HW144295   7.654   7.818   2.162  0.1209  0.6178 -1.5335
11122SOL    HW244296   7.505   7.868   2.206 -0.6468 -0.3815 -2.9734
11123SOL     OW44297   5.336   9.888   0.722 -0.2501  0.6031 -0.3765
11123SOL    HW144298   5.281   9.840   0.791 -0.6683  1.2487 -0.2547
11123SOL    HW244299   5.427   9.847   0.718  0.0210  1.0107  1.0867
11124SOL     OW44300   2.349   4.815   1.513  0.0973 -0.3104 -1.2256
11124SOL    HW144301   2.383   4.904   1.544 -0.8969 -0.0779 -0.8030
11124SOL    HW244302   2.426   4.750   1.507  0.3417 -0.3024  1.4994
11125SOL     OW44303   6.723   0.885   5.204  0.5042  0.0542  0.1216
11125SOL    HW144304   6.729   0.883   5.105  2.4231  1.5251  0.1883
11125SOL    HW244305   6.650   0.948   5.232  0.3124  0.0329 -0.3358
11126SOL     OW44306   0.362   9.175   4.360  0.2337 -0.0426  0.3858
11126SOL    HW144307   0.271   9.213   4.340  0.2516 -0.1432  0.1026
11126SOL    HW244308   0.366   9.145   4.455 -0.1673 -0.4204  0.2831
11127SOL     OW44309   8.199   6.144   1.417  0.2071 -0.3376  0.2031
11127SOL    HW144310   8.189   6.181   1.509 -2.1655  0.6204 -0.3834
11127SOL    HW244311   8.128   6.075   1.401  0.8605 -0.8028 -0.7679
11128SOL     OW44312   2.311   5.592   3.138 -0.2612 -0.0357 -0.7007
11128SOL    HW144313   2.382   5.624   3.201 -2.5550  3.9042  0.0548
11128SOL    HW244314   2.232   5.560   3.191 -0.6157 -0.6053 -1.5667
11129SOL     OW44315   4.038   1.993   1.025 -0.0323  0.0784 -0.6584
11129SOL    HW144316   3.967   2.048   0.981  0.4254  0.6665 -0.6715
11129SOL    HW244317   4.033   1.899   0.992 -1.2165 -0.0323 -0.1731
11130SOL     OW44318   9.317   3.255   0.628 -0.7383  0.4666 -0.6165
11130SOL    HW144319   9.403   3.259   0.678 -0.6704 -2.9740 -0.3549
11130SOL    HW244320   9.241   3.280   0.689 -0.2813  0.0057  0.1423
11131SOL     OW44321   9.282   6.611   0.790  0.2996 -0.7305  0.1590
11131SOL    HW144322   9.219   6.614   0.868  0.2100  0.1331  0.0562
11131SOL    HW244323   9.271   6.525   0.742 -0.2160 -0.9315  0.6291
11132SOL     OW44324   9.730   6.872   1.255 -0.4937 -0.3398 -0.2061
11132SOL    HW144325   9.824   6.905   1.244 -0.4642 -0.0438  0.9203
11132SOL    HW244326   9.693   6.848   1.165  0.1826  0.8430 -0.8054
11133SOL     OW44327   0.278   0.415   3.428 -0.0190  0.3718 -0.2886
11133SOL    HW144328   0.344   0.347   3.461 -0.4610 -0.5459 -1.2521
11133SOL    HW244329   0.186   0.390   3.457 -0.1100  0.9304 -0.0814
11134SOL     OW44330   6.702   1.316   3.635  1.0065  0.1989  0.4802
11134SOL    HW144331   6.614   1.362   3.645  0.8629 -0.0164  0.2294
11134SOL    HW244332   6.759   1.366   3.570  0.7350 -0.1370 -0.0257
11135SOL     OW44333   3.416   4.391   1.637 -0.2628 -0.6929 -0.1350
11135SOL    HW144334   3.466   4.443   1.567 -0.1547 -1.4813 -0.6536
11135SOL    HW244335   3.328   4.435   1.654  0.3284  0.3382  0.3156
11136SOL     OW44336   9.354   3.097   1.770  0.4286 -0.0899 -0.3260
11136SOL    HW144337   9.312   3.112   1.680  0.0304 -1.9621 -0.4669
11136SOL    HW244338   9.342   3.002   1.797  0.9947  0.3382  1.4979
11137SOL     OW44339   4.336   4.512   3.589  0.2145 -0.0416 -0.0787
11137SOL    HW144340   4.390   4.594   3.568  0.2241 -0.7295 -2.9275
11137SOL    HW244341   4.372   4.434   3.538  0.0188 -1.8127  2.3574
11138SOL     OW44342   9.087   3.628   2.911 -0.2577 -0.5097 -0.2589
11138SOL    HW144343   9.076   3.630   3.010 -2.1132  1.2599 -0.4855
11138SOL    HW244344   9.174   3.672   2.886  0.0956 -0.7378  0.5571
11139SOL     OW44345   0.564   9.849   5.036 -0.0459 -0.3138 -0.0159
11139SOL    HW144346   0.468   9.828   5.021 -0.2702  1.2583 -0.9208
11139SOL    HW244347   0.602   9.788   5.106 -2.4462  0.8681  2.4313
11140SOL     OW44348   9.815   2.753   0.969  0.0682  0.2462 -0.0226
11140SOL    HW144349   9.869   2.751   0.885  1.5886 -3.1851  0.9775
11140SOL    HW244350   9.876   2.760   1.048 -1.1413 -0.3318  0.9779
11141SOL     OW44351   2.727   7.363   6.619  0.1537 -0.0485 -0.1638
11141SOL    HW144352   2.826   7.366   6.637 -0.2253 -1.1344  2.2741
11141SOL    HW244353   2.707   7.289   6.556  0.5155 -2.3096  2.3113
11142SOL     OW44354   9.374   4.403   1.287  0.1853  0.2084 -0.3904
11142SOL    HW144355   9.307   4.429   1.218 -1.2241 -0.8901  0.5266
11142SOL    HW244356   9.400   4.307   1.273  0.6970  0.2910 -0.0303
11143SOL     OW44357   3.313   0.331   1.180  0.3463  0.4702  0.0106
11143SOL    HW144358   3.287   0.237   1.203  0.7202  0.2893 -0.3043
11143SOL    HW244359   3.261   0.394   1.237 -0.3627  0.0933 -0.2063
11144SOL     OW44360   4.233   5.435   1.901  0.3900 -0.2443 -0.0656
11144SOL    HW144361   4.294   5.405   1.828 -0.9403  0.0431 -1.3130
11144SOL    HW244362   4.163   5.496   1.864  0.5844  1.1223  1.7141
11145SOL     OW44363   5.069   8.785   4.893 -0.2236 -0.7051 -0.5117
11145SOL    HW144364   5.034   8.718   4.828  0.8408 -0.5367 -1.2894
11145SOL    HW244365   5.000   8.855   4.909 -0.6058 -0.9013 -1.2542
11146SOL     OW44366   9.699   5.618   3.883 -0.0145  0.0072  0.3515
11146SOL    HW144367   9.735   5.576   3.800 -0.8362 -1.2159  0.6037
11146SOL    HW244368   9.774   5.660   3.934  0.4356  1.1018 -1.1882
11147SOL     OW44369   4.776   5.881   1.492 -0.8653 -0.0982  0.4023
11147SOL    HW144370   4.761   5.826   1.575 -0.4233  0.3607  0.7911
11147SOL    HW244371   4.691   5.886   1.440 -0.6096 -2.1400 -0.2534
11148SOL     OW44372   3.833   0.921   1.351 -0.1995 -0.5453  0.0833
11148SOL    HW144373   3.768   0.884   1.418  0.1368  0.7865  1.1791
11148SOL    HW244374   3.782   0.960   1.274 -0.6667 -0.6378  0.3386
11149SOL     OW44375   3.878   9.317   2.568 -0.9501  0.5603 -0.5619
11149SOL    HW144376   3.933   9.314   2.652 -1.1113  0.6770 -0.4517
11149SOL    HW244377   3.861   9.412   2.542 -0.0578  0.5300 -1.2821
11150SOL     OW44378   1.433   7.434   3.311  0.0275 -0.4501  0.1689
11150SOL    HW144379   1.508   7.372   3.287 -0.5428 -1.2522  0.4276
11150SOL    HW244380   1.457   7.484   3.394  0.7329  0.1072 -0.3612
11151SOL     OW44381   7.539   0.011   3.606  0.0007 -0.3450  0.1168
11151SOL    HW144382   7.603   0.081   3.639  1.2536 -1.9261  1.1393
11151SOL    HW244383   7.587  -0.052   3.546 -0.8844 -0.8704 -0.0489
11152SOL     OW44384   1.041   0.976   0.993  0.5216  0.1098  0.2424
11152SOL    HW144385   0.995   1.063   0.977  0.4171  0.2786  1.4705
11152SOL    HW244386   0.974   0.903   1.003  0.5411  0.2094  1.1396
11153SOL     OW44387   3.365   0.556   2.508 -0.0785 -0.8256  0.0691
11153SOL    HW144388   3.461   0.582   2.499 -0.2178 -1.2971 -3.1527
11153SOL    HW244389   3.311   0.638   2.529  0.5782  0.0639 -1.6011
11154SOL     OW44390   2.907   9.513   2.981  0.3691  0.6778 -0.6121
11154SOL    HW144391   2.880   9.537   2.888 -1.3131  1.3051  0.0281
11154SOL    HW244392   2.964   9.586   3.019  0.6687  0.6337 -0.9735
11155SOL     OW44393   1.519   8.596   1.406 -0.2366  0.2045  0.0459
11155SOL    HW144394   1.517   8.656   1.326 -0.6194 -0.5558 -0.5225
11155SOL    HW244395   1.495   8.503   1.378 -1.9145  0.2280  1.2991
11156SOL     OW44396   2.876   1.812   1.117  0.0387  0.1481 -0.2436
11156SOL    HW144397   2.789   1.773   1.087  0.0927 -0.6062  0.5770
11156SOL    HW244398   2.905   1.882   1.051 -2.7104  2.6388  1.0561
11157SOL     OW44399   2.873   5.032   1.317 -0.2416  0.5933  0.3194
11157SOL    HW144400   2.840   4.966   1.249 -1.9437 -0.2430  1.9201
11157SOL    HW244401   2.958   4.999   1.358 -0.9693 -0.4945  0.9539
11158SOL     OW44402   0.732   4.530   1.722 -0.0185 -0.2866 -0.3038
11158SOL    HW144403   0.675   4.452   1.696 -2.6246  0.8379  1.6814
11158SOL    HW244404   0.687   4.615   1.693  1.3031  0.5911  0.1670
11159SOL     OW44405   3.727   2.456   1.632 -0.4010 -0.1279  0.1693
11159SOL    HW144406   3.804   2.518   1.643 -1.3311  1.0307  0.2936
11159SOL    HW244407   3.728   2.417   1.540  0.5155 -0.3799  0.2877
11160SOL     OW44408   9.778   2.980   5.336  0.1484 -0.4340  0.1784
11160SOL    HW144409   9.812   3.063   5.382 -0.8118 -0.5301  1.0851
11160SOL    HW244410   9.845   2.906   5.347 -0.2742 -0.5855  1.8188
11161SOL     OW44411   2.174   1.258   1.453 -0.2248  0.0487 -0.0661
11161SOL    HW144412   2.119   1.175   1.443  1.1765 -0.9095 -0.0715
11161SOL    HW244413   2.121   1.329   1.499 -1.2400 -1.0666  0.4935
11162SOL     OW44414   0.851   7.767   6.003  0.0893 -0.4131 -0.3468
11162SOL    HW144415   0.803   7.796   5.920 -0.3218 -2.4689 -0.8762
11162SOL    HW244416   0.948   7.758   5.984  0.2697  0.9717 -0.0752
11163SOL     OW44417   1.993   7.776   1.107  0.7796 -0.7584  0.2186
11163SOL    HW144418   1.991   7.698   1.045  4.5973 -1.5985  1.0327
11163SOL    HW244419   1.946   7.752   1.192 -0.0608 -1.3555 -0.4069
11164SOL     OW44420   3.614   6.332   3.481 -0.2917 -0.3845 -0.3642
11164SOL    HW144421   3.612   6.232   3.471 -3.9223 -0.7289  2.5769
11164SOL    HW244422   3.663   6.356   3.565 -3.5900 -0.0945  1.5650
11165SOL     OW44423   9.779   6.164   1.212 -0.4208 -0.2910 -0.2292
11165SOL    HW144424   9.720   6.230   1.165 -0.5513 -0.3899 -0.2002
11165SOL    HW244425   9.726   6.109   1.276 -0.2796 -0.3055 -0.1223
11166SOL     OW44426   5.219   8.659   2.963 -0.3619 -0.1629  0.1201
11166SOL    HW144427   5.263   8.593   3.024  0.8452 -0.4416 -1.0460
11166SOL    HW244428   5.202   8.744   3.014 -0.3846 -0.7782  1.1577
11167SOL     OW44429   2.469   3.581   1.498  0.2362 -0.0849  0.6523
11167SOL    HW144430   2.396   3.622   1.444  1.6704  1.1588 -0.3953
11167SOL    HW244431   2.484   3.486   1.468  0.9981  0.5867 -1.1145
11168SOL     OW44432   2.469   6.524   0.657 -0.3309  0.3859  0.0526
11168SOL    HW144433   2.462   6.498   0.560 -0.2518  0.2837  0.0737
11168SOL    HW244434   2.455   6.622   0.666  1.6040  0.7166 -0.2868
11169SOL     OW44435   9.731   0.209   1.886 -0.0675 -0.1580  0.1477
11169SOL    HW144436   9.650   0.224   1.943  0.7080 -0.6448  1.4032
11169SOL    HW244437   9.704   0.203   1.790 -1.5320 -0.4074  0.5654
11170SOL     OW44438   9.473   7.739   6.572  0.1224 -0.3992 -0.0139
11170SOL    HW144439   9.569   7.740   6.544  0.4438  1.1678  1.0646
11170SOL    HW244440   9.466   7.763   6.669 -1.3225 -1.1153  0.0807
11171SOL     OW44441   5.114   6.311   1.540  0.4131 -0.3021  0.1416
11171SOL    HW144442   5.056   6.230   1.547 -1.1007  0.7453 -0.1909
11171SOL    HW244443   5.207   6.288   1.570 -0.3434 -1.7784  1.4015
11172SOL     OW44444   2.957   7.654   3.424  0.2674  0.0263  0.1611
11172SOL    HW144445   2.878   7.690   3.376  1.6376 -0.6767 -2.7365
11172SOL    HW244446   3.025   7.727   3.436 -0.5181  0.4743  2.0861
11173SOL     OW44447   7.132   3.146   0.847  0.1952 -0.2418 -0.2521
11173SOL    HW144448   7.080   3.192   0.919  0.4707 -0.4993  0.1093
11173SOL    HW244449   7.193   3.078   0.887  1.4795  0.6873 -0.5978
11174SOL     OW44450   8.093   2.116   3.346  0.0263 -0.0596 -0.3217
11174SOL    HW144451   8.135   2.042   3.292 -0.5022 -0.6504  0.0677
11174SOL    HW244452   8.124   2.108   3.441 -0.8190 -0.3769 -0.0750
11175SOL     OW44453   3.556   9.307   3.984 -0.6818 -0.3699 -0.3581
11175SOL    HW144454   3.567   9.210   3.960  0.7054 -0.7826  1.7953
11175SOL    HW244455   3.642   9.354   3.970 -1.9763  1.1792 -3.7774
11176SOL     OW44456   8.601   1.417   0.595 -0.2382  0.6555  0.0779
11176SOL    HW144457   8.520   1.470   0.620 -0.4940  0.0283  0.5786
11176SOL    HW244458   8.605   1.407   0.495 -0.8557  0.5755  0.0595
11177SOL     OW44459   5.512   8.796   1.944  0.4005  0.2867  0.1024
11177SOL    HW144460   5.513   8.882   1.893  0.7283  0.6015  0.6443
11177SOL    HW244461   5.544   8.722   1.884 -1.1173  0.3068 -0.7677
11178SOL     OW44462   0.183   0.303   3.184 -0.1971  0.2818 -0.3305
11178SOL    HW144463   0.108   0.242   3.211  2.1464 -1.6368  2.0786
11178SOL    HW244464   0.194   0.374   3.254  1.3741 -0.5531  0.3081
11179SOL     OW44465   7.366   7.326   4.989 -0.3355 -0.0235  0.3240
11179SOL    HW144466   7.412   7.413   4.969 -0.9573  0.1506 -0.3551
11179SOL    HW244467   7.403   7.288   5.074  1.4291 -0.1382 -0.4664
11180SOL     OW44468   2.728   0.476   3.877  0.2571  0.4144 -0.0203
11180SOL    HW144469   2.636   0.451   3.847  0.0950 -0.7643  1.3869
11180SOL    HW244470   2.726   0.506   3.972  1.3610  0.0491  0.1321
11181SOL     OW44471   6.888   1.485   2.376  0.2177  0.1416  1.0268
11181SOL    HW144472   6.927   1.415   2.316  0.3698 -0.2230  1.5407
11181SOL    HW244473   6.953   1.560   2.388  0.5319 -0.1873  1.4111
11182SOL     OW44474   8.311   7.713   1.687 -0.1387  0.0962  0.0940
11182SOL    HW144475   8.310   7.715   1.587 -2.9646  2.0431  0.1035
11182SOL    HW244476   8.251   7.639   1.719  0.4767 -0.2875  0.3784
11183SOL     OW44477   8.217   3.097   0.487  0.2163 -0.2902  0.3312
11183SOL    HW144478   8.283   3.022   0.490 -0.8872 -1.2798  0.2666
11183SOL    HW244479   8.208   3.129   0.393  1.6576  0.8244  0.5467
11184SOL     OW44480   5.333   0.480   0.647 -0.2826  0.3909 -0.4050
11184SOL    HW144481   5.312   0.452   0.554  1.2714  1.2449 -1.0342
11184SOL    HW244482   5.430   0.466   0.665 -0.2388  1.7689  0.5269
11185SOL     OW44483   8.403   9.042   1.942  0.3148 -0.1771 -0.0822
11185SOL    HW144484   8.423   8.955   1.896  0.5786  0.1918 -0.6701
11185SOL    HW244485   8.410   9.117   1.877 -1.5300  0.1286  0.0544
11186SOL     OW44486   1.458   5.183   5.770  0.1958 -0.1776  0.0619
11186SOL    HW144487   1.476   5.205   5.866 -0.6065  0.3016  0.1044
11186SOL    HW244488   1.534   5.129   5.734 -0.0887 -1.4314  1.3172
11187SOL     OW44489   2.602   7.289   3.495  0.5330 -0.1674  0.1448
11187SOL    HW144490   2.683   7.343   3.470  1.3818 -1.0439  0.9993
11187SOL    HW244491   2.574   7.234   3.417  2.2625 -1.7363  0.5863
11188SOL     OW44492   9.163   5.992   4.164 -0.5453  0.1512  0.0329
11188SOL    HW144493   9.067   5.992   4.191 -0.3984  0.6653  0.5469
11188SOL    HW244494   9.214   5.931   4.224 -0.2939  0.9806  0.6664
11189SOL     OW44495   1.203   2.782   0.362  0.0745  0.0762  0.6451
11189SOL    HW144496   1.147   2.863   0.374  0.0172  0.3724 -1.5056
11189SOL    HW244497   1.295   2.809   0.332 -0.2449 -0.6782 -1.0854
11190SOL     OW44498   0.895   4.575   1.337  0.0618  0.2803 -0.4150
11190SOL    HW144499   0.990   4.553   1.358 -0.4041 -0.4435  1.0044
11190SOL    HW244500   0.872   4.539   1.246  0.8591 -0.4114 -0.3505
11191SOL     OW44501   0.032   3.111   3.449 -0.4463  0.8037 -0.3518
11191SOL    HW144502   0.088   3.119   3.531  0.7233  1.1896 -1.1692
11191SOL    HW244503  -0.063   3.129   3.471  0.0185  2.0336  0.7060
11192SOL     OW44504   1.789   6.923   1.801 -0.0269 -0.4804  0.2660
11192SOL    HW144505   1.824   6.831   1.821 -0.5395 -1.3136 -2.4558
11192SOL    HW244506   1.853   6.970   1.740 -0.1433  0.7052  1.0484
11193SOL     OW44507   6.121   7.330   3.255 -0.0747  0.0664 -0.5362
11193SOL    HW144508   6.126   7.429   3.269  0.7162 -0.0199 -0.2098
11193SOL    HW244509   6.203   7.299   3.207  0.2465 -0.6100  0.4412
11194SOL     OW44510   7.799   8.218   2.664  0.0076 -0.3587 -0.1193
11194SOL    HW144511   7.733   8.143   2.667 -0.5699  0.1413 -0.0543
11194SOL    HW244512   7.754   8.300   2.627 -0.2487  0.8086  2.5976
11195SOL     OW44513   9.849   6.438   2.964 -0.1085  0.2311  0.1551
11195SOL    HW144514   9.832   6.535   2.953 -0.7575  0.3271  1.8302
11195SOL    HW244515   9.923   6.424   3.031  0.4266 -0.4074 -0.5613
11196SOL     OW44516   2.293   5.694   1.893 -0.1269 -0.2543  0.1877
11196SOL    HW144517   2.361   5.697   1.820 -1.2921 -2.6797 -1.0783
11196SOL    HW244518   2.315   5.762   1.962  3.2402 -0.5868 -0.4662
11197SOL     OW44519   2.274   8.213   4.611  0.1724 -0.3540  0.1659
11197SOL    HW144520   2.305   8.207   4.706 -0.5295 -0.9638  0.3630
11197SOL    HW244521   2.353   8.221   4.550  0.6673 -0.8426  0.7346
11198SOL     OW44522   2.349   5.761   3.859 -0.2575 -0.4997  0.8376
11198SOL    HW144523   2.398   5.674   3.865  1.1207  0.0972 -1.2875
11198SOL    HW244524   2.413   5.836   3.876 -1.0237  0.1705  0.7610
11199SOL     OW44525   0.048   1.380   2.590 -0.0263 -0.2658 -0.0561
11199SOL    HW144526   0.093   1.343   2.672 -0.7488 -0.0375  0.4444
11199SOL    HW244527   0.025   1.305   2.528  0.9818 -0.3943 -0.2867
11200SOL     OW44528   5.341   1.565   4.527  0.3176  0.0996  0.0115
11200SOL    HW144529   5.305   1.484   4.481 -0.6038  0.2853  0.3950
11200SOL    HW244530   5.418   1.540   4.585  1.2767 -0.1960 -1.3625
11201SOL     OW44531   6.430   9.918   4.955 -0.3017 -0.2234 -0.5727
11201SOL    HW144532   6.381   9.852   4.898 -0.2301  0.9343 -1.9996
11201SOL    HW244533   6.496   9.968   4.899  2.0034 -1.1952  1.1329
11202SOL     OW44534   5.601   0.429   0.775 -0.2400 -0.0118 -0.4045
11202SOL    HW144535   5.680   0.466   0.727 -0.3861  1.6082  0.5661
11202SOL    HW244536   5.628   0.350   0.830  1.1138  1.6524  1.3987
11203SOL     OW44537   5.192   0.832   3.534 -0.2032  0.7005  0.0196
11203SOL    HW144538   5.111   0.826   3.476  1.2001 -0.6425 -1.8440
11203SOL    HW244539   5.192   0.757   3.600 -0.4419  0.6606 -0.0249
11204SOL     OW44540   9.313   3.208   3.902 -0.6246 -0.2951 -0.0625
11204SOL    HW144541   9.322   3.250   3.992 -0.7828 -0.5333  0.0618
11204SOL    HW244542   9.329   3.110   3.908 -0.8186 -0.3398 -0.2648
11205SOL     OW44543   7.284   8.781   2.055  0.2434 -0.1232 -0.3688
11205SOL    HW144544   7.351   8.851   2.079 -0.1170  0.6447 -1.4975
11205SOL    HW244545   7.316   8.731   1.974  1.1968 -2.2957  1.3028
11206SOL     OW44546   6.786   0.496   0.398 -0.4164 -0.3106 -0.5199
11206SOL    HW144547   6.852   0.428   0.430  1.3229  1.2068 -0.8387
11206SOL    HW244548   6.789   0.576   0.457 -0.9908  0.3400 -1.3615
11207SOL     OW44549   8.768   3.247   3.216  0.4845 -0.2763 -0.1462
11207SOL    HW144550   8.720   3.174   3.168  0.3534 -0.6166  0.5061
11207SOL    HW244551   8.866   3.226   3.219  0.1157 -1.8008  2.4599
11208SOL     OW44552   0.219   7.020   6.136  0.6849  0.3182 -0.2981
11208SOL    HW144553   0.144   7.016   6.069  0.8960  0.3145 -0.5324
11208SOL    HW244554   0.240   7.115   6.157  0.7302  0.3204 -0.3574
11209SOL     OW44555   3.086   1.125   3.258  0.4906  0.3478  0.0797
11209SOL    HW144556   3.023   1.073   3.315  0.9090 -0.1206  0.1213
11209SOL    HW244557   3.050   1.217   3.244  0.6243  0.6387  1.5332
11210SOL     OW44558   4.507   8.348   2.224 -0.0244 -0.0596  0.2194
11210SOL    HW144559   4.511   8.255   2.188 -2.9987 -0.5793  1.1864
11210SOL    HW244560   4.523   8.347   2.322 -0.6122  0.4008  0.3212
11211SOL     OW44561   9.467   5.205   0.331  0.1502  0.0343 -0.3072
11211SOL    HW144562   9.521   5.164   0.404  0.2854 -0.4278 -0.6669
11211SOL    HW244563   9.480   5.154   0.247 -1.6252 -0.6957 -0.1697
11212SOL     OW44564   7.417   2.283   4.406  0.2839  0.0645 -0.1318
11212SOL    HW144565   7.383   2.258   4.496 -0.7425  2.6486  0.2347
11212SOL    HW244566   7.510   2.247   4.394  0.1867 -0.8355  1.6710
11213SOL     OW44567   1.827   4.141   3.656  0.4582 -0.4125  0.4001
11213SOL    HW144568   1.857   4.236   3.642 -2.6923  0.2512 -2.4820
11213SOL    HW244569   1.792   4.131   3.748  1.3826  1.0463  0.9324
11214SOL     OW44570   6.874   3.837   0.396 -0.0244  0.2173  0.2556
11214SOL    HW144571   6.918   3.914   0.350  1.6114 -1.1096 -0.4653
11214SOL    HW244572   6.779   3.829   0.365  0.2053  1.0907 -0.6940
11215SOL     OW44573   3.861   6.848   2.855 -0.3317 -0.0752  0.2294
11215SOL    HW144574   3.887   6.808   2.767  0.1544  0.8269 -0.0353
11215SOL    HW244575   3.776   6.806   2.886 -0.6606 -0.1915 -0.8046
11216SOL     OW44576   7.746   9.862   3.534 -0.0740  0.1080  0.2579
11216SOL    HW144577   7.831   9.913   3.550 -1.0031  1.8729 -0.2655
11216SOL    HW244578   7.753   9.771   3.575  0.9768  1.2724  2.7028
11217SOL     OW44579   7.463   8.317   5.408 -0.4656 -0.3649 -0.1404
11217SOL    HW144580   7.410   8.369   5.475  2.3022  0.6500  1.3840
11217SOL    HW244581   7.506   8.381   5.343  0.3266 -0.9840 -0.2396
11218SOL     OW44582   5.516   3.344   0.952 -0.4728 -0.0693  0.0065
11218SOL    HW144583   5.420   3.366   0.966 -0.7303 -0.0415 -1.6929
11218SOL    HW244584   5.562   3.419   0.905  0.1481 -0.4893 -0.0749
11219SOL     OW44585   3.221   0.238   3.729  0.3764 -0.1350 -0.2877
11219SOL    HW144586   3.251   0.235   3.824  0.3335 -0.7906 -0.2945
11219SOL    HW244587   3.281   0.299   3.677  0.5711  0.0035  0.0958
11220SOL     OW44588   4.408   6.128   0.193  0.1820  0.3031 -0.3815
11220SOL    HW144589   4.386   6.191   0.268 -0.0777  0.3447 -0.4932
11220SOL    HW244590   4.409   6.178   0.107  0.0587  0.1712 -0.4598
11221SOL     OW44591   3.469   9.310   3.353  0.0873 -0.5542 -0.2776
11221SOL    HW144592   3.565   9.312   3.325  0.6054 -1.2825  1.3805
11221SOL    HW244593   3.441   9.216   3.373 -1.6457 -0.6435 -2.9251
11222SOL     OW44594   1.288   5.481   5.745  0.0021  0.0175 -0.1468
11222SOL    HW144595   1.216   5.439   5.691 -0.7812 -0.7338  1.4308
11222SOL    HW244596   1.284   5.445   5.839  0.8737  1.8006  0.5966
11223SOL     OW44597   1.933   5.703   2.723  0.0837 -0.4403  0.5101
11223SOL    HW144598   1.913   5.651   2.807 -0.7291  0.3466  0.8057
11223SOL    HW244599   1.852   5.705   2.665 -0.1254  1.1464  0.8433
11224SOL     OW44600   2.051   6.485   5.689 -0.0250 -0.2402 -0.3727
11224SOL    HW144601   2.011   6.395   5.676  0.7016 -1.0469  2.5586
11224SOL    HW244602   1.980   6.548   5.721  0.2073 -0.6885  1.0481
11225SOL     OW44603   0.807   0.717   2.874  0.3027 -0.5878  0.4993
11225SOL    HW144604   0.870   0.655   2.921  0.5811 -1.0982 -0.5268
11225SOL    HW244605   0.860   0.782   2.818 -0.0203  0.0136  0.8968
11226SOL     OW44606   7.588   6.784   3.005  0.1736 -0.0218  0.0794
11226SOL    HW144607   7.677   6.781   3.050  0.8648 -0.1537 -1.2979
11226SOL    HW244608   7.600   6.789   2.906 -1.3550 -2.0805 -0.2370
11227SOL     OW44609   9.155   3.001   2.938 -0.3630  0.5265 -0.1900
11227SOL    HW144610   9.219   2.954   2.998 -1.6894 -2.9267 -1.3001
11227SOL    HW244611   9.181   2.985   2.843 -1.6146  0.8789 -0.6111
11228SOL     OW44612   1.142   8.400   0.651 -0.3866  0.7225 -0.6181
11228SOL    HW144613   1.109   8.427   0.742  1.5612  0.8402  0.0691
11228SOL    HW244614   1.103   8.462   0.583 -1.3766  1.0202  0.1950
11229SOL     OW44615   6.984   0.291   5.620 -0.2499  0.7431 -0.0278
11229SOL    HW144616   6.943   0.274   5.530 -2.0818  2.0819  0.5367
11229SOL    HW244617   7.053   0.363   5.611  0.5765 -0.0973 -0.5980
11230SOL     OW44618   0.623   6.605   1.719 -0.1735 -0.2368  0.8098
11230SOL    HW144619   0.580   6.523   1.680  0.9165  0.6433 -2.3857
11230SOL    HW244620   0.713   6.581   1.755  0.1829 -0.4208 -0.2072
11231SOL     OW44621   3.460   4.943   2.396 -0.1577 -0.5181  0.7950
11231SOL    HW144622   3.461   5.028   2.449  2.0903 -1.7574  2.8547
11231SOL    HW244623   3.426   4.868   2.453 -0.9708 -1.2383 -0.6104
11232SOL     OW44624   1.793   4.671   1.375  0.0089 -0.2205 -0.8785
11232SOL    HW144625   1.720   4.696   1.310 -0.5504 -0.2058 -0.2514
11232SOL    HW244626   1.870   4.733   1.364  0.4274 -0.9697 -2.3770
11233SOL     OW44627   8.031   1.363   5.654  0.1862 -0.2115 -0.1369
11233SOL    HW144628   8.062   1.277   5.615  0.5629 -0.4077  0.5767
11233SOL    HW244629   8.044   1.437   5.588  4.2524  0.0968  0.8934
11234SOL     OW44630   3.635   5.417   5.597  0.5595 -0.5162 -1.0553
11234SOL    HW144631   3.628   5.484   5.523 -0.0238  1.4451  0.6946
11234SOL    HW244632   3.726   5.421   5.638 -0.3303  1.3035  0.8787
11235SOL     OW44633   0.149   9.113   3.638 -0.4745 -0.1389 -0.0358
11235SOL    HW144634   0.055   9.082   3.624 -0.8895  0.2900  1.7400
11235SOL    HW244635   0.162   9.200   3.590 -0.1564 -1.5261 -2.5730
11236SOL     OW44636   4.641   9.557   2.817  0.0795 -0.2339  0.7791
11236SOL    HW144637   4.601   9.637   2.860 -0.0238  0.8902 -1.3575
11236SOL    HW244638   4.741   9.564   2.820  0.0786  0.6487 -0.5514
11237SOL     OW44639   7.021   0.890   1.801 -0.4757  0.0664  0.5636
11237SOL    HW144640   7.057   0.928   1.716  0.0380 -1.1959  0.2015
11237SOL    HW244641   6.922   0.881   1.795 -0.5745  1.1020  0.5641
11238SOL     OW44642   6.527   1.014   5.442  0.5790  0.4222 -0.0924
11238SOL    HW144643   6.487   0.953   5.510  1.7467  1.7622  1.8337
11238SOL    HW244644   6.597   1.071   5.485  2.8362 -0.1573 -2.8300
11239SOL     OW44645   4.387   4.209   3.323  0.3006  0.5642 -0.5809
11239SOL    HW144646   4.300   4.169   3.349  0.4440  1.7003  1.7485
11239SOL    HW244647   4.448   4.212   3.402  1.6767  1.7776 -1.6535
11240SOL     OW44648   0.870   5.446   0.267  0.0493  0.5242  0.1567
11240SOL    HW144649   0.903   5.522   0.212  0.0950  1.1425  1.0246
11240SOL    HW244650   0.823   5.482   0.348 -1.4980 -0.3381 -0.3239
11241SOL     OW44651   1.219   2.087   3.450 -0.6619  0.2489 -0.1096
11241SOL    HW144652   1.271   2.024   3.507 -1.6120 -0.9562 -0.5537
11241SOL    HW244653   1.163   2.146   3.508  1.4600  1.8519  0.4027
11242SOL     OW44654   9.697   1.354   0.529 -0.1298 -0.5335  0.6701
11242SOL    HW144655   9.695   1.441   0.579  0.1707 -0.7588  1.0787
11242SOL    HW244656   9.615   1.346   0.473  0.2103  0.3643  0.0261
11243SOL     OW44657   3.979   8.008   1.535  0.1924  0.4137  0.7538
11243SOL    HW144658   4.032   8.083   1.495 -1.4349  0.2925 -1.7325
11243SOL    HW244659   3.886   8.010   1.499  0.1687 -2.9438  0.4532
11244SOL     OW44660   1.759   2.960   3.693 -0.2423 -0.0766  0.3741
11244SOL    HW144661   1.815   3.039   3.721  1.7271 -0.4393 -2.3183
11244SOL    HW244662   1.662   2.984   3.700  0.3010  2.1391  0.8476
11245SOL     OW44663   5.246   8.764   3.938  0.2154 -0.1238  0.3916
11245SOL    HW144664   5.198   8.839   3.983  2.2579  0.9919  0.7983
11245SOL    HW244665   5.338   8.756   3.976  0.8805 -1.2334 -1.3823
11246SOL     OW44666   5.115   0.441   2.003 -0.3283  0.2770 -0.2837
11246SOL    HW144667   5.200   0.390   2.011 -0.1949  0.0045 -3.0152
11246SOL    HW244668   5.134   0.539   2.002 -0.2319  0.2755  1.0486
11247SOL     OW44669   7.984   0.917   2.340 -0.1120  0.4549  0.0946
11247SOL    HW144670   7.884   0.914   2.352  0.0835 -1.4032  1.3398
11247SOL    HW244671   8.027   0.947   2.425  0.4780 -0.0563 -0.0255
11248SOL     OW44672   8.292   9.006   5.345  0.0880  0.6689  0.3171
11248SOL    HW144673   8.286   9.106   5.348  0.2625  0.6862  0.1343
11248SOL    HW244674   8.200   8.967   5.342  0.0435  0.8747 -1.2394
11249SOL     OW44675   8.717   5.470   3.838 -0.4987  0.3107 -0.4647
11249SOL    HW144676   8.689   5.565   3.851 -1.8623 -0.3251  1.4465
11249SOL    HW244677   8.808   5.456   3.877 -1.2357  0.3175  1.2803
11250SOL     OW44678   2.594   6.507   1.057  0.3575 -0.7190  0.4897
11250SOL    HW144679   2.578   6.477   1.151 -1.0412 -0.6354  0.2945
11250SOL    HW244680   2.591   6.429   0.995  0.7716 -0.7068  0.4512
11251SOL     OW44681   2.668   8.489   1.819  0.3363 -0.7484 -0.2792
11251SOL    HW144682   2.669   8.403   1.768  0.3889  0.0507 -1.6521
11251SOL    HW244683   2.725   8.480   1.900 -1.6534 -2.8097  0.9459
11252SOL     OW44684   2.026   9.531   2.677  0.3970 -0.2461  0.2492
11252SOL    HW144685   1.938   9.508   2.719  0.1550 -0.5136 -0.3990
11252SOL    HW244686   2.030   9.492   2.585  2.0467 -2.0517  1.0594
11253SOL     OW44687   4.597   8.623   4.584  0.0279 -0.8736 -0.1264
11253SOL    HW144688   4.626   8.559   4.655  0.0845 -0.4305  0.2490
11253SOL    HW244689   4.653   8.705   4.588 -2.2824  0.6868  1.6626
11254SOL     OW44690   7.829   9.980   6.087 -0.2924 -0.1032 -0.2014
11254SOL    HW144691   7.787   9.922   6.017  0.2188 -1.6310  0.7242
11254SOL    HW244692   7.778   9.971   6.173  0.5092 -0.1214  0.2802
11255SOL     OW44693   9.943   6.526   4.105 -0.2875 -0.1068  0.4737
11255SOL    HW144694   9.936   6.610   4.160  0.2152 -0.1919  0.6673
11255SOL    HW244695   9.951   6.551   4.008  1.1802  0.1085  0.6435
11256SOL     OW44696   2.168   6.547   5.098  0.3453  0.2063 -0.1926
11256SOL    HW144697   2.151   6.645   5.085  0.5580  0.1997 -0.5196
11256SOL    HW244698   2.098   6.495   5.050  0.0799  0.1972  0.1956
11257SOL     OW44699   8.688   8.337   3.792 -0.4244 -0.4459 -0.1026
11257SOL    HW144700   8.708   8.276   3.715  1.6559  0.0375  0.0102
11257SOL    HW244701   8.691   8.286   3.878  1.1244 -0.2618 -0.0259
11258SOL     OW44702   5.933   4.634   1.075 -0.5734  0.0121 -0.1247
11258SOL    HW144703   5.857   4.577   1.045 -0.6029  0.0908 -0.1997
11258SOL    HW244704   5.939   4.632   1.174 -0.3131 -0.4620 -0.1458
11259SOL     OW44705   9.319   0.588   2.054  0.0786 -0.4390  0.4200
11259SOL    HW144706   9.366   0.675   2.069 -0.3024 -0.3340  1.0568
11259SOL    HW244707   9.251   0.599   1.981  1.1546 -0.6362 -0.6170
11260SOL     OW44708   2.841   3.910   2.278 -0.2539 -0.2815 -1.0881
11260SOL    HW144709   2.925   3.858   2.295  0.1567  0.3979 -1.0035
11260SOL    HW244710   2.766   3.847   2.261  0.8686 -0.9025 -4.0977
11261SOL     OW44711   4.982   0.465   1.747  0.2630  0.3592 -0.1210
11261SOL    HW144712   5.026   0.502   1.829 -1.5246  0.2121  0.9498
11261SOL    HW244713   5.002   0.367   1.739 -0.0640  0.2368  0.5100
11262SOL     OW44714   4.386   1.565   1.820 -0.2809 -0.8232  0.2893
11262SOL    HW144715   4.425   1.475   1.800  0.3607 -0.7833  1.3598
11262SOL    HW244716   4.426   1.633   1.757  1.2896 -0.8072  1.2871
11263SOL     OW44717   1.096   6.149   2.762 -0.3010 -0.2612  0.0647
11263SOL    HW144718   1.013   6.151   2.707 -0.0649  0.5403 -0.2582
11263SOL    HW244719   1.108   6.237   2.808  1.2734  0.2071 -1.2239
11264SOL     OW44720   5.081   4.309   0.638 -0.1948 -0.0632 -0.7272
11264SOL    HW144721   5.097   4.294   0.541  1.6208  0.2535 -0.4815
11264SOL    HW244722   5.110   4.401   0.664  1.6544 -0.9711  0.5891
11265SOL     OW44723   4.166   8.778   3.825 -0.4402  0.7811  0.3808
11265SOL    HW144724   4.189   8.716   3.750 -0.7559 -0.0036  0.9293
11265SOL    HW244725   4.098   8.844   3.794  2.1675  2.8722 -1.1429
11266SOL     OW44726   9.012   2.957   0.268 -0.3237  0.4945 -0.2071
11266SOL    HW144727   9.008   2.875   0.326 -1.1063  1.1385  0.6583
11266SOL    HW244728   9.097   2.956   0.216  0.1516 -0.3615  0.5595
11267SOL     OW44729   0.328   3.773   2.004 -0.3698 -0.1864 -0.3030
11267SOL    HW144730   0.345   3.870   1.986  0.9693 -0.3371  0.0986
11267SOL    HW244731   0.412   3.721   1.986 -0.4908 -1.0057  1.3985
11268SOL     OW44732   2.392   7.149   4.240  0.1558 -0.4060 -0.4569
11268SOL    HW144733   2.431   7.223   4.294 -0.4022  0.7110 -1.5782
11268SOL    HW244734   2.368   7.073   4.301 -0.3677  0.7761  0.8502
11269SOL     OW44735   3.564   9.957   2.472 -0.2095 -0.1379 -0.2623
11269SOL    HW144736   3.477   9.993   2.439 -0.6562 -1.4457 -0.5638
11269SOL    HW244737   3.622  10.032   2.504 -1.2273  0.7916 -0.5761
11270SOL     OW44738   8.331   4.062   4.632  0.2780  0.1416 -0.1138
11270SOL    HW144739   8.404   4.120   4.670  2.3541 -1.9688 -0.7132
11270SOL    HW244740   8.345   3.968   4.664 -1.4897 -0.5140 -1.2558
11271SOL     OW44741   0.548   3.539   4.080 -0.7498 -0.1047 -0.5623
11271SOL    HW144742   0.464   3.489   4.057 -0.5575 -0.1478 -1.1576
11271SOL    HW244743   0.548   3.627   4.034  0.2974 -0.7829 -1.8715
11272SOL     OW44744   0.901   6.559   5.410  0.2156 -0.4964 -0.6732
11272SOL    HW144745   0.948   6.647   5.402  0.1991 -0.4118  0.1376
11272SOL    HW244746   0.858   6.553   5.500 -1.6117 -0.4207 -1.5254
11273SOL     OW44747   1.108   9.954   4.542 -0.5488  0.1815  0.3060
11273SOL    HW144748   1.202   9.931   4.570 -0.7173 -1.4551 -0.4010
11273SOL    HW244749   1.108   9.986   4.448 -0.5325  1.5798  0.7679
11274SOL     OW44750   1.535   0.239   1.316 -0.2924  0.8438 -0.0946
11274SOL    HW144751   1.467   0.253   1.245  0.3399 -0.4338 -0.9678
11274SOL    HW244752   1.539   0.142   1.341  1.1780  0.8983 -0.0345
11275SOL     OW44753   0.780   1.732   3.721  0.3809 -0.1336 -0.3215
11275SOL    HW144754   0.691   1.705   3.683 -0.3161  0.8295  0.6055
11275SOL    HW244755   0.831   1.783   3.652 -0.4470  0.6932 -0.3330
11276SOL     OW44756   8.639   8.492   2.287 -0.0742 -0.5943  0.1403
11276SOL    HW144757   8.676   8.555   2.219 -0.2809 -1.1809 -0.5243
11276SOL    HW244758   8.582   8.424   2.241  0.4598 -1.4940  0.8063
11277SOL     OW44759   2.196   8.433   2.168 -0.4186  0.2560 -0.0081
11277SOL    HW144760   2.245   8.357   2.125 -0.5351  1.2326 -1.8996
11277SOL    HW244761   2.252   8.472   2.241  1.7640  1.5313 -2.3130
11278SOL     OW44762   1.087   2.555   0.314  0.0299 -0.6423 -0.0433
11278SOL    HW144763   1.123   2.539   0.222  0.2560 -0.1749 -0.0384
11278SOL    HW244764   1.141   2.627   0.359  0.7221 -1.7243  0.9179
11279SOL     OW44765   3.833   4.471   2.899 -0.2374  0.2890  0.3951
11279SOL    HW144766   3.817   4.394   2.960 -0.3727 -1.3527 -1.6582
11279SOL    HW244767   3.929   4.497   2.902 -0.1382 -0.1399  0.9211
11280SOL     OW44768   2.024   6.993   2.722  0.1315  0.2699  0.0548
11280SOL    HW144769   2.065   7.076   2.760  3.0445 -0.9035 -0.3927
11280SOL    HW244770   2.082   6.914   2.744 -1.5494 -1.3648 -1.2249
11281SOL     OW44771   8.136   4.667   4.042 -0.3638 -0.5139  0.0165
11281SOL    HW144772   8.135   4.575   4.080 -0.2593 -0.2389  0.7017
11281SOL    HW244773   8.231   4.700   4.036 -0.4391 -0.2500  0.2733
11282SOL     OW44774   2.444   5.663   3.365 -0.3042  0.2914 -0.3723
11282SOL    HW144775   2.460   5.578   3.415 -0.6468 -0.7398 -1.9764
11282SOL    HW244776   2.350   5.692   3.378 -0.3830  0.0451 -0.3882
11283SOL     OW44777   9.640   9.483   3.160  0.0893  0.0426 -0.0595
11283SOL    HW144778   9.633   9.439   3.249 -1.6149 -3.4982 -1.8392
11283SOL    HW244779   9.554   9.530   3.139  0.2008  0.2074 -0.1457
11284SOL     OW44780   9.236   8.242   0.606 -0.4648 -0.5665  0.5382
11284SOL    HW144781   9.253   8.309   0.677 -2.0412  0.1169  0.2814
11284SOL    HW244782   9.265   8.279   0.517 -1.5298 -0.1373  0.3668
11285SOL     OW44783   8.839   2.372   5.137  0.4241 -0.0444  0.0302
11285SOL    HW144784   8.919   2.386   5.195  0.6484 -1.0961 -0.0157
11285SOL    HW244785   8.767   2.436   5.163  0.9996  0.3833  0.5865
11286SOL     OW44786   2.220   0.813   1.559 -0.3378  0.0099  0.3080
11286SOL    HW144787   2.128   0.844   1.534 -1.1232 -1.4154  1.3376
11286SOL    HW244788   2.249   0.741   1.495 -0.4795 -0.4510  0.7579
11287SOL     OW44789   1.892   8.029   2.623  0.0765 -0.3024  0.1695
11287SOL    HW144790   1.798   8.047   2.594  0.2414  0.3178  0.0321
11287SOL    HW244791   1.952   8.103   2.594  0.2885  0.2271  1.8959
11288SOL     OW44792   2.017   5.384   1.804  0.2607 -0.6159 -0.0409
11288SOL    HW144793   2.091   5.317   1.807  0.5435 -0.3458 -0.9567
11288SOL    HW244794   1.951   5.358   1.734  0.0119 -0.3078  0.0776
11289SOL     OW44795   5.717   1.053   1.708  0.3858  0.4074 -0.3034
11289SOL    HW144796   5.699   1.151   1.701  0.0944  0.5974  2.7638
11289SOL    HW244797   5.648   1.010   1.764  1.5352 -1.2671 -0.1374
11290SOL     OW44798   2.155   7.493   4.851 -0.3790  0.7144  0.8582
11290SOL    HW144799   2.131   7.510   4.947 -2.6515 -1.1586  0.6830
11290SOL    HW244800   2.114   7.563   4.794  0.7583  1.6852  1.2121
11291SOL     OW44801   1.331   4.840   4.534  0.0940 -0.3675 -0.0225
11291SOL    HW144802   1.245   4.871   4.573 -0.5033 -0.6108 -1.1202
11291SOL    HW244803   1.352   4.748   4.569  1.0702  0.5809  1.9936
11292SOL     OW44804   0.046   6.185   4.510  0.2443 -0.2334 -0.4945
11292SOL    HW144805   0.116   6.230   4.455  1.3984 -0.4737  0.7577
11292SOL    HW244806  -0.042   6.190   4.463  0.7533  1.6179 -1.2668
11293SOL     OW44807   7.972   7.413   3.139 -0.2449  0.1217 -0.2610
11293SOL    HW144808   7.915   7.365   3.206  0.5592  1.0190  1.0902
11293SOL    HW244809   8.029   7.347   3.090 -1.4684 -0.6343 -0.6756
11294SOL     OW44810   1.085   6.339   2.327  0.4798  0.1289  0.4968
11294SOL    HW144811   1.100   6.396   2.246  1.9035  0.0063  0.6561
11294SOL    HW244812   1.125   6.384   2.407  1.6529 -1.1110  0.6193
11295SOL     OW44813   7.607   1.124   0.158  0.5340 -0.3088 -0.3332
11295SOL    HW144814   7.612   1.126   0.058  1.0207  0.7028 -0.2874
11295SOL    HW244815   7.528   1.176   0.189 -0.2150 -1.4793 -0.2255
11296SOL     OW44816   0.533   4.154   6.439  0.0105 -0.1579 -0.0999
11296SOL    HW144817   0.504   4.241   6.479  1.6523 -0.1080  1.0120
11296SOL    HW244818   0.468   4.082   6.464 -0.5067  0.4422  0.2798
11297SOL     OW44819   6.997   0.934   2.855  0.1144  0.2879  0.1539
11297SOL    HW144820   7.094   0.910   2.859  0.0572  0.2568  1.9382
11297SOL    HW244821   6.955   0.919   2.945 -1.4605  0.6490 -0.4971
11298SOL     OW44822   9.873   8.186   1.029  0.4582 -0.4733 -0.2831
11298SOL    HW144823   9.805   8.117   1.006  1.0585 -1.2202  0.1504
11298SOL    HW244824   9.832   8.277   1.023 -0.5090 -0.9013 -0.2565
11299SOL     OW44825   1.772   8.620   2.305 -0.0278 -0.0267 -0.1707
11299SOL    HW144826   1.755   8.551   2.235  1.8636  2.0862 -2.7890
11299SOL    HW244827   1.869   8.620   2.329  0.1936  2.4037 -0.9737
11300SOL     OW44828   8.343   6.806   3.478  0.0204 -0.0138 -0.0068
11300SOL    HW144829   8.398   6.730   3.513  1.8921  0.7880 -1.1540
11300SOL    HW244830   8.402   6.872   3.431 -1.5888  2.0759  0.7910
11301SOL     OW44831   5.650   1.887   3.249 -0.1271  0.2481 -0.3708
11301SOL    HW144832   5.714   1.885   3.171 -1.2963  1.9410 -1.4119
11301SOL    HW244833   5.558   1.906   3.215 -0.8903 -0.3936  1.3116
11302SOL     OW44834   3.166   7.147   2.039  0.0086 -0.4407  0.4634
11302SOL    HW144835   3.174   7.199   1.954  1.1487 -3.1438 -1.1559
11302SOL    HW244836   3.082   7.174   2.086 -0.2471  1.6758 -1.1283
11303SOL     OW44837   2.559   4.476   0.794 -0.3770  0.2624 -0.4402
11303SOL    HW144838   2.649   4.489   0.754 -0.5596  1.3415 -0.5082
11303SOL    HW244839   2.492   4.531   0.743 -0.0626  4.5908  3.5322
11304SOL     OW44840   8.275   0.384   4.783  0.4460  0.3498 -0.1856
11304SOL    HW144841   8.226   0.435   4.854  1.7501  0.5467  0.5858
11304SOL    HW244842   8.365   0.426   4.768  0.5520 -0.2551 -1.2939
11305SOL     OW44843   6.014   7.258   3.555  0.1351 -0.2971  0.1183
11305SOL    HW144844   6.093   7.220   3.602  1.6283  0.4229 -1.7533
11305SOL    HW244845   6.041   7.289   3.464 -2.0840  0.8637 -0.1792
11306SOL     OW44846   2.039   4.418   2.705 -0.4948 -0.1262  0.0818
11306SOL    HW144847   2.068   4.443   2.797  1.4874 -0.8255 -0.3283
11306SOL    HW244848   2.109   4.362   2.662 -0.8558  1.1926 -2.3103
11307SOL     OW44849   3.487   6.579   3.878 -0.4246 -0.8708  0.8094
11307SOL    HW144850   3.547   6.645   3.923  1.0792 -1.5957 -0.0879
11307SOL    HW244851   3.393   6.614   3.878  0.3612  1.3319  0.2096
11308SOL     OW44852   3.874   0.302   3.498 -0.8531  0.4421  0.1774
11308SOL    HW144853   3.866   0.205   3.475  0.4539  0.4757 -0.4296
11308SOL    HW244854   3.958   0.317   3.550 -2.0967  0.9201  2.1081
11309SOL     OW44855   4.876   5.000   1.123 -0.5217 -0.6386  0.3622
11309SOL    HW144856   4.785   4.986   1.084 -1.2710  0.1376  1.7874
11309SOL    HW244857   4.901   5.097   1.114 -0.8576 -0.3750  2.0926
11310SOL     OW44858   1.683   4.909   0.189 -0.4515  0.2133  0.4924
11310SOL    HW144859   1.694   4.995   0.238 -1.4611 -0.2535  1.5442
11310SOL    HW244860   1.674   4.928   0.091 -1.7471  1.3889  0.8214
11311SOL     OW44861   5.105   1.094   3.927  0.2930  0.1218  0.2956
11311SOL    HW144862   5.062   1.030   3.992 -2.7099  1.4670 -0.2660
11311SOL    HW244863   5.102   1.054   3.835  1.5694 -0.3918  0.4746
11312SOL     OW44864   1.969   3.550   2.177  0.6809  0.1769 -0.0348
11312SOL    HW144865   1.962   3.635   2.125 -1.0398  0.2513  0.3168
11312SOL    HW244866   1.969   3.473   2.114  2.5580  0.4246 -0.3751
11313SOL     OW44867   4.292   2.014   1.727  0.1806  0.0368 -0.5005
11313SOL    HW144868   4.270   1.934   1.670 -0.8805  0.6949 -1.0348
11313SOL    HW244869   4.298   2.095   1.669 -0.6475  0.6633  0.2842
11314SOL     OW44870   0.890   0.017   3.216 -0.0106  0.5387 -0.1454
11314SOL    HW144871   0.828   0.079   3.168  0.0234 -0.5112 -1.5713
11314SOL    HW244872   0.837  -0.042   3.277 -0.3859 -0.0868 -1.0666
11315SOL     OW44873   0.289   6.241   5.076  0.7941  0.0397 -0.3382
11315SOL    HW144874   0.207   6.295   5.055  1.4758  1.3827  0.3548
11315SOL    HW244875   0.369   6.284   5.034  1.2954 -0.6832 -0.1400
11316SOL     OW44876   0.543   5.764   1.071 -0.4339 -0.2837 -0.0056
11316SOL    HW144877   0.510   5.822   0.996 -0.2192 -0.5989 -0.3472
11316SOL    HW244878   0.489   5.680   1.074  0.3294 -0.7978 -0.5589
11317SOL     OW44879   8.739   5.255   3.678 -0.1595  0.4453  0.2959
11317SOL    HW144880   8.838   5.239   3.680 -0.2873 -0.3174  0.7779
11317SOL    HW244881   8.717   5.333   3.736  0.2888  1.3306 -0.7176
11318SOL     OW44882   8.183   0.960   0.948 -0.4548 -0.3797  0.5308
11318SOL    HW144883   8.275   0.988   0.920 -0.5991  1.9188  2.2518
11318SOL    HW244884   8.122   0.965   0.868  0.2006  1.3053  0.1093
11319SOL     OW44885   2.809   8.045   2.466 -0.1393  0.0008  0.8132
11319SOL    HW144886   2.841   7.955   2.438 -0.0876  0.5412 -0.9528
11319SOL    HW244887   2.710   8.043   2.479 -0.1922 -0.2046  0.3664
11320SOL     OW44888   0.983   3.401   4.419  0.3653  0.0555  1.0798
11320SOL    HW144889   1.070   3.402   4.468  0.5496 -0.4482  0.7633
11320SOL    HW244890   1.000   3.402   4.321 -0.0158  1.9786  1.0162
11321SOL     OW44891   7.046   9.016   2.487 -0.1028 -0.1016 -0.2803
11321SOL    HW144892   6.960   8.997   2.440  0.0545 -1.4993 -0.0121
11321SOL    HW244893   7.120   8.965   2.443  0.7614  1.8115 -1.0957
11322SOL     OW44894   0.504   0.629   4.900 -0.3293 -0.0333  0.3736
11322SOL    HW144895   0.517   0.573   4.818  0.7666  0.9507 -0.1419
11322SOL    HW244896   0.438   0.585   4.960 -0.0957 -1.4721 -0.3978
11323SOL     OW44897   5.598   0.382   4.989 -0.6348 -0.4590 -0.4560
11323SOL    HW144898   5.680   0.370   5.045 -1.2630  0.7839  0.7588
11323SOL    HW244899   5.538   0.304   5.002 -0.0717 -0.9217 -0.6095
11324SOL     OW44900   8.831   3.487   1.733  0.2217 -0.0174  0.4719
11324SOL    HW144901   8.737   3.521   1.735  0.2124 -0.0071 -0.2680
11324SOL    HW244902   8.831   3.387   1.736  0.1078 -0.1064 -1.7700
11325SOL     OW44903   9.968   2.917   1.151 -0.0913  0.2707 -0.2722
11325SOL    HW144904   9.916   2.939   1.234 -1.1665  0.3168 -0.9370
11325SOL    HW244905   9.982   3.001   1.098  1.2480  0.3643  0.2269
11326SOL     OW44906   9.008   6.538   1.001  0.0855 -0.3594  0.5274
11326SOL    HW144907   9.003   6.451   1.049 -0.8207 -1.6238 -1.7615
11326SOL    HW244908   8.987   6.524   0.904  1.0911  2.2228 -0.1130
11327SOL     OW44909   7.593   7.556   4.723  0.0610 -0.0715  0.0166
11327SOL    HW144910   7.596   7.545   4.823  2.8524  1.0724  0.1172
11327SOL    HW244911   7.499   7.568   4.693 -0.8162 -0.4254  2.5254
11328SOL     OW44912   5.369   1.048   3.316  0.6877 -0.5485  0.1608
11328SOL    HW144913   5.374   0.948   3.318  1.1005 -0.5489 -0.8398
11328SOL    HW244914   5.349   1.079   3.223 -0.1336  0.2721  0.5980
11329SOL     OW44915   3.640   7.248   2.769 -0.3710 -0.0490 -0.1674
11329SOL    HW144916   3.677   7.184   2.836 -1.8944 -0.5890  0.1830
11329SOL    HW244917   3.715   7.298   2.725  0.6455  0.7344  2.3449
11330SOL     OW44918   4.912   3.229   0.346  0.0943 -0.7262  0.0104
11330SOL    HW144919   4.930   3.248   0.249  0.7013 -0.6962  0.1322
11330SOL    HW244920   4.980   3.274   0.402 -1.1341  0.5087  0.5440
11331SOL     OW44921   5.776   0.641   1.644  0.0450  0.0227  0.1595
11331SOL    HW144922   5.787   0.723   1.589  2.4836  0.0570  0.6484
11331SOL    HW244923   5.792   0.560   1.587  1.2166  0.0132  0.4966
11332SOL     OW44924   9.535   8.882   0.593  0.0376 -0.1131 -0.0393
11332SOL    HW144925   9.607   8.939   0.555  1.5465 -1.2791  1.0276
11332SOL    HW244926   9.446   8.913   0.558  1.0735  1.0500 -1.7117
11333SOL     OW44927   0.895   5.145   1.419 -0.4736 -0.3369 -0.0500
11333SOL    HW144928   0.822   5.213   1.428 -0.2180 -0.1034  0.2727
11333SOL    HW244929   0.981   5.185   1.450 -1.0520 -2.0838  4.0272
11334SOL     OW44930   0.835   8.071   1.640 -0.3627 -0.3817 -0.4647
11334SOL    HW144931   0.811   8.125   1.721  0.1810 -1.5285  0.4692
11334SOL    HW244932   0.762   8.080   1.572 -0.9145  0.4478  0.2140
11335SOL     OW44933   5.662   5.128   1.073 -0.4616  0.0224  0.5727
11335SOL    HW144934   5.582   5.070   1.060 -0.7969  0.1398  2.0446
11335SOL    HW244935   5.635   5.225   1.067 -0.7092  0.0858  2.5463
11336SOL     OW44936   7.857   1.981   1.104  0.6849  0.2318 -0.3575
11336SOL    HW144937   7.868   2.072   1.145 -0.7069  0.8050 -1.2402
11336SOL    HW244938   7.923   1.918   1.146  0.5788  1.2574  1.4111
11337SOL     OW44939   0.573   5.330   3.368 -0.8790  0.0124  0.0922
11337SOL    HW144940   0.653   5.271   3.356 -0.0682  0.9637  0.7718
11337SOL    HW244941   0.492   5.273   3.382 -0.2022 -0.9520  0.1425
11338SOL     OW44942   8.972   5.053   1.887  0.4392  0.2015 -0.5153
11338SOL    HW144943   8.979   4.978   1.953  0.7889  1.8256  1.3474
11338SOL    HW244944   9.036   5.125   1.911  0.9520  0.6128 -2.9789
11339SOL     OW44945   8.426   5.231   2.794  0.5386 -0.0180 -0.5607
11339SOL    HW144946   8.425   5.229   2.894  0.1716 -0.0676 -0.5650
11339SOL    HW244947   8.344   5.278   2.761  0.2716 -0.6905 -0.8580
11340SOL     OW44948   4.151   4.492   2.635 -0.2924  0.1270 -0.6728
11340SOL    HW144949   4.071   4.434   2.624 -0.1131 -0.5196  1.2299
11340SOL    HW244950   4.229   4.451   2.587 -0.4972 -0.5458 -0.4405
11341SOL     OW44951   0.049   3.800   4.912 -0.3202 -0.1821  0.6234
11341SOL    HW144952   0.100   3.874   4.955  0.2475 -0.6840  0.8293
11341SOL    HW244953  -0.036   3.836   4.873 -0.2141  0.5096  1.0163
11342SOL     OW44954   6.175   4.224   6.441  0.3030  0.2349  0.5774
11342SOL    HW144955   6.210   4.242   6.533 -1.2631 -1.5826  1.5468
11342SOL    HW244956   6.162   4.126   6.429 -0.8690  0.5807 -1.0990
11343SOL     OW44957   1.633   5.560   3.289  0.0168 -0.8287  0.4847
11343SOL    HW144958   1.598   5.633   3.348  0.5484  0.5842 -0.8892
11343SOL    HW244959   1.566   5.541   3.217  0.0925 -1.3452  0.5531
11344SOL     OW44960   7.544   8.240   2.899  0.0541 -0.3509 -0.5605
11344SOL    HW144961   7.621   8.201   2.950  0.5049  1.4643  0.1604
11344SOL    HW244962   7.471   8.264   2.962  1.1965  3.2827 -0.5266
11345SOL     OW44963   3.092   7.703   2.572 -0.2323 -0.0572 -0.7938
11345SOL    HW144964   3.164   7.637   2.592 -1.3904 -0.6061  1.7256
11345SOL    HW244965   3.129   7.796   2.579  0.0286 -0.3090  1.4210
11346SOL     OW44966   2.596   4.576   1.054 -0.7831 -0.5857  0.7721
11346SOL    HW144967   2.512   4.564   1.001 -0.7563 -1.5177  0.9364
11346SOL    HW244968   2.673   4.540   1.001 -0.4933  0.2081  0.6487
11347SOL     OW44969   6.652   0.281   4.682  0.2789 -0.5091  0.2132
11347SOL    HW144970   6.657   0.212   4.610 -1.0398  0.7392 -1.0881
11347SOL    HW244971   6.564   0.273   4.729  1.0092 -1.1180  1.5138
11348SOL     OW44972   1.155   7.939   2.807 -0.7835  0.8688 -0.3287
11348SOL    HW144973   1.161   7.843   2.834 -1.5209  0.7107 -0.7160
11348SOL    HW244974   1.198   7.996   2.877  0.7947  0.1636 -0.6953
11349SOL     OW44975   7.244   7.319   2.949 -0.1489 -0.2732  0.4165
11349SOL    HW144976   7.343   7.325   2.934  0.1362  0.2702  2.2844
11349SOL    HW244977   7.197   7.307   2.862  1.5615 -0.4361 -0.5023
11350SOL     OW44978   9.315   8.977   0.444  0.1638  0.6648 -0.2956
11350SOL    HW144979   9.292   8.926   0.361  1.9945  0.5683 -0.7722
11350SOL    HW244980   9.280   9.070   0.437 -1.0077  0.2136 -0.5169
11351SOL     OW44981   0.102   5.972   6.582 -0.1490 -0.3632 -0.2500
11351SOL    HW144982   0.064   5.893   6.630 -0.5915  0.6305  1.0914
11351SOL    HW244983   0.157   5.942   6.504  0.2583 -2.0029  0.6589
11352SOL     OW44984   9.252   9.961   3.338  0.6976  0.0809  0.5721
11352SOL    HW144985   9.290   9.872   3.312  0.3643 -0.0132  0.3966
11352SOL    HW244986   9.283  10.030   3.274 -2.9828 -0.7606 -2.3342
11353SOL     OW44987   8.512   1.016   2.553 -0.0183  0.2014 -0.0603
11353SOL    HW144988   8.513   1.096   2.494 -1.9201  0.3726  0.0842
11353SOL    HW244989   8.499   0.933   2.498  1.0676  0.0831 -0.1345
11354SOL     OW44990   6.989   4.023   0.240  0.6788  0.0761 -0.2987
11354SOL    HW144991   6.993   4.011   0.141 -0.0266 -1.2419 -0.1868
11354SOL    HW244992   6.929   4.100   0.262 -1.0143 -1.0675 -0.8270
11355SOL     OW44993   1.161   5.952   1.458 -0.4075 -0.8395 -0.6608
11355SOL    HW144994   1.136   5.878   1.395 -1.1659 -0.2893 -1.0173
11355SOL    HW244995   1.158   5.918   1.552 -0.5997 -1.3035 -0.8319
11356SOL     OW44996   2.174   0.797   1.871 -0.4511 -0.0279  0.1444
11356SOL    HW144997   2.186   0.850   1.787 -0.1117 -0.3082  0.0156
11356SOL    HW244998   2.239   0.828   1.940 -0.3555 -0.1737  0.1196
11357SOL     OW44999   0.232   4.219   5.466 -0.3441  0.0873  0.4034
11357SOL    HW145000   0.271   4.188   5.379  0.1567  0.4734  0.4884
11357SOL    HW245001   0.306   4.236   5.531 -0.4776  3.4225 -0.2673
11358SOL     OW45002   5.673   1.619   3.252 -0.1735 -0.3218  0.6572
11358SOL    HW145003   5.614   1.596   3.174 -0.8680 -1.9568  1.6448
11358SOL    HW245004   5.662   1.716   3.274 -0.5479 -0.0205 -0.8031
11359SOL     OW45005   3.003   6.401   6.096  0.4230 -0.2065  0.2723
11359SOL    HW145006   2.929   6.468   6.092 -0.7067 -1.5237 -1.1835
11359SOL    HW245007   3.005   6.359   6.187  1.6225  2.2988  1.4528
11360SOL     OW45008   9.665   3.052   5.082 -0.3915 -0.1375  0.1412
11360SOL    HW145009   9.704   3.045   5.173 -1.7050 -2.0084  0.5997
11360SOL    HW245010   9.591   3.119   5.082 -0.9551 -0.7606  0.6602
11361SOL     OW45011   7.109   9.622   4.726 -0.3662 -0.2513 -0.0630
11361SOL    HW145012   7.209   9.620   4.725 -0.4057 -2.6796  0.0171
11361SOL    HW245013   7.075   9.625   4.633 -0.2542 -1.3818 -0.1391
11362SOL     OW45014   3.437   0.281   2.435 -0.3961 -0.0428  0.3523
11362SOL    HW145015   3.518   0.277   2.493 -1.8868 -0.6743  2.4792
11362SOL    HW245016   3.390   0.369   2.449 -0.9195 -0.3187  0.3606
11363SOL     OW45017   0.830   9.027   4.394 -0.2227 -0.4548  0.5020
11363SOL    HW145018   0.892   8.964   4.442 -0.6064 -0.2218  1.2948
11363SOL    HW245019   0.766   8.974   4.338  1.4760 -0.6756 -1.3217
11364SOL     OW45020   2.548   9.865   3.726  0.3414 -1.0066  0.3051
11364SOL    HW145021   2.458   9.825   3.742  0.5186 -1.2787  0.6113
11364SOL    HW245022   2.559   9.946   3.783  0.8054 -1.7293  1.2388
11365SOL     OW45023   9.322   5.933   0.799  0.2915 -0.2189 -0.1888
11365SOL    HW145024   9.351   5.848   0.842 -0.6505 -0.5361 -0.1766
11365SOL    HW245025   9.223   5.931   0.783  0.4842  0.2756 -1.5108
11366SOL     OW45026   5.244   1.024   1.202  0.1494 -0.8549  0.9412
11366SOL    HW145027   5.329   1.076   1.196  0.6328 -1.4037  2.7245
11366SOL    HW245028   5.169   1.085   1.228 -0.2951 -0.1152 -1.9265
11367SOL     OW45029   3.806   9.864   1.674 -0.2173 -0.4400  0.1251
11367SOL    HW145030   3.858   9.948   1.689 -2.5536  1.1162 -0.1656
11367SOL    HW245031   3.832   9.795   1.742  0.9744  0.8740  1.0176
11368SOL     OW45032   0.880   1.908   3.350  0.0821  0.0112  0.0353
11368SOL    HW145033   0.911   1.889   3.443  2.8195  0.0093 -0.8195
11368SOL    HW245034   0.957   1.945   3.296 -2.0319  2.2415 -1.5828
11369SOL     OW45035   3.391   7.909   4.694 -0.2696 -0.0304 -0.0552
11369SOL    HW145036   3.307   7.960   4.677  0.6012  1.0984 -1.0929
11369SOL    HW245037   3.413   7.911   4.792 -0.5512  1.1291 -0.0043
11370SOL     OW45038   4.918   9.910   3.765  0.3129  0.1199  0.2090
11370SOL    HW145039   4.994   9.870   3.816  0.7551  0.4216 -0.2159
11370SOL    HW245040   4.953   9.973   3.695 -0.2693 -0.4518 -0.6147
11371SOL     OW45041   3.282   3.769   0.229  0.0614 -0.3838  0.6034
11371SOL    HW145042   3.285   3.758   0.130  0.7505 -1.2081  0.7106
11371SOL    HW245043   3.271   3.865   0.252 -1.0910 -0.2941 -0.2906
11372SOL     OW45044   3.472   8.018   2.422  0.2031  0.2006 -0.0017
11372SOL    HW145045   3.567   8.008   2.452 -0.1086 -1.7229  0.3972
11372SOL    HW245046   3.449   7.944   2.359 -1.2733  0.1837  0.5367
11373SOL     OW45047   1.343   2.194   5.132  0.6969 -0.2331 -0.1398
11373SOL    HW145048   1.315   2.112   5.082 -1.3210  0.9184 -0.9335
11373SOL    HW245049   1.273   2.220   5.198  0.8492  1.4486 -0.6114
11374SOL     OW45050   9.729   6.225   4.997 -0.4502  0.2272 -0.4421
11374SOL    HW145051   9.812   6.179   5.029 -0.0013  0.8572 -0.6716
11374SOL    HW245052   9.752   6.287   4.922 -0.9566  1.1050  0.1037
11375SOL     OW45053   9.436   5.250   1.129  0.6454 -1.0570  0.5896
11375SOL    HW145054   9.349   5.201   1.121  0.9406 -1.7467  1.4716
11375SOL    HW245055   9.492   5.232   1.049 -0.3731  0.1070 -0.4081
11376SOL     OW45056   3.660   5.631   5.938 -0.3788 -0.7105  0.3667
11376SOL    HW145057   3.662   5.673   5.847  0.9865 -1.4403  0.0358
11376SOL    HW245058   3.586   5.565   5.943 -0.5954 -0.5079 -0.1498
11377SOL     OW45059   8.767   2.622   2.767  0.1907 -0.5117  0.1225
11377SOL    HW145060   8.820   2.687   2.821 -0.5473 -0.3264  0.6322
11377SOL    HW245061   8.692   2.586   2.822 -0.6115 -0.2753 -0.7942
11378SOL     OW45062   4.744   2.866   4.417 -0.2407 -0.2292 -0.5272
11378SOL    HW145063   4.733   2.827   4.508 -0.1115 -2.4418 -1.4129
11378SOL    HW245064   4.808   2.809   4.364 -0.3303  1.0039 -1.9959
11379SOL     OW45065   1.883   6.510   4.130 -0.0134 -0.0281 -0.1810
11379SOL    HW145066   1.955   6.469   4.186  1.3861  0.8411 -1.2702
11379SOL    HW245067   1.876   6.608   4.152 -1.1873 -0.2138  0.2532
11380SOL     OW45068   1.657   7.075   5.511 -0.1719 -0.0443  0.5099
11380SOL    HW145069   1.700   7.098   5.424  0.1978 -0.3253  0.6154
11380SOL    HW245070   1.557   7.072   5.500 -0.0317 -2.2843 -0.4655
11381SOL     OW45071   9.913   2.263   4.248  0.0053 -0.1432 -0.0514
11381SOL    HW145072   9.877   2.277   4.155  0.0551 -0.9456 -0.1905
11381SOL    HW245073   9.837   2.241   4.310  0.2788 -2.3274 -0.4403
11382SOL     OW45074   4.811   1.617   0.740 -0.4247  0.0545 -0.3232
11382SOL    HW145075   4.771   1.622   0.649 -0.7336 -0.3736 -0.2132
11382SOL    HW245076   4.757   1.555   0.797 -0.5084  0.6825  0.2904
11383SOL     OW45077   3.191   7.480   3.457  0.0564 -0.2256  0.2018
11383SOL    HW145078   3.283   7.515   3.475  0.5359 -1.5076  0.2738
11383SOL    HW245079   3.125   7.555   3.465  0.7605  0.1885  2.8393
11384SOL     OW45080   2.924   6.963   4.615 -0.1338  0.5026 -0.4113
11384SOL    HW145081   2.871   6.920   4.688 -0.9731  1.6908 -0.3088
11384SOL    HW245082   2.970   6.893   4.561  0.6769 -0.3841  1.3920
11385SOL     OW45083   1.684   6.681   2.709  0.5063  0.4140 -0.5876
11385SOL    HW145084   1.702   6.689   2.807  1.3719  0.2147 -0.7241
11385SOL    HW245085   1.771   6.677   2.659  0.1070 -2.6961 -1.0965
11386SOL     OW45086   7.845   1.543   4.190 -0.1083  0.3327  0.7416
11386SOL    HW145087   7.862   1.486   4.109 -0.9309  3.4116 -1.7315
11386SOL    HW245088   7.749   1.535   4.217 -0.3072  0.8020  0.1803
11387SOL     OW45089   9.443   9.821   0.461  0.1019 -0.2533 -0.3914
11387SOL    HW145090   9.364   9.875   0.490 -0.1961 -1.2339  0.7001
11387SOL    HW245091   9.435   9.728   0.499  1.3336 -0.6200 -1.0048
11388SOL     OW45092   5.215   2.702   3.677  0.2027  0.0390  0.0659
11388SOL    HW145093   5.205   2.631   3.747 -0.5642 -0.4328 -0.5152
11388SOL    HW245094   5.128   2.714   3.629  1.3119 -1.2643 -2.3501
11389SOL     OW45095   3.307   6.612   5.453  0.1114 -0.0601 -0.0588
11389SOL    HW145096   3.226   6.564   5.486  0.2677 -0.0956  0.2842
11389SOL    HW245097   3.389   6.567   5.490  0.2571  0.5421  0.3614
11390SOL     OW45098   5.298   2.211   1.390 -0.5409 -0.2581 -0.5182
11390SOL    HW145099   5.262   2.242   1.302 -1.8703 -2.7598 -0.9108
11390SOL    HW245100   5.289   2.111   1.396  1.0657 -0.2954  1.7814
11391SOL     OW45101   0.865   8.726   3.695  0.2553 -0.0721  0.2947
11391SOL    HW145102   0.816   8.803   3.654  1.6063 -0.0093 -1.2752
11391SOL    HW245103   0.962   8.749   3.702  0.6481 -1.5752 -0.0373
11392SOL     OW45104   1.045   3.298   1.473 -0.3300  0.1762  0.4050
11392SOL    HW145105   1.108   3.313   1.549  0.2417 -2.6187  0.5444
11392SOL    HW245106   0.975   3.232   1.501 -0.0256 -0.9835 -1.4880
11393SOL     OW45107   4.872   7.101   2.301  0.5926  0.2404  0.5782
11393SOL    HW145108   4.811   7.060   2.368  0.8621 -1.5320 -0.2432
11393SOL    HW245109   4.855   7.061   2.211  1.6931  1.0517 -0.0088
11394SOL     OW45110   9.559   5.309   2.072  0.0346  0.5146  0.0076
11394SOL    HW145111   9.629   5.380   2.077 -0.0057  0.5370  0.2902
11394SOL    HW245112   9.518   5.297   2.162  0.1988 -0.0274  0.0065
11395SOL     OW45113   7.947   6.110   5.218  0.2704 -0.7670  0.6346
11395SOL    HW145114   7.985   6.185   5.273  1.2408 -0.3645 -0.5622
11395SOL    HW245115   7.888   6.147   5.146  0.4898 -1.1688  0.2453
11396SOL     OW45116   6.073   0.375   5.088 -0.4153 -0.6422 -0.2075
11396SOL    HW145117   6.045   0.358   4.994 -1.9308  0.0073  0.1077
11396SOL    HW245118   6.150   0.316   5.112 -0.8586 -1.7185 -1.4387
11397SOL     OW45119   1.273   8.524   3.110  0.2203  0.1137 -0.6701
11397SOL    HW145120   1.349   8.473   3.069 -1.6896 -2.0112 -1.6373
11397SOL    HW245121   1.202   8.539   3.042 -0.4618  1.6712  0.3624
11398SOL     OW45122   5.962   1.288   4.202  0.1736  0.4955  0.2029
11398SOL    HW145123   5.956   1.388   4.200 -0.7087  0.4458  0.3716
11398SOL    HW245124   5.983   1.254   4.110  2.2916  0.9454  0.5012
11399SOL     OW45125   1.691   8.546   0.875  0.2650 -0.2769 -0.1934
11399SOL    HW145126   1.754   8.519   0.802 -1.2760  0.7128 -1.9597
11399SOL    HW245127   1.608   8.489   0.869 -0.1895  0.3315  0.2744
11400SOL     OW45128   0.420   0.809   4.542 -0.7679  0.2901 -0.5950
11400SOL    HW145129   0.328   0.792   4.509 -0.8661 -0.7289  0.1654
11400SOL    HW245130   0.481   0.826   4.465 -1.3533 -0.2222 -1.1718
11401SOL     OW45131   3.500   4.631   6.319  0.0439 -0.4201 -0.0482
11401SOL    HW145132   3.417   4.668   6.361 -0.5586 -1.1485 -0.6003
11401SOL    HW245133   3.580   4.674   6.361 -0.6154  0.5055  0.2760
11402SOL     OW45134   7.133   0.049   5.797  0.1452  0.1444 -0.8923
11402SOL    HW145135   7.218   0.005   5.766  0.6524 -0.1110  0.8261
11402SOL    HW245136   7.128   0.142   5.760 -0.2716 -0.8239 -3.4266
11403SOL     OW45137   3.513   3.661   4.137 -0.7069 -0.0735  0.4282
11403SOL    HW145138   3.505   3.574   4.089  0.3285 -0.5607  1.1163
11403SOL    HW245139   3.424   3.706   4.139 -1.4061 -1.4395  0.6792
11404SOL     OW45140   0.885   6.098   5.535  0.6699 -0.5694 -0.4535
11404SOL    HW145141   0.940   6.148   5.467  2.0235 -1.7511 -0.2567
11404SOL    HW245142   0.911   6.129   5.627  1.1222 -1.2539 -0.3528
11405SOL     OW45143   0.727   3.869   3.852  0.2592 -0.0485 -0.7137
11405SOL    HW145144   0.744   3.844   3.757 -0.3469  1.5404 -1.2593
11405SOL    HW245145   0.656   3.810   3.891  2.7554 -2.8128 -0.2336
11406SOL     OW45146   5.364   3.921   0.942  0.0229  0.1575 -0.3403
11406SOL    HW145147   5.464   3.929   0.937 -0.0386  2.7287  1.3093
11406SOL    HW245148   5.324   3.956   0.857  0.4955  0.9776 -0.2380
11407SOL     OW45149   3.461   4.787   0.038 -0.2107  0.3247 -0.2869
11407SOL    HW145150   3.445   4.877  -0.002  1.9048 -0.3208 -2.7138
11407SOL    HW245151   3.557   4.779   0.065  0.3243 -2.1041 -2.6697
11408SOL     OW45152   5.703   0.422   3.609  0.2309  0.0012 -0.9387
11408SOL    HW145153   5.618   0.456   3.567  0.1855  1.7209  0.4878
11408SOL    HW245154   5.699   0.322   3.614 -1.0514 -0.0454 -2.2461
11409SOL     OW45155   4.716   6.440   2.157 -0.4154 -0.6130 -0.1899
11409SOL    HW145156   4.792   6.376   2.162  0.0328  0.0294  1.6908
11409SOL    HW245157   4.666   6.440   2.244  0.0867  2.1324  0.1740
11410SOL     OW45158   1.706   7.512   1.425  0.1631 -0.0826 -0.0527
11410SOL    HW145159   1.630   7.554   1.375  0.0662 -1.3549 -0.9982
11410SOL    HW245160   1.680   7.502   1.521 -0.9062 -0.5389 -0.3739
11411SOL     OW45161   9.332   0.587   0.398 -0.4998  0.0151 -0.2973
11411SOL    HW145162   9.233   0.584   0.379 -0.5938  0.2004  0.1420
11411SOL    HW245163   9.347   0.579   0.497 -0.2359  2.5635 -0.0928
11412SOL     OW45164   4.240   1.175   2.751 -0.5386 -0.2596 -0.2137
11412SOL    HW145165   4.333   1.145   2.773 -0.4769  0.5491  0.6329
11412SOL    HW245166   4.233   1.191   2.653  0.0670 -0.8321 -0.3582
11413SOL     OW45167   0.287   3.399   6.198 -0.5242  0.4935 -0.1022
11413SOL    HW145168   0.380   3.434   6.210 -0.4457 -0.8009  3.7109
11413SOL    HW245169   0.223   3.464   6.239 -1.1413  0.3979 -0.9150
11414SOL     OW45170   5.197   7.581   5.414  0.2008 -0.1137 -0.8641
11414SOL    HW145171   5.295   7.572   5.400 -0.0171 -0.5278 -2.2898
11414SOL    HW245172   5.175   7.673   5.444  0.8205  0.6714 -2.7217
11415SOL     OW45173   1.993   2.708   3.290 -0.3026  0.0758  0.0620
11415SOL    HW145174   1.910   2.653   3.294 -0.9489  0.8966 -1.6967
11415SOL    HW245175   2.072   2.648   3.276 -0.6544 -0.6427  1.0747
11416SOL     OW45176   0.609   9.582   1.774  0.5190 -0.3325 -0.0713
11416SOL    HW145177   0.584   9.590   1.678 -0.6245  0.6854  0.3063
11416SOL    HW245178   0.704   9.612   1.786  0.4020  0.3137 -0.7520
11417SOL     OW45179   9.470   8.780   4.028 -0.3675 -0.9551 -0.0591
11417SOL    HW145180   9.502   8.824   4.112 -0.8695  1.1189 -0.8999
11417SOL    HW245181   9.537   8.794   3.956 -1.1882 -0.2772 -0.7129
11418SOL     OW45182   3.413   3.940   0.422 -0.5130 -0.1267  0.5107
11418SOL    HW145183   3.449   4.029   0.394 -0.4286 -0.3191  0.0073
11418SOL    HW245184   3.387   3.944   0.518  0.2600  0.2054  0.7119
11419SOL     OW45185   8.448   8.790   4.840 -0.0570  0.6696 -0.4679
11419SOL    HW145186   8.430   8.848   4.919 -0.4765 -0.8011  0.5222
11419SOL    HW245187   8.418   8.837   4.757 -0.8879  1.6333  0.3714
11420SOL     OW45188   2.691   4.331   3.454  0.7308  0.3021 -0.4641
11420SOL    HW145189   2.729   4.308   3.544 -1.3891  0.6368  0.5681
11420SOL    HW245190   2.718   4.262   3.387  0.8312 -0.9688  0.8676
11421SOL     OW45191   0.599   0.359   2.959 -0.6653 -0.1234  0.1740
11421SOL    HW145192   0.512   0.311   2.960 -0.9150  0.3377  0.8102
11421SOL    HW245193   0.674   0.293   2.951 -1.1108 -0.4576 -1.2673
11422SOL     OW45194   6.482   8.118   1.844  0.3421 -0.4028 -0.5037
11422SOL    HW145195   6.568   8.097   1.890  0.1776 -0.1191 -0.0626
11422SOL    HW245196   6.500   8.150   1.751  0.8019  1.3348  0.1797
11423SOL     OW45197   3.199   8.672   4.267  0.1044 -0.2404 -0.4644
11423SOL    HW145198   3.149   8.751   4.303  1.0313  0.4850 -0.7672
11423SOL    HW245199   3.224   8.688   4.172 -0.8427 -1.4528 -0.9423
11424SOL     OW45200   4.525   4.726   0.410 -0.2377 -0.2003 -0.3508
11424SOL    HW145201   4.542   4.753   0.505  0.0998  0.0791 -0.4928
11424SOL    HW245202   4.426   4.716   0.396 -0.2728 -0.5820  0.1229
11425SOL     OW45203   9.477   1.005   1.266  0.2472 -1.1379  0.1679
11425SOL    HW145204   9.512   0.931   1.323 -0.3724 -1.8632 -0.3814
11425SOL    HW245205   9.456   0.969   1.175 -1.1317 -0.5296  0.2415
11426SOL     OW45206   1.984   0.858   3.296 -0.0212 -0.0837 -0.0826
11426SOL    HW145207   1.897   0.815   3.319 -1.2750  1.6997 -1.3945
11426SOL    HW245208   2.059   0.794   3.315 -1.5526 -1.4203  1.5989
11427SOL     OW45209   2.660   9.266   3.640 -0.1695  0.5760 -0.1101
11427SOL    HW145210   2.718   9.261   3.721 -0.7618 -2.8341  0.1965
11427SOL    HW245211   2.705   9.322   3.570  1.6162  1.2876  1.5726
11428SOL     OW45212   1.995   5.167   0.851 -0.3749  0.6273  0.0915
11428SOL    HW145213   1.907   5.184   0.807 -0.5763  0.0917  0.2799
11428SOL    HW245214   2.009   5.233   0.925 -1.7684 -0.8341  1.7226
11429SOL     OW45215   4.720   0.549   2.279 -0.6236 -0.4572  0.2168
11429SOL    HW145216   4.813   0.522   2.303 -0.7768 -1.3876 -0.2395
11429SOL    HW245217   4.686   0.614   2.347  0.2319 -0.3744  0.5696
11430SOL     OW45218   5.253   9.237   2.661  0.5199 -0.4378  0.3000
11430SOL    HW145219   5.273   9.242   2.563 -1.2851 -1.1651 -0.1150
11430SOL    HW245220   5.222   9.327   2.693  1.3041 -0.1465  0.2695
11431SOL     OW45221   7.722   9.760   0.730  0.1619  0.3501  0.1485
11431SOL    HW145222   7.690   9.807   0.648  0.1723 -2.9313 -1.8444
11431SOL    HW245223   7.644   9.742   0.791 -0.3062  0.3572 -0.4429
11432SOL     OW45224   9.520   9.570   2.212  0.1146  0.1259 -0.3632
11432SOL    HW145225   9.467   9.577   2.296  1.1760 -0.3983  0.3660
11432SOL    HW245226   9.458   9.555   2.134 -0.9861  2.2008  0.0917
11433SOL     OW45227   2.390   5.951   2.023  0.0164  0.5556  0.2013
11433SOL    HW145228   2.353   6.023   1.963 -2.1272  0.3075  1.1661
11433SOL    HW245229   2.373   5.976   2.118  0.0632 -0.7983  0.5704
11434SOL     OW45230   3.964   0.906   4.206  0.5119  0.1170 -0.1355
11434SOL    HW145231   3.884   0.916   4.265  0.6933 -1.7188  0.4444
11434SOL    HW245232   4.047   0.921   4.259  0.6554 -1.0803 -0.0011
11435SOL     OW45233   1.502   5.965   3.290 -0.1138 -0.4806  0.1442
11435SOL    HW145234   1.492   6.047   3.347 -0.1992 -0.4010  0.0133
11435SOL    HW245235   1.443   5.972   3.210  0.2007 -0.4778 -0.0898
11436SOL     OW45236   2.974   7.251   2.691  0.2090  0.2834 -0.1244
11436SOL    HW145237   3.047   7.320   2.681 -0.2256  0.7954  0.1959
11436SOL    HW245238   3.012   7.160   2.677  0.8899  0.5580 -0.0756
11437SOL     OW45239   3.071   4.396   3.957 -0.1748  0.4111  0.2252
11437SOL    HW145240   3.054   4.430   3.864  0.1995  1.2152  0.4422
11437SOL    HW245241   2.994   4.421   4.016 -0.1804  0.3475  0.2446
11438SOL     OW45242   9.347   6.977   4.284 -0.6773  0.1852  0.3974
11438SOL    HW145243   9.418   7.020   4.228 -0.0613 -0.2121  0.8613
11438SOL    HW245244   9.376   6.978   4.380 -0.5797 -1.3972  0.3997
11439SOL     OW45245   3.648   6.899   1.473 -0.0723  0.6379  0.0150
11439SOL    HW145246   3.618   6.844   1.395  0.0868 -1.0825  1.1330
11439SOL    HW245247   3.718   6.849   1.524  0.2447  1.9954  0.9322
11440SOL     OW45248   8.129   8.436   4.422  0.2437 -0.3857  0.2552
11440SOL    HW145249   8.101   8.362   4.360 -0.1273 -0.3376  0.3659
11440SOL    HW245250   8.107   8.524   4.380 -1.0662 -0.3705  0.9526
11441SOL     OW45251   4.627   2.030   1.182  0.0354 -0.0690 -0.7375
11441SOL    HW145252   4.586   1.940   1.168 -1.9110  0.8303 -1.0441
11441SOL    HW245253   4.600   2.066   1.272  0.6322  0.2996 -0.6978
11442SOL     OW45254   8.709   7.956   2.782  0.0695 -0.3706  0.3572
11442SOL    HW145255   8.657   7.887   2.831  0.6786 -0.9395  0.2073
11442SOL    HW245256   8.723   7.926   2.688  0.3077 -0.0263  0.2838
11443SOL     OW45257   3.456   1.280   3.330  0.3640  0.7505  0.1348
11443SOL    HW145258   3.456   1.313   3.235  0.2194 -0.9201 -0.4633
11443SOL    HW245259   3.550   1.267   3.360  0.3826 -2.0890 -1.0121
11444SOL     OW45260   8.638   6.588   1.330  0.0911  0.2429  0.3756
11444SOL    HW145261   8.718   6.532   1.353 -1.7019 -2.9116 -0.8703
11444SOL    HW245262   8.583   6.602   1.412 -0.7550 -1.9964  0.2220
11445SOL     OW45263   0.301   4.022   0.942  0.0039 -0.3116 -0.7448
11445SOL    HW145264   0.250   3.967   1.008 -0.3756  0.1302 -0.6679
11445SOL    HW245265   0.360   4.086   0.991 -0.2158 -0.0408 -0.8319
11446SOL     OW45266   4.178   6.278   1.915 -0.5723  0.6789 -0.7518
11446SOL    HW145267   4.250   6.306   1.851  0.9698 -0.7584  0.3016
11446SOL    HW245268   4.197   6.317   2.005 -0.0328 -1.2442 -0.0000
11447SOL     OW45269   8.917   4.503   1.684  0.6206 -0.1040 -0.3054
11447SOL    HW145270   8.828   4.514   1.728 -0.1574 -0.7244 -1.6868
11447SOL    HW245271   8.950   4.409   1.698  0.5139 -0.2131 -0.7756
11448SOL     OW45272   3.911   4.328   2.586  0.1670 -0.2589 -0.1244
11448SOL    HW145273   3.931   4.236   2.620 -0.9095 -1.8172 -3.5614
11448SOL    HW245274   3.820   4.355   2.616  0.8495  0.1067  1.6815
11449SOL     OW45275   9.212   6.167   3.011 -0.5633  0.0010 -0.5938
11449SOL    HW145276   9.293   6.175   2.953  1.1498  2.9803  2.0850
11449SOL    HW245277   9.139   6.226   2.976  0.6791  2.2642  0.5487
11450SOL     OW45278   5.087   1.247   4.648 -0.0034  0.0515  0.1110
11450SOL    HW145279   5.109   1.286   4.559  1.6466 -1.0051  0.0470
11450SOL    HW245280   5.170   1.238   4.703 -0.8980  0.0653  1.5101
11451SOL     OW45281   3.752   0.504   2.136  0.0621 -0.1611 -0.3694
11451SOL    HW145282   3.818   0.554   2.081 -1.2766  1.7221 -0.3215
11451SOL    HW245283   3.788   0.489   2.228  1.0992 -0.6530 -0.8608
11452SOL     OW45284   0.638   7.406   2.308 -0.1352  0.0024 -0.5611
11452SOL    HW145285   0.570   7.336   2.289 -0.8327  0.7976 -1.0391
11452SOL    HW245286   0.606   7.494   2.274 -0.3721  1.0532  2.2332
11453SOL     OW45287   1.987   9.936   4.186 -0.1639  0.3730  0.0351
11453SOL    HW145288   2.009   9.843   4.215  0.4500  1.0709  1.8804
11453SOL    HW245289   2.072   9.990   4.181 -0.5514  0.9242 -0.7183
11454SOL     OW45290   4.545   2.441   3.218  0.0239  0.0633  0.6853
11454SOL    HW145291   4.450   2.468   3.199 -0.3501 -0.8736  1.1802
11454SOL    HW245292   4.570   2.473   3.309  1.2728  3.1270 -0.6716
11455SOL     OW45293   4.457   0.483   0.418  0.4274  0.0619 -0.0686
11455SOL    HW145294   4.525   0.435   0.362  1.4609  0.1790  1.0435
11455SOL    HW245295   4.449   0.578   0.387  0.3914 -0.0899 -0.5302
11456SOL     OW45296   3.661   1.221   1.247 -0.4737 -0.3232 -0.7476
11456SOL    HW145297   3.755   1.208   1.279 -0.3151  1.6525 -0.3581
11456SOL    HW245298   3.624   1.306   1.285 -2.2624 -0.8344 -1.2839
11457SOL     OW45299   0.484   1.105   4.510 -0.0665  0.2825  0.5132
11457SOL    HW145300   0.499   1.185   4.568 -0.2548  0.4540  0.3259
11457SOL    HW245301   0.413   1.048   4.550 -0.8578  0.8821 -0.0410
11458SOL     OW45302   0.236   5.581   4.699 -0.0552 -0.4657 -0.3602
11458SOL    HW145303   0.253   5.534   4.612  1.5201 -0.2386 -0.1974
11458SOL    HW245304   0.248   5.516   4.774 -0.3746 -0.4128 -0.2655
11459SOL     OW45305   2.270   6.441   6.295  0.4709 -0.5128  0.0486
11459SOL    HW145306   2.307   6.358   6.253 -0.9397 -1.3222  0.3627
11459SOL    HW245307   2.284   6.439   6.393  0.7822 -0.1940  0.0125
11460SOL     OW45308   9.756   1.008   2.349  0.5076 -0.0597 -0.0913
11460SOL    HW145309   9.813   0.961   2.416  1.2658  2.4483  1.0719
11460SOL    HW245310   9.815   1.060   2.286 -0.3491 -0.0548 -0.8959
11461SOL     OW45311   4.026   2.383   4.355 -0.0464  0.3990  0.1629
11461SOL    HW145312   4.113   2.374   4.307 -0.3509 -0.6938 -0.1931
11461SOL    HW245313   4.014   2.478   4.384  1.9262  0.2923  1.4828
11462SOL     OW45314   0.080   9.332   2.370 -0.0559  0.2536  0.5624
11462SOL    HW145315  -0.005   9.335   2.317 -0.2777 -0.8176  0.8422
11462SOL    HW245316   0.086   9.244   2.418  1.1505  0.3731  0.6420
11463SOL     OW45317   5.355   0.815   1.083 -0.4139  0.2409  0.2157
11463SOL    HW145318   5.297   0.882   1.130  1.2637 -0.2990  3.1878
11463SOL    HW245319   5.416   0.862   1.019 -1.4339  1.2071 -0.0592
11464SOL     OW45320   3.285   5.414   0.509  0.3793  0.3350  0.1340
11464SOL    HW145321   3.234   5.403   0.594 -0.3918 -1.0173 -0.4792
11464SOL    HW245322   3.249   5.350   0.441  1.4052  0.9618 -1.0084
11465SOL     OW45323   5.549   9.201   3.836  0.1111  0.3081 -0.2254
11465SOL    HW145324   5.633   9.222   3.887 -0.7834  1.6003  0.7404
11465SOL    HW245325   5.530   9.274   3.771 -1.4303  1.1136  1.0929
11466SOL     OW45326   8.525   0.782   0.496  0.1959 -0.6702  0.5390
11466SOL    HW145327   8.492   0.799   0.588  0.0763  0.3116  0.3178
11466SOL    HW245328   8.606   0.838   0.478  0.5570 -1.2784  0.2453
11467SOL     OW45329   4.607   7.314   2.615 -0.8581  0.2860 -0.2638
11467SOL    HW145330   4.598   7.251   2.538  0.6020  0.8639 -0.9170
11467SOL    HW245331   4.704   7.322   2.640 -1.0034  2.4230 -0.3286
11468SOL     OW45332   4.974   1.397   2.501 -0.3099  0.0829  0.5764
11468SOL    HW145333   4.899   1.366   2.443 -0.9554  0.0417  1.4272
11468SOL    HW245334   4.992   1.328   2.572  1.9149 -0.8941 -0.8673
11469SOL     OW45335   4.777   3.426   3.126  0.7964  0.2990 -0.3444
11469SOL    HW145336   4.860   3.419   3.181  0.4159 -0.1798  0.1722
11469SOL    HW245337   4.771   3.348   3.064  0.7746  0.3774 -0.4416
11470SOL     OW45338   2.351   5.504   2.893 -0.8425 -0.3171  0.2199
11470SOL    HW145339   2.321   5.547   2.979 -0.3902  0.0482  0.1988
11470SOL    HW245340   2.273   5.460   2.849 -1.2741  0.2944  0.3557
11471SOL     OW45341   1.016   8.798   4.143  0.6730 -0.3122  0.4602
11471SOL    HW145342   1.000   8.729   4.214  1.6446 -1.9560 -0.8959
11471SOL    HW245343   0.947   8.789   4.071  0.9118  0.0405  0.1860
11472SOL     OW45344   0.871   5.898   0.717 -0.3434 -0.1436 -0.3050
11472SOL    HW145345   0.830   5.974   0.768  0.2601 -0.5578  0.8245
11472SOL    HW245346   0.957   5.929   0.676 -0.3485 -0.0838 -0.2707
11473SOL     OW45347   6.109   4.304   0.324 -0.5738  0.1962 -0.1313
11473SOL    HW145348   6.136   4.390   0.368 -1.3906  0.3039  0.1861
11473SOL    HW245349   6.072   4.242   0.394 -0.4717 -0.2094 -0.4413
11474SOL     OW45350   9.286   4.302   5.750  0.2536  0.3609  1.1961
11474SOL    HW145351   9.224   4.272   5.822 -0.9382 -0.7218 -0.2320
11474SOL    HW245352   9.379   4.272   5.770  0.1212  0.9469  2.7597
11475SOL     OW45353   6.111   1.951   4.213  0.1726 -0.4253 -0.1958
11475SOL    HW145354   6.186   1.894   4.245 -0.0974 -0.6155  0.1044
11475SOL    HW245355   6.102   1.942   4.114 -0.1166 -1.2141 -0.1058
11476SOL     OW45356   8.346   5.669   1.543  0.4018 -0.5582  0.0203
11476SOL    HW145357   8.383   5.623   1.624 -0.4448 -0.5011  0.4522
11476SOL    HW245358   8.402   5.647   1.464  2.1674  0.6592  0.9009
11477SOL     OW45359   1.084   9.328   4.044  0.5601 -0.5527  0.0815
11477SOL    HW145360   1.023   9.390   3.994  2.4387 -0.0333 -1.6043
11477SOL    HW245361   1.078   9.236   4.004 -1.3534 -1.2704  1.8564
11478SOL     OW45362   2.067   7.996   5.549 -0.3219 -0.0077  0.3386
11478SOL    HW145363   2.096   8.091   5.535 -2.0411  0.4079 -0.5115
11478SOL    HW245364   1.974   7.995   5.586  0.1085 -1.3496  1.3998
11479SOL     OW45365   5.130   5.444   0.763  0.2733  0.3221  0.2233
11479SOL    HW145366   5.186   5.518   0.726  1.1251 -1.0321 -1.2593
11479SOL    HW245367   5.035   5.458   0.737  0.3842  1.0567  0.2068
11480SOL     OW45368   1.091   5.063   2.909 -0.4562  0.1302  0.6416
11480SOL    HW145369   1.097   4.963   2.904 -2.2206  0.0929 -1.1012
11480SOL    HW245370   1.126   5.093   2.998  1.1381 -1.9282  0.7647
11481SOL     OW45371   2.225   6.395   2.651 -0.2051 -0.1164 -0.4722
11481SOL    HW145372   2.272   6.365   2.734 -1.2871 -0.8462 -0.1062
11481SOL    HW245373   2.134   6.352   2.646  0.0779 -0.5753 -2.3380
11482SOL     OW45374   7.163   0.448   5.171 -0.3762 -0.4775 -0.2539
11482SOL    HW145375   7.064   0.459   5.161 -0.4073  2.3304  2.2281
11482SOL    HW245376   7.182   0.374   5.235 -0.9934  0.7907  1.4299
11483SOL     OW45377   8.251   5.930   4.885 -0.8532  0.1509 -0.2123
11483SOL    HW145378   8.178   5.867   4.856 -0.6915 -0.1511  0.0355
11483SOL    HW245379   8.236   5.957   4.980 -0.9882  0.5825 -0.3562
11484SOL     OW45380   5.639   5.383   0.981  0.4038  0.1877  0.5206
11484SOL    HW145381   5.716   5.362   0.921 -1.6569 -1.5309 -1.6247
11484SOL    HW245382   5.562   5.414   0.925 -1.3032 -0.6469  2.3913
11485SOL     OW45383   2.916   9.126   4.679  0.2756 -0.3080  0.2126
11485SOL    HW145384   2.960   9.092   4.595 -0.2362  0.8604 -0.5456
11485SOL    HW245385   2.820   9.102   4.678 -0.1361  1.2761 -0.4199
11486SOL     OW45386   6.966   0.981   0.657  0.6686 -0.1430  0.2482
11486SOL    HW145387   7.061   1.010   0.645  0.9481 -0.4427  1.5747
11486SOL    HW245388   6.915   1.053   0.705  0.8118 -0.9029  1.5736
11487SOL     OW45389   6.539   4.102   0.770 -0.3773 -0.6959  0.4111
11487SOL    HW145390   6.592   4.077   0.689 -2.8408  0.5720 -1.6791
11487SOL    HW245391   6.518   4.019   0.822  1.0001 -1.5679 -0.3693
11488SOL     OW45392   8.928   4.684   3.283  0.2155  0.1742  0.7072
11488SOL    HW145393   8.918   4.737   3.367  3.2457  2.1347 -0.0732
11488SOL    HW245394   9.015   4.635   3.285 -1.1630 -2.3849  0.0801
11489SOL     OW45395   7.690   1.695   3.847 -0.5807 -0.3237 -0.2761
11489SOL    HW145396   7.658   1.616   3.899 -0.6833  1.1953  2.0479
11489SOL    HW245397   7.612   1.749   3.816 -0.4622  0.4680  0.7549
11490SOL     OW45398   0.171   4.736   4.881 -0.5873  0.1725  0.8667
11490SOL    HW145399   0.169   4.643   4.847  0.9176 -0.4450  2.3986
11490SOL    HW245400   0.177   4.800   4.804 -1.1163 -1.0100 -0.1625
11491SOL     OW45401   9.521   4.254   2.723  0.3742  0.3986  0.0869
11491SOL    HW145402   9.581   4.312   2.777  0.0508  0.6005  0.2292
11491SOL    HW245403   9.426   4.267   2.752  0.2705  0.0245 -0.0840
11492SOL     OW45404   3.228   2.222   3.049 -0.2701  0.7148 -0.0047
11492SOL    HW145405   3.228   2.267   2.959  1.8291  0.0627 -0.3512
11492SOL    HW245406   3.201   2.289   3.119  0.8676  2.0124 -0.7693
11493SOL     OW45407   9.881   3.364   4.201 -0.1787 -0.0852 -0.1178
11493SOL    HW145408   9.851   3.349   4.295 -0.7994  2.5276  0.1502
11493SOL    HW245409   9.819   3.317   4.138 -0.2628 -1.1393  0.7431
11494SOL     OW45410   9.552   6.735   0.752 -0.4632  0.4509 -0.4003
11494SOL    HW145411   9.463   6.691   0.759  0.2446 -0.6690  2.2632
11494SOL    HW245412   9.541   6.834   0.753 -1.6951  0.3189 -0.4658
11495SOL     OW45413   7.382   2.424   0.716  0.1131 -0.0638 -0.4343
11495SOL    HW145414   7.392   2.522   0.732 -0.0891 -0.2745  1.0528
11495SOL    HW245415   7.418   2.401   0.626  0.4685  1.3258 -0.6522
11496SOL     OW45416   2.840   6.875   1.436 -0.2285 -0.1683  0.5501
11496SOL    HW145417   2.827   6.810   1.361  1.1148 -1.8396  1.7179
11496SOL    HW245418   2.937   6.896   1.445 -0.4520  0.5019  1.4267
11497SOL     OW45419   5.619   5.139   0.615 -0.0356  0.4202 -0.0073
11497SOL    HW145420   5.631   5.074   0.540  0.2787  0.0561  0.3560
11497SOL    HW245421   5.578   5.224   0.580  0.3437  0.3471 -0.6331
11498SOL     OW45422   0.181   4.995   1.372  0.4313 -0.4244  0.1094
11498SOL    HW145423   0.227   4.919   1.328  1.1288 -0.6322  1.1832
11498SOL    HW245424   0.121   5.041   1.306  1.3101 -0.8447 -0.9837
11499SOL     OW45425   4.773   8.997   1.456 -0.0091  0.3604  0.2189
11499SOL    HW145426   4.713   9.004   1.377  2.1882 -0.4149 -1.5738
11499SOL    HW245427   4.754   9.072   1.520 -2.5911  0.3197 -0.4548
11500SOL     OW45428   0.948   3.532   3.393 -0.1388 -0.1712 -0.4412
11500SOL    HW145429   0.853   3.553   3.370  0.3494  1.2910 -1.1957
11500SOL    HW245430   0.989   3.478   3.320  0.4302  1.6271 -1.4810
11501SOL     OW45431   9.388   3.438   2.997 -0.8305  0.0334  0.2664
11501SOL    HW145432   9.341   3.401   3.077  0.9275 -2.4686  0.2254
11501SOL    HW245433   9.375   3.376   2.920  0.7856  0.3400 -0.2713
11502SOL     OW45434   3.281   1.925   4.272  0.4803 -0.5039  0.5074
11502SOL    HW145435   3.239   1.840   4.303  0.0625 -1.0970 -1.6529
11502SOL    HW245436   3.283   1.990   4.348 -4.0025 -0.5540  0.7848
11503SOL     OW45437   2.300   4.062   4.460  0.2304  0.1241 -0.2223
11503SOL    HW145438   2.386   4.049   4.412  0.4388  1.4991 -0.2468
11503SOL    HW245439   2.288   4.159   4.481 -1.9240  0.1350 -1.3564
11504SOL     OW45440   7.307   8.459   2.024 -0.1878  0.5458  0.2769
11504SOL    HW145441   7.370   8.535   2.038  2.1950 -1.4370  0.6002
11504SOL    HW245442   7.324   8.388   2.092 -2.7622 -0.0677  0.3386
11505SOL     OW45443   2.352   8.343   3.747 -0.1527  0.2982  0.0411
11505SOL    HW145444   2.331   8.273   3.678  1.0661 -0.1627  0.1240
11505SOL    HW245445   2.361   8.432   3.702 -0.6363  0.2250 -0.2098
11506SOL     OW45446   0.069   0.791   4.849  0.1232  0.2382  0.1453
11506SOL    HW145447   0.070   0.747   4.939  0.1363  0.4886  0.2666
11506SOL    HW245448   0.132   0.869   4.848 -0.0485  0.3766 -0.0082
11507SOL     OW45449   8.278   0.087   4.390  0.3248  0.0939  0.3312
11507SOL    HW145450   8.202   0.084   4.454  1.0542 -0.9539  1.1621
11507SOL    HW245451   8.314  -0.005   4.376  2.2881  0.7189  0.9849
11508SOL     OW45452   5.958   0.730   5.452  0.1680  0.3670 -0.4695
11508SOL    HW145453   6.008   0.817   5.464  0.4936  0.3810 -1.8487
11508SOL    HW245454   6.014   0.667   5.399 -0.5681 -0.2557 -0.5093
11509SOL     OW45455   9.263   4.910   0.082  0.3590  0.2994  0.3128
11509SOL    HW145456   9.205   4.851   0.026  0.7687  0.1646  0.0256
11509SOL    HW245457   9.320   4.853   0.141  0.8073  0.4037 -0.0180
11510SOL     OW45458   0.618   8.153   5.249 -0.0972  0.2662  0.1694
11510SOL    HW145459   0.569   8.100   5.318  1.6920 -0.8539  0.5883
11510SOL    HW245460   0.639   8.095   5.170  0.0875  0.8844 -0.2420
11511SOL     OW45461   9.191   5.706   5.092  0.6038 -0.5863 -0.1583
11511SOL    HW145462   9.149   5.795   5.072  0.3699 -0.4389  0.9483
11511SOL    HW245463   9.236   5.671   5.010  1.2411  0.8464 -0.4354
11512SOL     OW45464   7.419   6.605   2.767 -0.2639 -0.4011  0.0006
11512SOL    HW145465   7.472   6.689   2.759  0.9518 -1.2783 -1.4321
11512SOL    HW245466   7.323   6.623   2.747  0.3391  0.2645 -2.4420
11513SOL     OW45467   4.460   9.538   0.813  0.8422  0.5159  0.2980
11513SOL    HW145468   4.469   9.477   0.734 -1.0293  1.0492 -0.3563
11513SOL    HW245469   4.515   9.503   0.888  0.8046 -1.2950 -0.4847
11514SOL     OW45470   2.249   5.140   6.424 -0.3561  1.0164  0.0939
11514SOL    HW145471   2.257   5.172   6.519 -1.4984 -0.1183  0.5726
11514SOL    HW245472   2.309   5.061   6.411  1.3337  2.3720 -0.6975
11515SOL     OW45473   1.960   3.475   5.540 -0.2901 -0.0018 -0.4133
11515SOL    HW145474   1.979   3.494   5.443  0.0557 -2.4303 -0.8535
11515SOL    HW245475   1.875   3.521   5.567  0.2399  1.6687 -1.5318
11516SOL     OW45476   1.556   8.547   5.132  0.3530 -0.0663 -0.0428
11516SOL    HW145477   1.516   8.638   5.133  1.7278  0.5626  1.3677
11516SOL    HW245478   1.638   8.547   5.075  0.9427 -0.1294  0.7879
11517SOL     OW45479   9.462   2.863   2.772 -0.4463  0.0347  0.1443
11517SOL    HW145480   9.490   2.876   2.867 -3.2496 -1.1513  1.1794
11517SOL    HW245481   9.535   2.816   2.722  0.5396 -0.4997  2.0477
11518SOL     OW45482   2.269   8.917   3.397  0.0950  0.2998  0.2524
11518SOL    HW145483   2.183   8.930   3.447  0.1908  1.1290  0.2131
11518SOL    HW245484   2.251   8.868   3.312  0.0077 -1.5942  1.3386
11519SOL     OW45485   5.349   1.128   4.043  0.6662  0.0776 -0.0421
11519SOL    HW145486   5.268   1.132   3.985  1.5099  0.4194 -1.2064
11519SOL    HW245487   5.371   1.033   4.065  0.7927 -0.0940 -0.9164
11520SOL     OW45488   3.522   4.129   2.063  0.5128  0.9173  0.1133
11520SOL    HW145489   3.536   4.202   2.129 -3.2711  0.7686  1.2268
11520SOL    HW245490   3.545   4.161   1.971  0.4084  3.0055  0.8041
11521SOL     OW45491   2.867   6.145   4.677 -0.2575 -0.3872 -0.2380
11521SOL    HW145492   2.824   6.088   4.606 -0.3653 -0.7223  0.0907
11521SOL    HW245493   2.841   6.110   4.767 -1.8914  1.3568 -0.0102
11522SOL     OW45494   3.791   7.236   1.599  0.6248  0.3237  0.1562
11522SOL    HW145495   3.696   7.233   1.566  0.7897  1.0172 -0.4058
11522SOL    HW245496   3.791   7.235   1.699  0.0309  0.0462  0.1577
11523SOL     OW45497   0.542   4.766   5.681 -0.0410  0.0270  0.5647
11523SOL    HW145498   0.620   4.790   5.624 -0.7045  3.1572  0.8847
11523SOL    HW245499   0.475   4.715   5.627  2.3832 -3.2171  0.4319
11524SOL     OW45500   3.198   2.211   0.854  0.0584 -0.1989 -0.0059
11524SOL    HW145501   3.127   2.262   0.903 -1.9337 -1.4441 -1.5310
11524SOL    HW245502   3.185   2.113   0.869  0.0534 -0.5528 -2.1388
11525SOL     OW45503   9.870   1.208   1.358 -0.4602 -0.0836  0.3178
11525SOL    HW145504   9.870   1.135   1.426 -0.8539  0.2390  0.6663
11525SOL    HW245505   9.817   1.179   1.278  0.9710 -0.9191 -0.3554
11526SOL     OW45506   1.583   3.334   0.749 -0.1473 -0.2296 -0.4457
11526SOL    HW145507   1.586   3.402   0.676  1.2593  0.4897  0.2737
11526SOL    HW245508   1.626   3.249   0.717 -0.1395 -0.1445 -0.6650
11527SOL     OW45509   0.528   0.057   1.897  0.1236 -0.4929  0.1000
11527SOL    HW145510   0.489   0.025   1.983 -1.0870 -0.2188 -0.3305
11527SOL    HW245511   0.545   0.156   1.902  0.0016 -0.4670  0.0076
11528SOL     OW45512   4.334   3.132   2.244  0.2657 -0.2935 -0.2489
11528SOL    HW145513   4.390   3.052   2.220  1.0768 -0.3361  1.7235
11528SOL    HW245514   4.394   3.206   2.276 -0.6758  0.2458  0.2705
11529SOL     OW45515   1.860   2.483   4.216  0.2526 -0.4380 -0.1175
11529SOL    HW145516   1.874   2.574   4.256 -1.4813 -0.0503 -0.3236
11529SOL    HW245517   1.768   2.479   4.175 -0.2485 -2.7716  1.1656
11530SOL     OW45518   9.806   4.844   0.006 -0.2100  0.0419 -0.2162
11530SOL    HW145519   9.788   4.843  -0.093  2.2180 -1.3983 -0.6846
11530SOL    HW245520   9.724   4.814   0.054 -1.4492  0.8059 -1.7737
11531SOL     OW45521   2.329   8.174   1.702  0.3748  0.9390 -0.2661
11531SOL    HW145522   2.253   8.139   1.755  0.8266 -1.7440 -1.3100
11531SOL    HW245523   2.304   8.263   1.662 -0.9619  1.6440  2.0403
11532SOL     OW45524   8.222   5.431   1.883  0.4786 -0.3374 -0.0112
11532SOL    HW145525   8.178   5.520   1.897 -1.8524 -1.4837  0.1127
11532SOL    HW245526   8.255   5.396   1.970  2.2766  0.8269 -0.2018
11533SOL     OW45527   7.516   3.892   0.930 -0.4941  0.1308  0.1068
11533SOL    HW145528   7.530   3.886   1.028 -0.5127 -1.1675  0.0365
11533SOL    HW245529   7.541   3.984   0.898 -0.7418  0.6419  1.3498
11534SOL     OW45530   5.213   9.575   3.746 -0.3974  0.6956  0.4655
11534SOL    HW145531   5.142   9.572   3.817 -1.1302 -1.9512 -0.3225
11534SOL    HW245532   5.171   9.604   3.660  0.0411  1.7020  0.5826
11535SOL     OW45533   5.031   9.574   0.879  0.3139 -0.3189  0.1431
11535SOL    HW145534   5.104   9.553   0.945  0.6426 -1.4812 -0.5678
11535SOL    HW245535   4.945   9.587   0.928  0.5711 -1.0674  0.8071
11536SOL     OW45536   9.098   8.022   1.612  0.6527 -0.9026  0.1258
11536SOL    HW145537   9.197   8.024   1.624  0.8813 -1.4693 -1.5526
11536SOL    HW245538   9.064   7.931   1.635  0.5883 -0.8540  0.2232
11537SOL     OW45539   9.225   4.529   3.592  0.8144  0.4112  0.4416
11537SOL    HW145540   9.148   4.466   3.597  2.0618 -1.2030 -0.1873
11537SOL    HW245541   9.304   4.489   3.638  1.1286  2.3241  1.6608
11538SOL     OW45542   9.153   5.388   0.922  0.7732 -0.2236 -0.5633
11538SOL    HW145543   9.186   5.452   0.992  0.6396  0.9853 -1.5834
11538SOL    HW245544   9.134   5.300   0.964  0.9529  0.4091  0.8813
11539SOL     OW45545   9.095   8.684   3.465 -0.0975  0.0378 -0.5404
11539SOL    HW145546   9.118   8.699   3.369  0.8277 -0.1765 -0.3597
11539SOL    HW245547   9.050   8.596   3.476 -0.2290  0.0772 -0.7811
11540SOL     OW45548   1.061   4.586   6.235  0.1465 -0.5194 -0.0729
11540SOL    HW145549   0.997   4.598   6.159  0.4813 -0.8822 -0.4108
11540SOL    HW245550   1.042   4.500   6.282 -2.9484  1.7226  3.0155
11541SOL     OW45551   4.489   2.192   0.682  0.4151 -1.0693  0.6025
11541SOL    HW145552   4.584   2.210   0.654 -0.2309 -0.9436 -1.5865
11541SOL    HW245553   4.485   2.104   0.729  1.7619 -0.6526  1.5422
11542SOL     OW45554   0.926   1.759   4.837 -0.4318  0.0675  0.3464
11542SOL    HW145555   0.879   1.699   4.901 -1.1682 -0.3464 -0.5829
11542SOL    HW245556   0.926   1.718   4.745  1.0702  0.4081  0.1775
11543SOL     OW45557   1.256   6.365   0.199 -0.4296  0.4846 -0.9225
11543SOL    HW145558   1.220   6.279   0.163 -1.1844  1.1150 -1.7040
11543SOL    HW245559   1.332   6.397   0.142  0.4206 -0.0945 -0.1297
11544SOL     OW45560   2.757   3.870   5.458  0.5475 -0.8068  0.4067
11544SOL    HW145561   2.696   3.935   5.505 -0.5621 -0.4213 -1.5184
11544SOL    HW245562   2.818   3.920   5.397  0.6673 -1.4620 -0.0076
11545SOL     OW45563   9.344   0.700   3.162  0.4230 -0.2827 -0.4752
11545SOL    HW145564   9.279   0.672   3.092 -2.6434  2.7596  0.9535
11545SOL    HW245565   9.325   0.652   3.248 -1.1435  1.8771  0.4225
11546SOL     OW45566   2.878   2.708   0.660 -0.3248 -0.1177  0.1518
11546SOL    HW145567   2.887   2.723   0.561  1.2119  0.5974  0.3700
11546SOL    HW245568   2.782   2.713   0.686 -0.7888 -0.7379 -1.3722
11547SOL     OW45569   4.631   3.910   0.271  0.1027  0.2987  0.0362
11547SOL    HW145570   4.652   3.859   0.354 -1.5009 -0.9885 -0.3181
11547SOL    HW245571   4.615   4.006   0.293  2.0611  0.4479  0.8650
11548SOL     OW45572   9.080   0.601   1.529  0.0664 -0.0732  0.2588
11548SOL    HW145573   9.159   0.554   1.570 -0.2569  0.9285  2.1069
11548SOL    HW245574   9.018   0.631   1.602 -0.6851  1.5149 -1.0042
11549SOL     OW45575   0.993   3.334   5.633  0.5214  0.3304  0.1801
11549SOL    HW145576   0.963   3.240   5.652  2.1508  0.0672  1.7185
11549SOL    HW245577   1.008   3.346   5.535 -0.3210 -0.8248 -0.0970
11550SOL     OW45578   2.302   9.800   4.411 -0.4439 -0.1857  0.2536
11550SOL    HW145579   2.211   9.834   4.435 -0.0884 -0.5824  2.2608
11550SOL    HW245580   2.371   9.853   4.460  0.3280 -0.7859 -0.1801
11551SOL     OW45581   4.616   5.986   0.790 -0.4234 -0.2023  0.2697
11551SOL    HW145582   4.630   6.064   0.730  0.7481  0.5222  1.4518
11551SOL    HW245583   4.678   5.912   0.763 -0.5626 -0.2176 -0.0040
11552SOL     OW45584   3.764   1.212   2.650 -0.0742 -0.0044  0.7977
11552SOL    HW145585   3.745   1.170   2.561 -0.5420 -0.3668  1.0683
11552SOL    HW245586   3.853   1.182   2.683 -0.5256 -1.0060  1.1174
11553SOL     OW45587   2.774   3.839   0.959 -0.0453  0.2860  0.2632
11553SOL    HW145588   2.710   3.916   0.963  0.3229  0.6030  0.1693
11553SOL    HW245589   2.791   3.815   0.863  0.9440  1.0312  0.2382
11554SOL     OW45590   3.273   5.463   2.156 -0.3908 -0.1644 -0.2371
11554SOL    HW145591   3.370   5.481   2.172 -0.7239  0.3334  1.3715
11554SOL    HW245592   3.235   5.533   2.096 -0.3523  1.2379  1.3175
11555SOL     OW45593   3.061   4.109   2.358 -0.6673  0.1288 -0.3203
11555SOL    HW145594   3.108   4.102   2.270 -0.7689 -0.4517 -0.3301
11555SOL    HW245595   2.984   4.046   2.360 -1.9404  1.6492 -0.5969
11556SOL     OW45596   1.143   4.751   0.268 -0.1833  0.2964 -0.0079
11556SOL    HW145597   1.112   4.839   0.304 -1.2452 -0.9868  2.3455
11556SOL    HW245598   1.066   4.702   0.229  0.2183 -0.0247 -0.4056
11557SOL     OW45599   4.807   1.695   1.170  0.2559  0.2081 -0.2686
11557SOL    HW145600   4.907   1.696   1.158  0.3661 -1.3884  0.4394
11557SOL    HW245601   4.764   1.737   1.090  1.4079 -0.9095 -1.5128
11558SOL     OW45602   2.484   5.694   1.719 -0.4411  0.5494  0.1315
11558SOL    HW145603   2.537   5.775   1.695 -1.2581  0.9172 -0.4867
11558SOL    HW245604   2.539   5.633   1.775 -0.9463  3.1584  3.5863
11559SOL     OW45605   4.773   2.110   4.855 -0.2952 -0.0225  0.0728
11559SOL    HW145606   4.720   2.027   4.873  1.4246 -0.8608  1.3935
11559SOL    HW245607   4.864   2.086   4.822 -0.9131  1.4219 -2.7967
11560SOL     OW45608   5.777   7.513   4.185 -0.3806 -0.0445  0.2864
11560SOL    HW145609   5.809   7.447   4.253  0.0740  0.6886  0.7952
11560SOL    HW245610   5.833   7.596   4.190 -1.0964  0.4758 -0.1792
11561SOL     OW45611   2.156   8.020   5.878  0.6116  0.0843 -0.0110
11561SOL    HW145612   2.059   8.001   5.867  1.1590 -2.9643  0.1420
11561SOL    HW245613   2.170   8.119   5.878 -2.4214  0.5706 -0.4408
11562SOL     OW45614   7.782   0.659   2.119  0.0686 -0.4705  0.0039
11562SOL    HW145615   7.693   0.616   2.102  0.1249 -0.5115 -0.1806
11562SOL    HW245616   7.775   0.717   2.200 -0.0716 -0.6381  0.1131
11563SOL     OW45617   9.145   1.826   1.984  0.1279  0.2284  0.0741
11563SOL    HW145618   9.071   1.859   2.042  1.8494  2.7397  0.9068
11563SOL    HW245619   9.230   1.875   2.006  1.9146 -2.1286 -1.2872
11564SOL     OW45620   6.603   7.693   4.765 -0.5494 -0.3556 -0.1390
11564SOL    HW145621   6.680   7.631   4.751 -1.4904 -2.1716  2.3373
11564SOL    HW245622   6.603   7.764   4.694  3.6371 -0.0396  0.0762
11565SOL     OW45623   8.703   0.430   4.196  0.5634 -0.1583  0.3065
11565SOL    HW145624   8.771   0.464   4.131  1.2845 -0.6750  0.7908
11565SOL    HW245625   8.718   0.333   4.212  0.0900 -0.1352  0.8856
11566SOL     OW45626   3.980   3.806   3.087 -0.3991 -0.8488  0.6076
11566SOL    HW145627   3.953   3.887   3.035  0.2035 -0.6260  0.6387
11566SOL    HW245628   4.066   3.771   3.051 -1.3121 -2.2426 -0.2521
11567SOL     OW45629   0.007   1.083   0.794  0.3157 -0.1566  0.3626
11567SOL    HW145630  -0.020   1.124   0.706  0.1882 -1.3478 -0.1726
11567SOL    HW245631  -0.054   1.007   0.814 -0.0391  0.5027  1.8069
11568SOL     OW45632   2.043   5.139   1.518 -0.1976  0.0687 -0.0058
11568SOL    HW145633   2.028   5.195   1.437 -0.7583 -0.0997 -0.0148
11568SOL    HW245634   1.956   5.121   1.564 -0.0607 -1.0372 -0.1581
11569SOL     OW45635   7.396   0.760   1.537 -0.4900 -0.1016  0.1575
11569SOL    HW145636   7.338   0.746   1.457  0.2097 -1.4273 -0.1344
11569SOL    HW245637   7.386   0.682   1.599 -1.0145  0.9172  1.3562
11570SOL     OW45638   4.928   2.499   3.819 -0.4901 -0.6077  0.0557
11570SOL    HW145639   5.027   2.504   3.824 -0.4389 -0.7025 -0.7487
11570SOL    HW245640   4.892   2.584   3.780 -0.5713 -1.3200 -1.4723
11571SOL     OW45641   9.045   4.571   2.258  0.0019  0.3229  0.9581
11571SOL    HW145642   9.102   4.649   2.284  1.1641 -0.2404  0.1714
11571SOL    HW245643   9.044   4.563   2.158 -0.5225 -0.3679  1.0175
11572SOL     OW45644   5.166   5.858   1.536 -0.4659 -0.0889 -0.3012
11572SOL    HW145645   5.104   5.936   1.545  0.0277  0.3797 -0.8535
11572SOL    HW245646   5.130   5.780   1.588 -1.3833  0.2484 -0.4174
11573SOL     OW45647   5.831   4.225   6.681 -0.4830  0.7570  0.5850
11573SOL    HW145648   5.855   4.206   6.586  0.5920  0.2173  0.9618
11573SOL    HW245649   5.914   4.234   6.736 -1.0913  1.2958  1.4362
11574SOL     OW45650   9.873   4.272   4.638  0.1175 -0.0372 -0.0484
11574SOL    HW145651   9.817   4.333   4.695  1.9593  0.7632  0.9437
11574SOL    HW245652   9.900   4.321   4.555  2.0153  0.6851  0.9836
11575SOL     OW45653   0.682   4.595   0.040 -0.2418  0.3409 -0.2317
11575SOL    HW145654   0.691   4.622  -0.055 -0.1770 -0.6919 -0.5244
11575SOL    HW245655   0.767   4.616   0.089  0.4768 -0.9957 -0.8779
11576SOL     OW45656   0.203   9.718   3.231 -0.0249  0.6422  0.4233
11576SOL    HW145657   0.205   9.755   3.139  0.2294  0.0030  0.1670
11576SOL    HW245658   0.293   9.680   3.254 -0.2459  0.2893  0.7147
11577SOL     OW45659   5.839   9.127   3.722  0.0383  0.0340  0.1238
11577SOL    HW145660   5.809   9.109   3.816 -0.4349 -2.3086 -0.4493
11577SOL    HW245661   5.797   9.212   3.690 -1.8838 -0.5060  1.1432
11578SOL     OW45662   6.322   0.886   1.903 -0.2011  0.0191  0.2454
11578SOL    HW145663   6.234   0.840   1.887 -1.1745  1.5750  0.9838
11578SOL    HW245664   6.383   0.824   1.952 -0.6860 -1.2781 -0.7487
11579SOL     OW45665   4.397   0.265   1.504 -0.3303  0.0128 -0.1176
11579SOL    HW145666   4.361   0.213   1.581 -1.9092  2.6241  0.9521
11579SOL    HW245667   4.356   0.230   1.419 -1.2522 -0.5912  0.5624
11580SOL     OW45668   0.891   9.698   3.131 -0.0614  0.0264 -1.0194
11580SOL    HW145669   0.981   9.658   3.112  0.7845  2.1962 -1.7368
11580SOL    HW245670   0.831   9.683   3.052 -0.4347 -1.6351 -0.4443
11581SOL     OW45671   2.163   5.471   3.864 -0.6242 -0.0078  0.0905
11581SOL    HW145672   2.258   5.500   3.854 -0.8347  0.2490 -1.1856
11581SOL    HW245673   2.112   5.538   3.918 -0.0121 -0.2935  1.0237
11582SOL     OW45674   8.139   2.042   2.780 -0.1960  0.4539 -0.2859
11582SOL    HW145675   8.152   1.988   2.697  1.4084  0.3225  0.0358
11582SOL    HW245676   8.079   1.992   2.843 -0.2265 -0.1032 -0.7495
11583SOL     OW45677   9.664   8.305   4.766  0.1335 -0.2257 -0.3757
11583SOL    HW145678   9.607   8.345   4.694  0.4643 -0.3224 -0.6892
11583SOL    HW245679   9.627   8.331   4.855 -0.3994 -0.2818 -0.5794
11584SOL     OW45680   0.971   4.393   3.509  0.1932 -0.1013  0.1759
11584SOL    HW145681   0.938   4.309   3.554  1.1525 -0.8605 -0.5096
11584SOL    HW245682   0.979   4.466   3.577  1.3083 -1.1521  1.1994
11585SOL     OW45683   1.189   6.164   1.621  0.1974 -0.0978  0.3030
11585SOL    HW145684   1.262   6.149   1.688 -0.0496  0.1167  0.6207
11585SOL    HW245685   1.183   6.085   1.560 -0.9444 -1.1978  1.8084
11586SOL     OW45686   6.560   9.866   5.226  0.0123  0.2986 -0.4119
11586SOL    HW145687   6.527   9.889   5.135 -2.0961 -1.8423 -0.2209
11586SOL    HW245688   6.490   9.888   5.294  0.1513 -1.4148  0.3176
11587SOL     OW45689   9.831   8.695   4.920 -0.1585  0.1240 -0.1026
11587SOL    HW145690   9.902   8.692   4.849 -3.6710 -0.5263 -3.7601
11587SOL    HW245691   9.853   8.629   4.992  1.1959 -2.6679 -2.9421
11588SOL     OW45692   8.341   3.259   4.617  0.2569 -0.5424 -0.3189
11588SOL    HW145693   8.415   3.254   4.684  0.7903 -1.3541 -0.9411
11588SOL    HW245694   8.253   3.255   4.663  0.6171 -0.4747  0.3769
11589SOL     OW45695   5.479   4.697   1.018  0.1753 -0.3425 -0.2572
11589SOL    HW145696   5.516   4.665   1.105  0.1002 -1.1394 -0.5137
11589SOL    HW245697   5.472   4.797   1.019 -3.6853 -0.5165  2.2427
11590SOL     OW45698   8.877   1.929   4.691 -0.0034  0.4837 -0.0396
11590SOL    HW145699   8.902   1.923   4.787 -0.6338  0.5826  0.1340
11590SOL    HW245700   8.927   1.860   4.639 -0.5041 -0.3206  0.5333
11591SOL     OW45701   4.142   6.928   0.888  0.3819 -0.4023 -0.6138
11591SOL    HW145702   4.061   6.954   0.938  0.4792 -0.9533 -0.1626
11591SOL    HW245703   4.191   7.010   0.857  0.7576 -0.0596  0.8879
11592SOL     OW45704   3.849   4.288   1.076  0.0534  0.4684 -0.6077
11592SOL    HW145705   3.938   4.241   1.082 -0.1170  0.2547  0.3775
11592SOL    HW245706   3.776   4.222   1.093 -0.3542  0.4393 -2.4048
11593SOL     OW45707   6.442   0.183   4.300 -0.2657  0.3447 -1.0048
11593SOL    HW145708   6.356   0.138   4.323 -0.5489  1.9036  1.0782
11593SOL    HW245709   6.517   0.138   4.349 -0.3125  0.9574 -0.3625
11594SOL     OW45710   8.527   3.830   2.339 -0.1898  0.3109  0.4966
11594SOL    HW145711   8.550   3.874   2.426  1.6237  2.0738 -0.8087
11594SOL    HW245712   8.602   3.769   2.312  1.4153  3.2541 -1.9874
11595SOL     OW45713   2.907   7.120   1.091 -0.0407 -0.9088  0.3849
11595SOL    HW145714   2.842   7.045   1.079 -0.7504 -0.4557  1.3234
11595SOL    HW245715   2.859   7.207   1.086  1.0801 -0.3926 -2.7941
11596SOL     OW45716   8.416   9.841   1.094  0.1598 -0.0655  0.7550
11596SOL    HW145717   8.367   9.906   1.036  2.1196  1.1900  0.4498
11596SOL    HW245718   8.429   9.880   1.185  0.0173 -0.6779  1.0452
11597SOL     OW45719   7.667   9.919   2.249  0.1161  0.9204 -0.0234
11597SOL    HW145720   7.578   9.877   2.232 -0.2776  1.9725 -0.6360
11597SOL    HW245721   7.680   9.931   2.348 -0.9732  1.8927  0.0184
11598SOL     OW45722   0.485   3.635   1.643 -0.1316 -0.2268 -0.2239
11598SOL    HW145723   0.495   3.625   1.742  0.3085 -1.3809 -0.3846
11598SOL    HW245724   0.575   3.635   1.600 -0.4204 -2.5676 -0.8886
11599SOL     OW45725   4.248   0.209   1.240  0.4026  0.2526 -0.5019
11599SOL    HW145726   4.292   0.126   1.205  1.5777 -0.8385  3.3867
11599SOL    HW245727   4.149   0.202   1.227  0.6948 -0.6537 -2.3969
11600SOL     OW45728   3.496   3.705   4.649  0.4512  0.6399  0.1708
11600SOL    HW145729   3.450   3.651   4.578  0.5777  0.0783  0.5098
11600SOL    HW245730   3.434   3.721   4.725  1.2847 -1.4892  1.3408
11601SOL     OW45731   0.108   8.594   3.515  0.6938  0.0137  0.5122
11601SOL    HW145732   0.206   8.573   3.512  0.5773 -0.4718  0.0415
11601SOL    HW245733   0.067   8.574   3.426  0.5436  2.1002  0.0876
11602SOL     OW45734   5.412   2.138   1.673  0.1645  0.4071 -0.4992
11602SOL    HW145735   5.367   2.198   1.607  0.4615 -0.3048 -1.3621
11602SOL    HW245736   5.456   2.192   1.744 -0.3660  1.1730 -0.7567
11603SOL     OW45737   6.553   8.903   2.844  0.3388  0.4102 -0.1687
11603SOL    HW145738   6.520   8.974   2.906 -0.9121  0.0224 -0.3746
11603SOL    HW245739   6.608   8.838   2.895 -1.0352 -0.1436  0.6492
11604SOL     OW45740   9.037   6.266   3.627 -0.1910  0.2423  0.5970
11604SOL    HW145741   9.130   6.250   3.660 -0.5074  0.0025  1.3767
11604SOL    HW245742   8.973   6.210   3.680 -0.5809 -1.0766 -1.2119
11605SOL     OW45743   0.361   6.428   0.184 -0.3504 -0.1778  0.0902
11605SOL    HW145744   0.351   6.442   0.086  0.1539 -2.0245 -0.2500
11605SOL    HW245745   0.458   6.419   0.207 -0.5572 -1.7808  0.4291
11606SOL     OW45746   3.180   9.530   1.416  0.1086 -0.1665  0.7923
11606SOL    HW145747   3.173   9.616   1.467 -0.5398  0.6162 -0.5905
11606SOL    HW245748   3.266   9.530   1.364 -0.0823 -0.1771  0.4777
11607SOL     OW45749   2.745   0.922   2.084  0.5899 -0.0945  0.5176
11607SOL    HW145750   2.749   0.841   2.143 -3.5814 -1.6577 -1.1662
11607SOL    HW245751   2.814   0.914   2.012  1.4848 -1.2290  1.4918
11608SOL     OW45752   9.685   4.179   0.101 -0.1029 -0.7004 -0.1828
11608SOL    HW145753   9.663   4.214   0.010  0.5479 -0.0311 -0.0915
11608SOL    HW245754   9.641   4.091   0.115 -2.3324  0.3886 -0.1808
11609SOL     OW45755   9.401   9.736   0.873 -0.3901  0.3641 -0.1698
11609SOL    HW145756   9.461   9.800   0.824  0.8608 -1.1048 -0.6044
11609SOL    HW245757   9.450   9.697   0.950 -1.3353  0.3451  0.4241
11610SOL     OW45758   1.550   3.764   3.568  0.2423 -0.1750  0.5081
11610SOL    HW145759   1.599   3.680   3.588 -1.3211 -0.9753  1.0158
11610SOL    HW245760   1.496   3.792   3.648 -1.1266 -0.0004 -0.4576
11611SOL     OW45761   9.743   3.157   6.712  0.2353  0.7443 -0.0056
11611SOL    HW145762   9.815   3.094   6.683  0.3308  1.2716 -0.9121
11611SOL    HW245763   9.732   3.151   6.812  1.1689  0.2890  0.0717
11612SOL     OW45764   0.352   3.987   3.267  0.3002 -0.1191 -0.1518
11612SOL    HW145765   0.280   4.035   3.217  1.0765  0.5226 -0.6629
11612SOL    HW245766   0.380   3.906   3.215 -0.3338 -0.5917  0.2427
11613SOL     OW45767   1.190   0.148   1.682  0.6738 -0.5334 -0.0035
11613SOL    HW145768   1.214   0.200   1.600  1.3032 -1.4860 -0.4444
11613SOL    HW245769   1.140   0.206   1.746  2.4125  0.9620  0.0526
11614SOL     OW45770   9.316   8.494   4.186  0.1264 -0.1740 -0.2688
11614SOL    HW145771   9.388   8.543   4.138 -0.5767  0.2099 -0.9350
11614SOL    HW245772   9.232   8.548   4.187  0.0554 -0.2713  1.1922
11615SOL     OW45773   2.948   4.804   3.636 -0.1148  1.0670 -0.0874
11615SOL    HW145774   3.029   4.847   3.598 -1.0627  3.0747  0.0930
11615SOL    HW245775   2.868   4.829   3.581 -0.9108  0.7902  0.9280
11616SOL     OW45776   1.761   3.276   3.632 -1.1684 -0.1076 -0.4771
11616SOL    HW145777   1.786   3.254   3.726 -1.2201 -0.5160 -0.5574
11616SOL    HW245778   1.665   3.251   3.617 -1.2070  0.1081 -0.5915
11617SOL     OW45779   3.468   4.558   4.599  0.1982 -0.0212  0.0330
11617SOL    HW145780   3.500   4.641   4.645  1.5775 -0.9099  0.7008
11617SOL    HW245781   3.374   4.538   4.628  1.0225 -0.5391  2.4601
11618SOL     OW45782   4.819   7.476   5.054 -0.2845 -0.1699  0.5788
11618SOL    HW145783   4.752   7.477   4.980  0.1678  1.0105  0.1730
11618SOL    HW245784   4.777   7.511   5.138 -0.1561  0.7127  0.2870
11619SOL     OW45785   2.965   1.607   1.303  0.0395 -0.2615  0.1900
11619SOL    HW145786   2.941   1.678   1.237 -0.4983 -0.2108  0.4372
11619SOL    HW245787   3.053   1.567   1.278 -0.9549 -1.4377 -1.5540
11620SOL     OW45788   8.671   1.495   2.206 -0.1819 -0.5947  0.1393
11620SOL    HW145789   8.730   1.540   2.139 -0.4102  1.7954  1.4479
11620SOL    HW245790   8.639   1.408   2.170  0.7014  0.0550 -2.3228
11621SOL     OW45791   0.044   7.109   1.708 -0.0513 -0.1355  0.1790
11621SOL    HW145792   0.061   7.171   1.632  1.5878 -1.8215 -0.8699
11621SOL    HW245793  -0.054   7.098   1.721 -0.3562  1.8414 -0.2888
11622SOL     OW45794   4.604   8.369   3.890 -0.0767 -0.4579 -0.2046
11622SOL    HW145795   4.650   8.303   3.831 -1.2125 -0.6141 -0.9259
11622SOL    HW245796   4.629   8.351   3.985 -0.4040 -1.9377 -0.3890
11623SOL     OW45797   1.452   3.542   4.582  0.3980 -0.1867 -0.9006
11623SOL    HW145798   1.467   3.596   4.499 -2.3136  1.0024 -0.6744
11623SOL    HW245799   1.476   3.597   4.662 -1.0295  0.2235 -0.7358
11624SOL     OW45800   0.856   5.028   6.352  0.3846 -0.2602  0.3116
11624SOL    HW145801   0.914   5.063   6.279 -2.0635  0.9664 -1.1161
11624SOL    HW245802   0.857   4.928   6.350  1.1893 -0.2467 -0.6854
11625SOL     OW45803   5.228   3.509   6.645 -0.1392 -0.4357 -0.5526
11625SOL    HW145804   5.193   3.599   6.620  0.9313  0.5689  1.5058
11625SOL    HW245805   5.156   3.458   6.692  0.0770  0.3520  0.6510
11626SOL     OW45806   1.636   3.549   2.977 -0.4721  0.1830 -0.0021
11626SOL    HW145807   1.734   3.542   2.997 -0.5920  0.2103  0.6046
11626SOL    HW245808   1.592   3.462   2.997 -0.9379  0.8103  1.8036
11627SOL     OW45809   2.873   3.453   5.240  0.3639  0.1842  0.0790
11627SOL    HW145810   2.834   3.486   5.154  0.0238 -1.8461 -0.5918
11627SOL    HW245811   2.815   3.483   5.316  0.1290  1.1850 -0.4839
11628SOL     OW45812   8.018   2.995   0.866 -0.0375 -0.0291  0.2853
11628SOL    HW145813   8.107   3.039   0.855 -0.1068  0.2788  0.8953
11628SOL    HW245814   8.015   2.948   0.954  0.3004 -1.9246 -0.6816
11629SOL     OW45815   8.390   2.766   3.072  0.1719  1.0837  0.1968
11629SOL    HW145816   8.348   2.855   3.093 -1.5266  0.3347  0.1146
11629SOL    HW245817   8.403   2.758   2.973 -2.4421  0.1063 -0.1237
11630SOL     OW45818   2.216   0.673   3.796  0.5139  0.5019 -0.0091
11630SOL    HW145819   2.178   0.662   3.888 -2.3768  1.1822 -1.0480
11630SOL    HW245820   2.167   0.746   3.748  2.6898  0.8873 -1.7437
11631SOL     OW45821   8.880   4.139   0.620 -0.3435  0.1170  0.3874
11631SOL    HW145822   8.812   4.212   0.628  0.5987  1.3725 -2.3405
11631SOL    HW245823   8.860   4.067   0.687 -3.4441  1.1557  0.6582
11632SOL     OW45824   0.855   3.205   3.356  0.4349  0.0651  1.5597
11632SOL    HW145825   0.780   3.232   3.417  1.6565  2.8419  1.9138
11632SOL    HW245826   0.818   3.158   3.276 -1.6215  0.8349  2.0326
11633SOL     OW45827   8.283   9.687   5.126  0.9218  0.3001 -0.0369
11633SOL    HW145828   8.206   9.741   5.092  0.3486 -0.6308 -0.2275
11633SOL    HW245829   8.369   9.730   5.098  0.4962  1.8566  0.9494
11634SOL     OW45830   5.956   1.165   3.472 -0.1905 -0.0881 -0.3354
11634SOL    HW145831   5.994   1.258   3.472  1.3703 -0.7225 -0.5751
11634SOL    HW245832   6.029   1.098   3.483 -1.0947 -1.3879 -1.9503
11635SOL     OW45833   8.925   0.741   2.145  0.7314  0.1372 -0.0503
11635SOL    HW145834   8.985   0.769   2.070  0.7174  1.1606  0.3046
11635SOL    HW245835   8.833   0.726   2.110  0.5307  1.4531 -0.0958
11636SOL     OW45836   7.117   8.717   1.444 -0.2353 -0.0692 -0.3328
11636SOL    HW145837   7.146   8.785   1.376 -1.5399  0.1764 -0.6620
11636SOL    HW245838   7.198   8.677   1.488  0.6164 -0.0670 -1.8550
11637SOL     OW45839   7.469   1.040   5.478 -0.2780  0.1479  0.5254
11637SOL    HW145840   7.482   1.138   5.490 -1.0942  0.5514 -1.6681
11637SOL    HW245841   7.557   0.996   5.461 -0.3052  1.1388 -2.5594
11638SOL     OW45842   8.958   8.940   3.251 -0.4007 -0.0860 -0.3131
11638SOL    HW145843   8.914   8.954   3.340 -0.6593  2.3384 -0.7898
11638SOL    HW245844   9.056   8.925   3.265 -0.8633 -2.5626  0.5437
11639SOL     OW45845   2.589   3.790   3.660  0.0113  0.1608 -0.3514
11639SOL    HW145846   2.492   3.814   3.652  0.5746  2.0480 -1.9255
11639SOL    HW245847   2.630   3.844   3.733  0.2467  0.6624 -0.8461
11640SOL     OW45848   4.992   7.573   4.809  0.7970 -0.4736 -0.0035
11640SOL    HW145849   4.961   7.552   4.902  1.5804 -0.0771  0.3505
11640SOL    HW245850   4.950   7.658   4.777 -0.7021 -1.4254 -0.6204
11641SOL     OW45851   1.048   7.473   1.210 -0.3115 -0.4066 -0.6054
11641SOL    HW145852   1.023   7.391   1.261 -1.2745  1.0018  1.2439
11641SOL    HW245853   0.972   7.499   1.150 -1.1845  0.7088  0.9196
11642SOL     OW45854   8.549   2.667   0.261  0.3976 -0.1639  0.0823
11642SOL    HW145855   8.463   2.672   0.313  0.2138 -0.8868 -0.1560
11642SOL    HW245856   8.618   2.620   0.316  0.4690 -0.1233  0.0265
11643SOL     OW45857   9.102   8.707   1.311  0.1880  0.0963 -0.3469
11643SOL    HW145858   9.006   8.719   1.339  0.2614 -0.5928  0.2130
11643SOL    HW245859   9.161   8.716   1.390  0.5839  0.4091 -0.6755
11644SOL     OW45860   3.148   3.702   4.243  0.5915  0.7177  0.3944
11644SOL    HW145861   3.199   3.756   4.176  0.1828 -0.4445 -0.8634
11644SOL    HW245862   3.116   3.617   4.201  0.7340 -0.2587  2.1934
11645SOL     OW45863   1.526   9.457   3.881 -0.3083  0.4776 -0.1297
11645SOL    HW145864   1.580   9.495   3.806  1.1850 -2.7892 -0.8202
11645SOL    HW245865   1.579   9.385   3.926 -2.2401  0.5620  2.3609
11646SOL     OW45866   4.602   7.889   1.487 -0.5515 -0.7788 -0.1086
11646SOL    HW145867   4.534   7.838   1.434 -0.6911  0.5045 -1.1816
11646SOL    HW245868   4.688   7.838   1.488 -0.3793 -0.5717 -2.0526
11647SOL     OW45869   1.853   3.799   6.374 -0.1221 -0.4618 -0.2408
11647SOL    HW145870   1.862   3.707   6.412 -0.9109 -1.2560 -1.9497
11647SOL    HW245871   1.897   3.803   6.285 -2.0492  0.1811 -1.1828
11648SOL     OW45872   8.614   4.613   3.486  0.5728 -0.4212 -0.0115
11648SOL    HW145873   8.590   4.576   3.576 -0.3605  0.2705  0.0283
11648SOL    HW245874   8.564   4.564   3.415 -0.7479  0.8289  0.0498
11649SOL     OW45875   8.164   3.350   0.683  0.0140 -0.4808  0.0413
11649SOL    HW145876   8.082   3.407   0.673 -1.3200 -2.4708 -0.7343
11649SOL    HW245877   8.165   3.281   0.611  2.0518 -0.8935  0.4514
11650SOL     OW45878   1.582   4.679   5.827  0.0288 -0.0864  0.1438
11650SOL    HW145879   1.621   4.760   5.783 -0.9627  1.4772  2.0708
11650SOL    HW245880   1.656   4.615   5.852  0.9661  0.9429  0.0304
11651SOL     OW45881   0.950   8.304   4.836 -0.1143 -0.8385  0.4164
11651SOL    HW145882   0.915   8.363   4.909 -0.8025 -1.1943  0.3753
11651SOL    HW245883   0.878   8.241   4.806 -0.0803 -0.1568 -1.1317
11652SOL     OW45884   2.869   0.407   2.134 -0.0568 -0.1621  0.4614
11652SOL    HW145885   2.817   0.344   2.076  1.3196 -0.3714 -0.5824
11652SOL    HW245886   2.960   0.420   2.094  0.5146  0.5714  1.9965
11653SOL     OW45887   3.273   6.385   1.141 -0.6267 -0.2221 -0.3521
11653SOL    HW145888   3.288   6.484   1.142 -1.3276 -0.1095  1.4050
11653SOL    HW245889   3.357   6.339   1.112  0.2435  0.8048  0.4988
11654SOL     OW45890   2.975   8.490   3.843  0.1896 -0.3235  0.3151
11654SOL    HW145891   3.045   8.438   3.796  0.7830  0.7620 -0.0042
11654SOL    HW245892   2.949   8.442   3.927  2.6436  0.1849  1.4000
11655SOL     OW45893   5.009   1.254   4.121 -0.0264  0.0396 -0.6265
11655SOL    HW145894   5.039   1.198   4.043  1.2103 -0.7282  0.3885
11655SOL    HW245895   5.080   1.320   4.144  0.4991 -1.0880  1.1176
11656SOL     OW45896   0.485   5.529   2.102 -0.3038 -0.2893  0.2369
11656SOL    HW145897   0.410   5.574   2.150 -0.6613 -0.5071 -0.1168
11656SOL    HW245898   0.558   5.595   2.085 -0.2794 -0.1571  0.8724
11657SOL     OW45899   1.179   1.606   4.660 -1.0557 -0.4936 -0.1512
11657SOL    HW145900   1.263   1.646   4.697 -1.6919 -0.1709  0.9691
11657SOL    HW245901   1.165   1.515   4.699 -1.6019 -0.2512  0.2262
11658SOL     OW45902   1.468   4.775   3.081  0.0939 -0.6985  0.0832
11658SOL    HW145903   1.445   4.699   3.142  0.0719  0.0572  1.0293
11658SOL    HW245904   1.567   4.790   3.081  0.0420 -0.3416  0.3703
11659SOL     OW45905   3.129   6.479   2.870  0.1047 -0.2072  0.0375
11659SOL    HW145906   3.224   6.463   2.840 -0.7025 -0.5571 -2.4377
11659SOL    HW245907   3.076   6.396   2.856 -0.9156  0.4484  0.0182
11660SOL     OW45908   4.079   6.198   2.296 -0.0722  0.8704 -0.2779
11660SOL    HW145909   4.050   6.125   2.234  2.3679 -0.9945  0.6723
11660SOL    HW245910   4.177   6.187   2.316 -0.0539  3.4408  1.2110
11661SOL     OW45911   2.653   9.009   4.652 -0.3980 -0.2834 -0.4013
11661SOL    HW145912   2.574   8.962   4.692  0.0321  1.3819  2.5631
11661SOL    HW245913   2.632   9.033   4.557 -3.3021 -0.2561  0.1778
11662SOL     OW45914   6.133   0.136   2.003  0.3504  0.5277 -0.5357
11662SOL    HW145915   6.068   0.167   1.934  0.5801  1.9631 -0.1151
11662SOL    HW245916   6.226   0.157   1.974  0.4582  0.9929  0.1436
11663SOL     OW45917   1.772   0.073   4.388  0.2161  0.8091  0.3832
11663SOL    HW145918   1.863   0.114   4.396  0.9776 -0.8664  0.4575
11663SOL    HW245919   1.738   0.085   4.295 -0.3084  3.0816  0.8275
11664SOL     OW45920   6.899   2.491   3.026 -0.2260  0.5953 -0.3086
11664SOL    HW145921   6.836   2.432   3.076 -0.5925  1.7201  0.5873
11664SOL    HW245922   6.970   2.525   3.088 -0.0538  1.1380 -0.7939
11665SOL     OW45923   4.185   1.352   2.951 -0.0235 -0.6085 -0.0964
11665SOL    HW145924   4.106   1.399   2.911  0.9087 -0.2397 -1.5253
11665SOL    HW245925   4.213   1.277   2.892  2.0589  0.6318 -0.7374
11666SOL     OW45926   4.071   2.615   3.884 -0.2940  0.2966 -0.3194
11666SOL    HW145927   4.051   2.604   3.787 -0.7409  0.2935 -0.2263
11666SOL    HW245928   3.990   2.593   3.938  0.0446  0.0027  0.0710
11667SOL     OW45929   9.444   0.814   2.730 -0.2916  0.0704 -0.1722
11667SOL    HW145930   9.474   0.718   2.737 -0.0236  0.1667  0.0180
11667SOL    HW245931   9.440   0.854   2.822 -1.4627 -0.0781 -0.1456
11668SOL     OW45932   1.575   8.755   1.192 -0.1250 -0.2154  0.0736
11668SOL    HW145933   1.584   8.830   1.126 -0.7012 -1.0476 -0.9705
11668SOL    HW245934   1.657   8.751   1.249 -0.2123  1.3838  0.3341
11669SOL     OW45935   8.441   9.772   0.831  0.1048  0.3701  0.1084
11669SOL    HW145936   8.451   9.787   0.930 -0.1224  0.7175  0.0803
11669SOL    HW245937   8.531   9.776   0.788  0.3180 -0.8472  0.4471
11670SOL     OW45938   4.310   7.382   3.316 -0.0549 -0.9849  0.0431
11670SOL    HW145939   4.293   7.472   3.356  0.5619 -0.6787 -0.3786
11670SOL    HW245940   4.352   7.322   3.384  1.7406 -0.2204 -0.3664
11671SOL     OW45941   4.399   2.307   2.303  0.5596 -0.2741 -0.2605
11671SOL    HW145942   4.327   2.238   2.308  2.1195 -1.9331 -0.4141
11671SOL    HW245943   4.404   2.356   2.390 -0.4737 -0.4382 -0.1091
11672SOL     OW45944   0.974   0.485   2.548  0.3678 -0.1564  0.2414
11672SOL    HW145945   0.887   0.450   2.584 -0.3634 -1.3283 -2.5582
11672SOL    HW245946   0.982   0.582   2.568 -1.9866  0.1439 -0.1872
11673SOL     OW45947   6.681   9.464   4.382  0.4833 -0.1005 -0.1895
11673SOL    HW145948   6.734   9.424   4.307 -0.1037  0.1250 -0.7266
11673SOL    HW245949   6.599   9.409   4.398  1.0469 -0.6700  0.8980
11674SOL     OW45950   0.032   5.641   1.497 -0.1336  0.3492 -0.7098
11674SOL    HW145951  -0.055   5.620   1.542  0.9753  0.1599  1.4127
11674SOL    HW245952   0.077   5.556   1.469  0.1382  0.3607 -0.3100
11675SOL     OW45953   8.098   6.640   1.326  0.3949  0.2132  0.0474
11675SOL    HW145954   8.154   6.663   1.246  1.1381  0.9561  0.7810
11675SOL    HW245955   8.008   6.683   1.316 -0.5680 -2.1225 -1.7996
11676SOL     OW45956   3.466   8.360   0.552  0.1091  0.1983 -0.2372
11676SOL    HW145957   3.392   8.293   0.555 -1.1180  1.4965 -0.9581
11676SOL    HW245958   3.463   8.409   0.465 -0.1939  2.4948  1.0291
11677SOL     OW45959   1.132   8.782   3.722 -0.3217  0.8226  0.6131
11677SOL    HW145960   1.153   8.880   3.718  2.3888  0.2327 -1.0119
11677SOL    HW245961   1.207   8.730   3.682 -1.8205 -1.9418  1.2371
11678SOL     OW45962   1.476   6.720   0.855 -0.5976 -0.0791 -0.1610
11678SOL    HW145963   1.536   6.648   0.819 -1.8181 -1.2121  0.0329
11678SOL    HW245964   1.412   6.749   0.784  0.4080  1.4152 -0.4916
11679SOL     OW45965   3.386   6.038   2.760  0.3071  0.4719 -0.0229
11679SOL    HW145966   3.419   6.131   2.774  0.7837  0.7531 -2.6620
11679SOL    HW245967   3.294   6.041   2.720  0.5405 -0.1783 -0.6183
11680SOL     OW45968   0.111   5.831   1.699 -0.1166 -0.3911  0.1844
11680SOL    HW145969   0.089   5.771   1.623  1.9033 -0.5769 -0.2878
11680SOL    HW245970   0.144   5.919   1.664  0.8354 -0.4823  0.8368
11681SOL     OW45971   3.766   7.291   1.864 -0.0814  0.3355 -0.0481
11681SOL    HW145972   3.748   7.365   1.928  0.4407  0.1687  0.2928
11681SOL    HW245973   3.863   7.266   1.867 -0.1697 -0.0783 -0.4636
11682SOL     OW45974   7.059   9.399   1.885 -0.0532 -0.2537 -0.1903
11682SOL    HW145975   7.078   9.442   1.973 -2.0065 -0.8138  0.5438
11682SOL    HW245976   6.978   9.340   1.894 -1.8476  1.6994 -2.9883
11683SOL     OW45977   2.026   6.675   6.035 -0.1606  0.6917  0.1569
11683SOL    HW145978   2.023   6.589   6.084 -1.1457  0.8985  0.4596
11683SOL    HW245979   2.112   6.681   5.984 -0.0866 -0.4600  0.1358
11684SOL     OW45980   7.355   1.461   2.259 -0.4135  0.1190  0.1229
11684SOL    HW145981   7.402   1.549   2.263  1.4218 -0.8293  0.1466
11684SOL    HW245982   7.297   1.458   2.178  0.4997  0.8764 -0.5759
11685SOL     OW45983   3.185   5.985   0.560 -0.5051  0.1741 -0.1079
11685SOL    HW145984   3.201   5.902   0.507 -0.1977 -1.2143  2.0782
11685SOL    HW245985   3.229   6.062   0.515  1.2369 -1.2760 -0.9789
11686SOL     OW45986   4.053   7.413   4.768 -0.8080 -0.0856  0.3173
11686SOL    HW145987   4.045   7.463   4.854 -0.5887  2.4310 -1.0682
11686SOL    HW245988   3.967   7.366   4.748 -0.7508 -0.9522  2.0479
11687SOL     OW45989   4.313   9.726   3.343 -0.2385  0.1393  0.2676
11687SOL    HW145990   4.354   9.753   3.256 -0.1596 -1.2761 -0.1604
11687SOL    HW245991   4.318   9.802   3.407  0.9210  0.7661 -0.5325
11688SOL     OW45992   5.025   3.447   4.594  0.4276 -0.5607 -0.6150
11688SOL    HW145993   5.035   3.438   4.693  0.1596 -1.3733 -0.6590
11688SOL    HW245994   4.984   3.535   4.572 -0.1092 -0.6516  0.0282
11689SOL     OW45995   0.727   6.205   1.530  0.0638  0.4722  0.2203
11689SOL    HW145996   0.764   6.169   1.444 -0.2760 -0.4460  0.4578
11689SOL    HW245997   0.797   6.259   1.576  0.3028  0.8266 -0.5562
11690SOL     OW45998   4.250   4.660   1.434  0.2343  0.2185 -0.3203
11690SOL    HW145999   4.222   4.590   1.499  1.4172  0.9744  1.0495
11690SOL    HW246000   4.304   4.618   1.360 -1.5446 -0.7153 -1.1209
11691SOL     OW46001   2.102   4.538   1.993 -0.2375 -0.0887  0.2421
11691SOL    HW146002   2.094   4.633   1.963  0.6386 -0.1380 -0.1493
11691SOL    HW246003   2.013   4.493   1.981 -0.3189  0.3188 -0.8328
11692SOL     OW46004   1.509   9.002   2.378  0.1876 -0.5795  0.3421
11692SOL    HW146005   1.435   8.958   2.326  0.8578 -0.0706 -1.0727
11692SOL    HW246006   1.582   8.936   2.394 -0.6280 -1.1273  1.8804
11693SOL     OW46007   1.101   8.133   3.477  0.2577  0.0923 -0.4699
11693SOL    HW146008   1.034   8.175   3.538 -1.7884 -1.0603 -1.8723
11693SOL    HW246009   1.151   8.205   3.428  0.6005  0.9678  1.1392
11694SOL     OW46010   9.347   0.163   3.558 -0.0000 -0.3081  0.2227
11694SOL    HW146011   9.432   0.202   3.522 -0.7302  1.0886 -0.0225
11694SOL    HW246012   9.272   0.180   3.494 -0.7975 -0.0451  1.2028
11695SOL     OW46013   9.421   7.198   5.990  0.2870 -0.3369  0.1682
11695SOL    HW146014   9.322   7.202   6.000  0.4560 -0.1005  1.9257
11695SOL    HW246015   9.448   7.241   5.904 -1.1603 -0.7887 -0.5242
11696SOL     OW46016   1.553   9.621   2.701  0.2995  0.2811 -0.0234
11696SOL    HW146017   1.503   9.652   2.782  0.6744 -0.7902  0.6315
11696SOL    HW246018   1.640   9.670   2.695 -0.3295  1.3399 -0.5379
11697SOL     OW46019   0.627   0.671   2.619 -0.3106  0.4891 -0.1518
11697SOL    HW146020   0.582   0.758   2.639 -0.7057  0.7015 -1.8581
11697SOL    HW246021   0.695   0.685   2.547 -0.1333 -0.5507 -0.1974
11698SOL     OW46022   4.347   4.773   2.970 -0.5096  0.8566  0.5180
11698SOL    HW146023   4.338   4.712   3.049  1.0854  2.0004  1.6034
11698SOL    HW246024   4.269   4.835   2.966  0.1041  1.7580  2.0632
11699SOL     OW46025   5.609   4.710   0.524 -0.3476 -0.3792 -0.0216
11699SOL    HW146026   5.656   4.662   0.599 -0.2917 -1.9539 -1.0393
11699SOL    HW246027   5.640   4.805   0.521 -0.1756 -0.3587  1.8035
11700SOL     OW46028   0.281   5.672   1.861  0.3842  0.1324  0.7080
11700SOL    HW146029   0.233   5.720   1.787  0.3796 -1.5671 -0.4176
11700SOL    HW246030   0.215   5.621   1.915  0.6455 -0.3035  0.6121
11701SOL     OW46031   7.125   0.320   1.939  0.4038  0.2592  0.7770
11701SOL    HW146032   7.154   0.248   1.875 -2.6874 -0.0668 -0.3286
11701SOL    HW246033   7.145   0.291   2.033  1.2034 -1.0591  0.2125
11702SOL     OW46034   4.147   1.518   1.701  0.2861  0.3834 -0.6702
11702SOL    HW146035   4.089   1.585   1.747  1.7729  1.2950 -0.0664
11702SOL    HW246036   4.237   1.517   1.744  0.2119 -2.2449 -0.4906
11703SOL     OW46037   2.903   5.268   4.450  0.4081  0.2877 -0.0404
11703SOL    HW146038   2.981   5.230   4.499 -0.1130  0.1336  0.6831
11703SOL    HW246039   2.827   5.202   4.451  0.2093  0.4998 -0.5971
11704SOL     OW46040   9.959   6.108   5.057  0.3528 -0.0111 -0.4096
11704SOL    HW146041   9.925   6.016   5.040  0.1169  0.0453 -0.2484
11704SOL    HW246042  10.041   6.105   5.114  0.3158 -0.1177 -0.3629
11705SOL     OW46043   1.240   4.437   1.021 -0.6673  0.1133  0.0865
11705SOL    HW146044   1.272   4.528   0.997 -1.8949  0.6766  0.5351
11705SOL    HW246045   1.142   4.440   1.040 -1.1866 -1.7004 -2.0226
11706SOL     OW46046   2.360   8.736   1.981  0.1891  0.3042 -0.3999
11706SOL    HW146047   2.350   8.643   1.944 -3.3230 -0.6548  2.5950
11706SOL    HW246048   2.428   8.735   2.055 -1.1982 -0.3403  0.8910
11707SOL     OW46049   8.661   9.334   3.086  0.0798 -0.2222  0.2819
11707SOL    HW146050   8.569   9.294   3.080  0.2214 -0.4396 -0.5608
11707SOL    HW246051   8.709   9.296   3.165 -1.0130  0.8647  1.4997
11708SOL     OW46052   8.509   8.416   3.412 -0.3685  0.1499  0.0234
11708SOL    HW146053   8.606   8.433   3.392 -0.2255 -0.8326 -0.1059
11708SOL    HW246054   8.472   8.494   3.463  0.5438  0.4435  0.2478
11709SOL     OW46055   2.569   8.481   3.419  0.2633 -0.9572  0.5366
11709SOL    HW146056   2.507   8.531   3.480 -0.9892 -2.4781  0.5288
11709SOL    HW246057   2.581   8.388   3.453  1.6303 -1.0308 -0.1180
11710SOL     OW46058   7.378   0.829   2.697 -0.0724  0.8688  0.0953
11710SOL    HW146059   7.360   0.911   2.642 -2.0886  0.5306  0.2085
11710SOL    HW246060   7.329   0.836   2.784  1.7709  0.6518  1.1863
11711SOL     OW46061   2.992   6.295   6.702  0.0708 -0.1596 -0.5469
11711SOL    HW146062   2.957   6.387   6.721  1.4672 -0.0019  1.3309
11711SOL    HW246063   2.915   6.231   6.699 -0.6119  0.5176  1.5056
11712SOL     OW46064   6.198   7.202   2.189  0.0716 -0.0258  0.2517
11712SOL    HW146065   6.124   7.217   2.124  0.4373 -0.9556 -0.3993
11712SOL    HW246066   6.231   7.108   2.180  0.3858 -0.0480  1.5160
11713SOL     OW46067   3.500   6.989   0.380 -0.0993 -0.2386 -0.1760
11713SOL    HW146068   3.469   6.956   0.291  1.0919 -0.4847 -0.5063
11713SOL    HW246069   3.527   7.084   0.372 -1.3886  0.1781  0.2689
11714SOL     OW46070   0.555   3.651   1.933  0.2711  0.4502  0.0593
11714SOL    HW146071   0.626   3.705   1.978  0.5267  0.9911 -0.9866
11714SOL    HW246072   0.586   3.557   1.922  0.8913  0.7258 -0.5548
11715SOL     OW46073   0.725   1.055   4.378  0.1463 -0.0525 -0.0465
11715SOL    HW146074   0.817   1.073   4.413 -0.2535  0.2143  0.8877
11715SOL    HW246075   0.658   1.074   4.450 -0.8236  2.1651 -1.4898
11716SOL     OW46076   2.914   6.005   2.506  0.1511  0.2868  0.1908
11716SOL    HW146077   2.847   5.931   2.505 -0.8422  1.1590  0.1387
11716SOL    HW246078   2.981   5.991   2.434 -1.3586  0.6210 -1.3098
11717SOL     OW46079   4.443   1.467   1.092  0.1281 -0.0267  0.1535
11717SOL    HW146080   4.391   1.397   1.043 -0.0923  0.0312  0.3008
11717SOL    HW246081   4.384   1.510   1.161 -0.0807  1.1240 -0.7397
11718SOL     OW46082   9.362   3.481   4.714  0.4055  1.0047 -0.0260
11718SOL    HW146083   9.294   3.550   4.740  0.7249  1.2142  0.2489
11718SOL    HW246084   9.431   3.473   4.785  0.3000  0.3046 -0.0019
11719SOL     OW46085   2.831   5.820   3.739  0.5111  0.0526  0.0594
11719SOL    HW146086   2.802   5.900   3.791 -1.1635 -1.8844  2.2188
11719SOL    HW246087   2.772   5.810   3.658 -0.0527  0.3243  0.4333
11720SOL     OW46088   0.401   5.258   5.101 -0.5522 -0.5352 -0.2708
11720SOL    HW146089   0.473   5.203   5.058  0.9298  1.5053 -0.4557
11720SOL    HW246090   0.439   5.309   5.178 -1.4333  1.6444 -1.2282
11721SOL     OW46091   7.949   9.858   0.901 -0.1784  0.3509 -0.1295
11721SOL    HW146092   8.046   9.862   0.878 -0.3105 -1.1261 -1.0084
11721SOL    HW246093   7.895   9.851   0.817 -1.0579  1.3624  0.3453
11722SOL     OW46094   1.832   6.414   1.573  0.4510 -0.0305  0.0807
11722SOL    HW146095   1.928   6.386   1.576  0.1382 -0.9754  1.9680
11722SOL    HW246096   1.774   6.333   1.560 -0.1796  0.3628  0.4035
11723SOL     OW46097   4.131   8.062   0.862  0.2096  0.0466  0.0045
11723SOL    HW146098   4.040   8.075   0.824  0.2609  1.9179  0.4642
11723SOL    HW246099   4.184   8.003   0.801 -1.1350 -0.6613 -0.5093
11724SOL     OW46100   0.570   3.044   0.986 -0.3642  0.1912 -0.8863
11724SOL    HW146101   0.597   3.065   1.079  0.6780  0.0846 -1.1574
11724SOL    HW246102   0.591   2.948   0.966  1.4054  0.7703 -1.9090
11725SOL     OW46103   0.606   6.885   5.607  0.0634  0.1686 -1.0513
11725SOL    HW146104   0.637   6.955   5.671  0.5257 -1.5264  0.6457
11725SOL    HW246105   0.522   6.915   5.562 -1.0864  0.8329  1.4396
11726SOL     OW46106   2.240   7.418   2.301 -0.1528  0.2515 -0.5394
11726SOL    HW146107   2.153   7.409   2.254  0.0300  0.4010 -0.9095
11726SOL    HW246108   2.251   7.512   2.333 -1.2818 -0.3820  1.7850
11727SOL     OW46109   3.611   6.719   2.901 -0.4527  0.5392 -0.3345
11727SOL    HW146110   3.601   6.675   2.990 -0.0331  0.1066 -0.4986
11727SOL    HW246111   3.553   6.801   2.897 -0.4027  0.6113  0.3654
11728SOL     OW46112   4.144   9.449   3.029 -0.4310 -0.0429  0.3583
11728SOL    HW146113   4.203   9.518   2.988  0.6979 -1.8743 -1.1782
11728SOL    HW246114   4.198   9.390   3.089 -1.1058 -0.4133  0.6096
11729SOL     OW46115   8.701   0.163   3.876 -0.2869 -0.0978  0.0725
11729SOL    HW146116   8.709   0.230   3.803  0.8507  0.0514  0.3188
11729SOL    HW246117   8.638   0.197   3.946 -1.7531 -0.4545 -1.0527
11730SOL     OW46118   3.130   9.228   2.174 -0.5820 -0.3305  0.8719
11730SOL    HW146119   3.088   9.235   2.265 -1.0416  2.1568  0.4939
11730SOL    HW246120   3.144   9.319   2.136  3.2440 -1.1215  0.0844
11731SOL     OW46121   4.684   2.780   3.037 -0.4631 -0.1044  0.3642
11731SOL    HW146122   4.770   2.815   2.999 -0.6348  0.8118  0.8117
11731SOL    HW246123   4.694   2.764   3.135 -1.0376  0.7642  0.5711
11732SOL     OW46124   9.790   8.306   2.092  0.0612 -0.5124  0.0112
11732SOL    HW146125   9.759   8.269   2.005 -0.0355 -1.2758  0.3614
11732SOL    HW246126   9.712   8.342   2.143  0.3322  1.3593 -0.8810
11733SOL     OW46127   8.626   4.468   3.736 -0.0904  0.1574  0.6063
11733SOL    HW146128   8.589   4.375   3.734 -1.1593  0.6105 -0.9547
11733SOL    HW246129   8.586   4.518   3.813 -0.1932 -0.3819  0.9074
11734SOL     OW46130   0.750   8.871   2.753  0.9514  0.1351  0.5738
11734SOL    HW146131   0.800   8.852   2.668  0.6870 -0.1270  0.4796
11734SOL    HW246132   0.723   8.968   2.754  2.8570  0.6738  1.3537
11735SOL     OW46133   5.154   5.458   1.537 -0.4427  0.1189 -0.1652
11735SOL    HW146134   5.184   5.477   1.443 -0.8114 -0.1318 -0.3365
11735SOL    HW246135   5.228   5.415   1.588  0.0602  1.0679 -0.0785
11736SOL     OW46136   8.777   6.544   4.080 -1.0642  0.1395  0.3086
11736SOL    HW146137   8.871   6.576   4.067  0.2438 -2.9162  1.6690
11736SOL    HW246138   8.733   6.535   3.990  0.6434 -0.3475 -0.5048
11737SOL     OW46139   9.253   4.131   5.094 -1.1314  0.0606  0.3231
11737SOL    HW146140   9.155   4.135   5.114 -1.5791  2.9160 -2.1109
11737SOL    HW246141   9.278   4.208   5.036  2.2985 -1.4854 -0.3512
11738SOL     OW46142   8.709   7.905   4.671 -0.1618  0.8028  0.2257
11738SOL    HW146143   8.619   7.925   4.632  0.2978  0.2972 -1.0918
11738SOL    HW246144   8.712   7.810   4.702 -0.0310  0.7796  0.1393
11739SOL     OW46145   1.081   6.297   4.572 -0.3445 -0.1018  0.0259
11739SOL    HW146146   1.136   6.217   4.596  0.9779  0.8035  0.0728
11739SOL    HW246147   1.098   6.322   4.477 -0.4028  0.3997  0.1472
11740SOL     OW46148   7.425   0.808   4.340  0.1541  0.0208 -0.3097
11740SOL    HW146149   7.507   0.816   4.397 -0.5955 -0.9289  0.9282
11740SOL    HW246150   7.420   0.886   4.278  1.8459  0.2265 -0.2090
11741SOL     OW46151   7.577   1.837   4.235  0.7688  0.2026  0.6541
11741SOL    HW146152   7.510   1.777   4.279  2.4526 -1.3731  1.1318
11741SOL    HW246153   7.587   1.920   4.290  0.5160 -0.3368  1.5267
11742SOL     OW46154   0.565   3.371   0.414  0.0391 -0.0803  0.2895
11742SOL    HW146155   0.528   3.439   0.351  0.9308 -2.3255 -2.7788
11742SOL    HW246156   0.501   3.295   0.421  0.3833 -0.2740  1.3870
11743SOL     OW46157   2.498   7.767   4.907 -0.3286  0.0454  0.6391
11743SOL    HW146158   2.454   7.852   4.878 -0.7408 -0.4689 -0.2714
11743SOL    HW246159   2.502   7.703   4.830  0.4848 -0.5540  1.1640
11744SOL     OW46160   8.404   1.313   2.991  0.2994 -0.6613 -0.0461
11744SOL    HW146161   8.392   1.265   2.904 -0.4646 -1.2522  0.3826
11744SOL    HW246162   8.404   1.247   3.066  1.8256 -0.2461  0.3436
11745SOL     OW46163   1.952   2.073   2.710  0.2619  0.6284 -0.6912
11745SOL    HW146164   2.050   2.081   2.731  0.2404  0.8248 -0.6669
11745SOL    HW246165   1.911   2.164   2.710  0.2017  0.6008 -1.2966
11746SOL     OW46166   9.337   6.520   0.122 -0.1969  0.2042  0.0081
11746SOL    HW146167   9.415   6.509   0.183 -1.0392  0.4058  1.1464
11746SOL    HW246168   9.313   6.432   0.082 -1.7920 -0.6058  2.6822
11747SOL     OW46169   1.244   8.173   2.950 -0.0550  0.0912  0.6497
11747SOL    HW146170   1.326   8.222   2.919  0.1618 -0.5699  0.1650
11747SOL    HW246171   1.165   8.234   2.946 -0.2174 -0.1921 -2.0891
11748SOL     OW46172   4.418   3.762   1.794  0.3672  0.2572  0.1364
11748SOL    HW146173   4.359   3.838   1.769 -1.1905 -0.3195  1.9047
11748SOL    HW246174   4.391   3.727   1.884  3.4850  0.0411  1.0614
11749SOL     OW46175   8.906   5.136   6.243  0.2174  0.2475  0.2605
11749SOL    HW146176   8.808   5.125   6.227  0.1266  1.5468 -0.1495
11749SOL    HW246177   8.921   5.211   6.307  0.8701 -1.0777  1.6657
11750SOL     OW46178   6.071   7.921   3.055  0.4116  0.1146  0.3408
11750SOL    HW146179   6.147   7.981   3.080  1.6604 -0.0548 -2.8896
11750SOL    HW246180   6.082   7.889   2.961 -2.8561 -1.1885  0.3150
11751SOL     OW46181   7.777   9.861   3.261 -0.2486  0.6531  0.4290
11751SOL    HW146182   7.761   9.911   3.346 -1.3537  0.7961  0.1510
11751SOL    HW246183   7.873   9.836   3.254 -0.5480 -1.3688  2.8393
11752SOL     OW46184   0.136   8.355   0.267  0.2068  0.4395  0.0565
11752SOL    HW146185   0.090   8.356   0.178  2.3186 -0.3838 -1.0658
11752SOL    HW246186   0.173   8.446   0.286  0.5274  0.3911 -0.3261
11753SOL     OW46187   2.034   1.127   3.648  0.2215 -0.6907  0.0577
11753SOL    HW146188   2.016   1.188   3.726 -0.7525 -0.9238  0.0213
11753SOL    HW246189   2.129   1.096   3.652  1.3575  2.5119 -1.1252
11754SOL     OW46190   3.925   7.956   1.837 -0.3580 -0.1446 -0.4121
11754SOL    HW146191   4.015   7.929   1.873  0.5508  2.8675 -0.2215
11754SOL    HW246192   3.926   7.950   1.737 -1.2202 -3.6946 -0.2578
11755SOL     OW46193   3.583   4.450   1.406 -0.4892  0.5226 -0.2211
11755SOL    HW146194   3.676   4.473   1.435  0.2325 -1.1317 -1.1224
11755SOL    HW246195   3.582   4.436   1.307 -1.5141 -0.2929 -0.0972
11756SOL     OW46196   4.416   0.846   0.724  0.0617  0.0195 -0.0806
11756SOL    HW146197   4.357   0.774   0.761  0.0856 -0.2382 -0.5488
11756SOL    HW246198   4.402   0.853   0.625 -0.8227  1.4564  0.1383
11757SOL     OW46199   8.662   6.335   6.241  0.0031  0.2897 -0.3661
11757SOL    HW146200   8.563   6.330   6.226 -0.0944  0.2347  0.2993
11757SOL    HW246201   8.709   6.334   6.152 -0.5183 -1.0845 -0.6422
11758SOL     OW46202   3.507   3.895   2.533  0.2905 -0.5113  0.0318
11758SOL    HW146203   3.425   3.948   2.554  1.1590  0.3336  1.3934
11758SOL    HW246204   3.576   3.955   2.492  0.5784 -1.0052 -0.2105
11759SOL     OW46205   8.286   2.548   1.882 -0.4036  0.2035  0.3855
11759SOL    HW146206   8.241   2.512   1.964 -0.8528 -1.2610 -0.5000
11759SOL    HW246207   8.336   2.632   1.906 -2.0389  0.8153  1.7805
11760SOL     OW46208   2.345   6.635   2.260  0.4270  0.7542  0.4652
11760SOL    HW146209   2.262   6.614   2.209  0.7698 -0.2375  0.3085
11760SOL    HW246210   2.422   6.586   2.220  1.0277  1.3826  0.8375
11761SOL     OW46211   1.748   1.012   3.439  0.0543 -0.8867 -0.5127
11761SOL    HW146212   1.724   1.056   3.526 -1.8176 -0.9696 -0.9799
11761SOL    HW246213   1.836   1.048   3.407  1.0656 -1.2654  1.6981
11762SOL     OW46214   5.296   5.086   1.671 -0.2481  0.4061 -0.1925
11762SOL    HW146215   5.338   5.176   1.685 -0.3020  0.5141 -0.6992
11762SOL    HW246216   5.267   5.078   1.575  2.0894 -1.1407 -0.8303
11763SOL     OW46217   6.720   0.776   1.797  0.7005  0.0491 -0.1375
11763SOL    HW146218   6.673   0.799   1.882  1.4273 -0.5620  0.4307
11763SOL    HW246219   6.653   0.741   1.731  0.2246 -0.0196  0.3780
11764SOL     OW46220   4.651   0.733   2.465  0.2860 -0.4141  0.3871
11764SOL    HW146221   4.554   0.728   2.487  0.1815  0.7735  0.2439
11764SOL    HW246222   4.678   0.829   2.456  1.0996 -0.7673 -1.2153
11765SOL     OW46223   7.170   7.652   3.054  0.2394 -0.1048  0.0544
11765SOL    HW146224   7.148   7.563   3.096  0.2964 -0.3868 -0.5042
11765SOL    HW246225   7.092   7.714   3.065  0.4984  0.0435  1.1493
11766SOL     OW46226   8.016   8.304   2.834 -0.5868  0.2137  0.0489
11766SOL    HW146227   8.046   8.398   2.818 -0.6687  0.8824  3.5480
11766SOL    HW246228   7.935   8.285   2.778  1.5001  0.9987 -3.3805
11767SOL     OW46229   4.009   9.744   0.863  0.4569  1.2718 -0.3050
11767SOL    HW146230   3.933   9.726   0.801  2.3452  0.6064 -2.5058
11767SOL    HW246231   4.084   9.788   0.813  1.5497  1.8780  1.7818
11768SOL     OW46232   4.971   9.649   1.258 -0.7730  0.0701  0.1103
11768SOL    HW146233   4.941   9.597   1.337  0.8122 -1.6603 -0.3942
11768SOL    HW246234   4.994   9.742   1.286 -2.8384  0.3046  1.1579
11769SOL     OW46235   4.097   3.269   2.182  0.3362  0.1239 -0.9660
11769SOL    HW146236   4.040   3.193   2.150  0.6488  0.0144 -1.2607
11769SOL    HW246237   4.190   3.237   2.198 -0.0481 -0.0526  1.0461
11770SOL     OW46238   7.705   2.481   4.536 -0.2298 -0.3792  0.7702
11770SOL    HW146239   7.643   2.557   4.556  0.3104  0.0821  0.6895
11770SOL    HW246240   7.669   2.428   4.460 -0.3303  0.1142  0.4716
11771SOL     OW46241   5.744   9.758   1.321  0.1699  0.2153  0.5168
11771SOL    HW146242   5.675   9.701   1.364 -1.6044  1.5007 -0.5520
11771SOL    HW246243   5.814   9.699   1.279 -0.4725 -1.1048  1.2582
11772SOL     OW46244   6.866   0.941   0.251 -0.3151 -0.0893 -0.2559
11772SOL    HW146245   6.818   0.989   0.178  0.0619  0.9215  0.1562
11772SOL    HW246246   6.948   0.898   0.215 -0.1272  0.4158 -0.4302
11773SOL     OW46247   8.762   2.539   4.855 -0.1635  0.5146  0.7606
11773SOL    HW146248   8.767   2.626   4.904 -0.7936  0.0487  1.6733
11773SOL    HW246249   8.836   2.479   4.885 -0.1257  0.4888  0.6191
11774SOL     OW46250   0.465   9.283   4.650 -0.0547  0.3351  0.4707
11774SOL    HW146251   0.457   9.292   4.749  1.5843  2.3009  0.4684
11774SOL    HW246252   0.415   9.357   4.606  2.1596  1.5955 -0.0219
11775SOL     OW46253   9.126   5.338   5.398  0.5480 -0.0003 -0.0066
11775SOL    HW146254   9.091   5.396   5.472  0.9303  0.8094 -0.4626
11775SOL    HW246255   9.057   5.330   5.326  1.4414  1.9228 -1.0906
11776SOL     OW46256   7.461   9.027   2.015 -0.0024  0.3729  0.0565
11776SOL    HW146257   7.433   9.123   2.024  0.2902  0.5078 -0.4713
11776SOL    HW246258   7.554   9.022   1.980  0.2811 -0.0960  0.8683
11777SOL     OW46259   3.699   7.647   3.315 -0.2769  0.4251  0.5433
11777SOL    HW146260   3.626   7.601   3.365  1.2629 -2.5345  0.2005
11777SOL    HW246261   3.686   7.634   3.216 -1.7513  3.8101  0.2469
11778SOL     OW46262   4.521   5.701   0.911 -0.6732  0.4106 -0.2637
11778SOL    HW146263   4.487   5.794   0.896 -0.5182  0.4823 -0.1639
11778SOL    HW246264   4.590   5.679   0.842 -0.3199  0.5620  0.0413
11779SOL     OW46265   0.769   0.717   3.718 -0.2637  0.1992 -0.2500
11779SOL    HW146266   0.786   0.772   3.800 -1.0214  2.0977 -1.3321
11779SOL    HW246267   0.673   0.723   3.693 -0.3002 -1.4120 -0.5690
11780SOL     OW46268   9.171   5.397   3.167  0.2573 -0.7170  0.5438
11780SOL    HW146269   9.205   5.491   3.160  0.3396 -0.7169  0.9278
11780SOL    HW246270   9.211   5.342   3.094 -0.7758 -0.1663 -0.4628
11781SOL     OW46271   7.282   8.621   2.952 -0.4858  0.0117  0.2792
11781SOL    HW146272   7.378   8.639   2.973 -0.3982  1.5821 -1.3868
11781SOL    HW246273   7.237   8.706   2.925 -2.3405 -0.7254  0.9413
11782SOL     OW46274   0.651   4.629   2.518 -0.3592 -0.0302 -0.3495
11782SOL    HW146275   0.554   4.617   2.498 -0.7709  2.2885  0.1991
11782SOL    HW246276   0.679   4.723   2.498  1.8638 -0.7564 -0.8479
11783SOL     OW46277   0.403   4.057   4.776  0.3466 -0.6859  0.3214
11783SOL    HW146278   0.311   4.028   4.750  1.2126 -3.3099  0.0495
11783SOL    HW246279   0.409   4.157   4.773 -1.8635 -0.5777 -1.7376
11784SOL     OW46280   3.308   1.308   3.641  0.2041  0.0889  0.7332
11784SOL    HW146281   3.265   1.385   3.593 -0.7990 -2.0984 -2.0066
11784SOL    HW246282   3.247   1.229   3.638  2.6068 -1.8135  0.5726
11785SOL     OW46283   1.457   3.497   2.292  0.3380 -0.0821  0.1115
11785SOL    HW146284   1.552   3.469   2.276  0.7710  1.3378  0.1351
11785SOL    HW246285   1.455   3.576   2.354 -0.6850  1.7120 -2.1439
11786SOL     OW46286   6.188   2.024   3.252 -0.0288 -0.6312  0.2837
11786SOL    HW146287   6.147   1.950   3.198  2.4138 -1.4904 -0.4364
11786SOL    HW246288   6.190   2.108   3.197  0.4276 -0.9285 -0.1500
11787SOL     OW46289   3.599   2.560   1.158  0.3077 -0.2171 -0.0907
11787SOL    HW146290   3.661   2.507   1.101  1.0607  1.0092 -0.4193
11787SOL    HW246291   3.550   2.627   1.102 -0.0160  0.0196  0.4632
11788SOL     OW46292   1.469   7.053   2.126 -0.5537 -0.2779  0.0326
11788SOL    HW146293   1.416   6.990   2.069  0.0532 -1.2142  0.4892
11788SOL    HW246294   1.551   7.082   2.077 -0.6853 -0.0652 -0.0641
11789SOL     OW46295   0.921   3.979   4.032  0.9158  0.1437  0.0042
11789SOL    HW146296   0.845   3.964   3.969  0.8340 -1.4482  0.4507
11789SOL    HW246297   0.998   3.921   4.006  0.0714 -2.3153  2.6709
11790SOL     OW46298   0.160   3.571   0.072  0.3231  0.5427 -0.0736
11790SOL    HW146299   0.073   3.577   0.024 -0.9373  2.1386  2.2691
11790SOL    HW246300   0.220   3.646   0.043  0.9916 -0.6264 -1.7759
11791SOL     OW46301   1.213   4.446   2.146  0.0645  0.3539 -0.7606
11791SOL    HW146302   1.157   4.517   2.191  1.0822  0.4215  0.4443
11791SOL    HW246303   1.181   4.356   2.175 -0.4330  0.3574 -1.3080
11792SOL     OW46304   3.357   8.955   1.848 -0.3975  0.8154 -0.4517
11792SOL    HW146305   3.360   8.976   1.946 -0.8970  0.7708 -0.4252
11792SOL    HW246306   3.440   8.989   1.804 -0.4609  1.4005 -0.1210
11793SOL     OW46307   3.870   7.735   2.941 -0.0559 -0.6000 -0.4925
11793SOL    HW146308   3.772   7.740   2.962  0.0710 -2.1345  0.5474
11793SOL    HW246309   3.910   7.657   2.989  1.8885  0.6167 -0.0718
11794SOL     OW46310   3.372   3.958   1.024 -0.2051  0.2162  0.2906
11794SOL    HW146311   3.295   3.905   0.988 -1.8373  1.1637  2.2854
11794SOL    HW246312   3.427   3.900   1.084  0.1777 -0.2351 -0.4869
11795SOL     OW46313   9.567   5.544   0.782  0.4370  0.3732  0.1008
11795SOL    HW146314   9.478   5.498   0.779  0.8906 -0.4160 -2.7989
11795SOL    HW246315   9.632   5.495   0.724  2.8428  0.8528  2.2955
11796SOL     OW46316   0.577   6.721   3.579  0.4215  0.2028 -0.0413
11796SOL    HW146317   0.523   6.721   3.663  0.0328  0.7640 -0.2858
11796SOL    HW246318   0.668   6.759   3.597  0.0296  1.1691 -0.0619
11797SOL     OW46319   5.777   2.571   3.642  0.1129  0.1053 -0.3246
11797SOL    HW146320   5.718   2.491   3.653  0.6458 -0.1809  0.4575
11797SOL    HW246321   5.772   2.603   3.547 -0.0928 -0.8524 -0.6410
11798SOL     OW46322   5.549   1.664   1.116 -0.0942  0.2992 -0.3483
11798SOL    HW146323   5.504   1.748   1.085  0.5239 -0.1848 -2.5740
11798SOL    HW246324   5.581   1.677   1.210 -1.5275  1.9441 -0.0542
11799SOL     OW46325   0.506   1.773   4.653 -0.3964 -0.5620 -0.4226
11799SOL    HW146326   0.538   1.865   4.675 -0.3279 -0.4439 -0.9893
11799SOL    HW246327   0.584   1.710   4.652 -0.6006 -0.8471  1.0555
11800SOL     OW46328   2.671   5.502   0.766 -0.3332 -0.0174 -0.1581
11800SOL    HW146329   2.719   5.585   0.736 -0.2944 -0.7358 -2.1375
11800SOL    HW246330   2.727   5.454   0.833 -0.1333  1.2962  0.6294
11801SOL     OW46331   6.808   7.514   2.953  0.1828  0.0283  0.1451
11801SOL    HW146332   6.779   7.467   2.870 -0.2053  1.0690 -0.3191
11801SOL    HW246333   6.793   7.455   3.032  1.0071 -1.1595 -0.5630
11802SOL     OW46334   0.848   7.803   2.836  0.1138 -0.7942  0.6640
11802SOL    HW146335   0.936   7.789   2.790  0.9281  1.0244  1.6158
11802SOL    HW246336   0.774   7.765   2.780  1.2688 -0.2745 -1.2415
11803SOL     OW46337   8.147   8.849   2.458  0.3199  0.1037 -0.1100
11803SOL    HW146338   8.090   8.922   2.495  0.5444  0.1094  0.2238
11803SOL    HW246339   8.136   8.846   2.358 -0.0969  0.2427 -0.0693
11804SOL     OW46340   1.541   5.054   5.270 -0.4408 -0.0952  0.1520
11804SOL    HW146341   1.633   5.082   5.296 -0.7628  0.7019  0.4396
11804SOL    HW246342   1.476   5.076   5.343 -0.3516 -3.7923  1.4139
11805SOL     OW46343   7.120   8.483   5.249  0.2751  0.4518 -0.0835
11805SOL    HW146344   7.185   8.558   5.246 -1.2836  1.7791 -1.0730
11805SOL    HW246345   7.067   8.488   5.334  1.4129 -0.6311  0.7232
11806SOL     OW46346   3.756   3.577   0.358 -0.0209  0.4103  0.0224
11806SOL    HW146347   3.669   3.534   0.338  0.2086 -1.1985  2.3644
11806SOL    HW246348   3.746   3.637   0.437  1.1477 -0.3201  0.7327
11807SOL     OW46349   3.500   7.818   1.203 -0.7436 -0.6207 -0.1530
11807SOL    HW146350   3.583   7.816   1.148 -0.5170 -1.4604  0.2097
11807SOL    HW246351   3.508   7.753   1.279 -1.2422  0.1790  0.5962
11808SOL     OW46352   3.094   5.447   5.073  0.6183  0.1817 -0.0281
11808SOL    HW146353   3.141   5.534   5.091  1.4436 -0.6026  1.7032
11808SOL    HW246354   3.020   5.463   5.008  2.4811  1.6613 -1.8460
11809SOL     OW46355   2.150   2.860   4.002  0.3357  0.2689 -0.4376
11809SOL    HW146356   2.118   2.955   4.004  0.5840  0.3371  0.9201
11809SOL    HW246357   2.139   2.823   3.910  1.0417  1.8905 -1.2016
11810SOL     OW46358   1.052   4.428   4.478  0.0342  0.3048  0.3607
11810SOL    HW146359   1.039   4.478   4.393  0.8800 -0.0353  0.0266
11810SOL    HW246360   0.980   4.358   4.487  1.2189 -1.1444 -1.1623
11811SOL     OW46361   2.741   9.258   2.474  0.3841 -0.7767 -0.2413
11811SOL    HW146362   2.700   9.210   2.397  0.9153 -0.7934 -0.5193
11811SOL    HW246363   2.734   9.202   2.557 -1.2967 -0.2354  0.0103
11812SOL     OW46364   6.647   7.833   3.447 -0.0886  0.1850 -0.1774
11812SOL    HW146365   6.747   7.840   3.440 -0.3560  1.9472 -2.7398
11812SOL    HW246366   6.622   7.827   3.544  2.3287  3.3435  0.7593
11813SOL     OW46367   2.961   2.866   3.994 -0.4895  0.1274 -0.0407
11813SOL    HW146368   2.913   2.804   4.056  0.2760 -0.3777  0.0551
11813SOL    HW246369   3.042   2.820   3.957  0.4038  1.2719  0.4847
11814SOL     OW46370   9.989   7.543   3.879  0.2828 -0.6988  0.4526
11814SOL    HW146371  10.010   7.638   3.859 -0.3422 -0.7410 -0.4628
11814SOL    HW246372  10.023   7.485   3.804  1.7472 -1.3264  1.5804
11815SOL     OW46373   8.289   4.138   0.853 -0.1307  0.8195 -0.4334
11815SOL    HW146374   8.383   4.123   0.824 -0.4833 -0.3421 -0.9759
11815SOL    HW246375   8.262   4.068   0.919 -0.8638  0.7235 -0.8310
11816SOL     OW46376   9.856   4.902   5.545 -0.5346 -0.1749 -0.1834
11816SOL    HW146377   9.847   4.830   5.613  0.3442  1.8865  2.1589
11816SOL    HW246378   9.800   4.981   5.572  3.1726  2.3568  0.4939
11817SOL     OW46379   8.239   1.262   2.406  0.3631 -0.0965  0.6505
11817SOL    HW146380   8.252   1.352   2.365  1.3926 -0.5235  0.0183
11817SOL    HW246381   8.319   1.239   2.461  0.0524 -0.5840  0.9045
11818SOL     OW46382   1.749   6.200   6.520  0.0903 -0.2106 -0.3994
11818SOL    HW146383   1.652   6.225   6.523  0.2969  0.5664 -0.1112
11818SOL    HW246384   1.759   6.108   6.481 -0.8434 -0.7641  0.6424
11819SOL     OW46385   1.264   0.296   1.155 -0.0552  0.1327 -0.0828
11819SOL    HW146386   1.347   0.351   1.140  0.1173  0.3935  1.6762
11819SOL    HW246387   1.183   0.352   1.139  0.1087 -0.0262 -1.4805
11820SOL     OW46388   1.730   2.461   2.104 -0.2250 -0.0765  0.2355
11820SOL    HW146389   1.797   2.530   2.134 -0.2077 -0.0683  0.1771
11820SOL    HW246390   1.651   2.463   2.166 -0.5939  0.5606 -0.2496
11821SOL     OW46391   8.295   2.132   5.993 -0.3316 -0.0895  0.7654
11821SOL    HW146392   8.311   2.033   5.995  1.2393  0.1485  0.5110
11821SOL    HW246393   8.310   2.170   6.084  0.1040  0.0769  0.6231
11822SOL     OW46394   6.516   7.432   2.577  0.0156  0.1612  0.4798
11822SOL    HW146395   6.481   7.368   2.508  1.3096 -2.5373  2.2446
11822SOL    HW246396   6.450   7.506   2.590 -1.0651 -0.2239 -2.3357
11823SOL     OW46397   9.211   3.023   0.073 -0.1059  0.4491  0.2876
11823SOL    HW146398   9.310   3.027   0.066 -0.0600  0.2619  0.7632
11823SOL    HW246399   9.170   3.092   0.013  0.3550  1.6487  1.3307
11824SOL     OW46400   3.246   8.849   2.365 -0.1312  0.6176 -0.2572
11824SOL    HW146401   3.166   8.881   2.416 -0.9137 -0.2849 -0.9090
11824SOL    HW246402   3.232   8.754   2.336  1.3478  0.3085 -0.0199
11825SOL     OW46403   5.745   0.958   3.250  0.1052  0.2673 -0.2867
11825SOL    HW146404   5.663   0.929   3.200  0.0399  2.1601 -1.2959
11825SOL    HW246405   5.744   1.057   3.263  1.8765  0.2295  0.3382
11826SOL     OW46406   1.488   3.240   0.442 -0.1121  0.3110 -0.4385
11826SOL    HW146407   1.395   3.266   0.416 -0.5134 -0.5035  0.1436
11826SOL    HW246408   1.484   3.169   0.512  0.9536  0.3837 -0.2959
11827SOL     OW46409   5.313   8.733   4.432 -0.3330 -0.1570  0.1446
11827SOL    HW146410   5.406   8.763   4.409  0.1845 -0.4801  1.7178
11827SOL    HW246411   5.302   8.637   4.406 -0.3497 -0.0143 -0.3806
11828SOL     OW46412   6.193   9.253   3.443 -0.0383 -0.6029  0.1240
11828SOL    HW146413   6.157   9.256   3.349 -2.4857  1.2513  1.0541
11828SOL    HW246414   6.247   9.169   3.455  1.2727 -0.3445 -3.2363
11829SOL     OW46415   2.079   4.537   4.487  0.7541 -0.1791 -0.5531
11829SOL    HW146416   2.065   4.548   4.586  1.0239 -0.7625 -0.4496
11829SOL    HW246417   2.013   4.593   4.438  0.8013  0.3310 -0.0368
11830SOL     OW46418   3.805   0.439   4.483  0.3386 -0.0747  0.5295
11830SOL    HW146419   3.824   0.518   4.541 -0.7608  1.3342 -0.9916
11830SOL    HW246420   3.711   0.410   4.497 -0.1997  0.8151 -1.1671
11831SOL     OW46421   3.656   7.527   0.976  0.3765 -0.0710  0.0038
11831SOL    HW146422   3.606   7.450   0.935 -1.9755  0.4802  1.7683
11831SOL    HW246423   3.633   7.611   0.928 -1.9339  0.4833  1.9816
11832SOL     OW46424   9.260   0.593   3.434 -0.2454 -0.0465  0.1317
11832SOL    HW146425   9.340   0.638   3.475 -0.7427  0.7867  0.2020
11832SOL    HW246426   9.189   0.583   3.504 -0.6369  0.2764 -0.2203
11833SOL     OW46427   3.365   2.866   4.400  0.1869  0.0216  0.1790
11833SOL    HW146428   3.464   2.875   4.406  0.1289  0.1893  0.9283
11833SOL    HW246429   3.328   2.843   4.490 -0.4697  0.1705 -0.0499
11834SOL     OW46430   1.375   6.120   1.841  0.6131 -0.0201  0.1486
11834SOL    HW146431   1.460   6.173   1.839  0.1842  0.6575 -1.3035
11834SOL    HW246432   1.321   6.146   1.921  1.0184  0.7626  0.1732
11835SOL     OW46433   0.071   9.645   0.735  0.1016  0.6760  0.4507
11835SOL    HW146434  -0.010   9.589   0.715  1.6943 -0.9489 -1.7763
11835SOL    HW246435   0.140   9.588   0.779  1.7021  0.8585 -1.7240
11836SOL     OW46436   9.510   2.119   2.409  0.2483 -0.3164  0.0094
11836SOL    HW146437   9.580   2.184   2.442  0.3529  0.8842 -2.4651
11836SOL    HW246438   9.465   2.077   2.487  1.1955  1.6701  1.6929
11837SOL     OW46439   9.320   0.020   1.828  0.4368  0.6401 -0.4101
11837SOL    HW146440   9.229   0.008   1.869 -0.1280  1.5163 -1.3676
11837SOL    HW246441   9.349   0.115   1.838  0.8460  0.5720 -0.9313
11838SOL     OW46442   2.019   8.655   2.374  0.4667 -0.2750 -0.0670
11838SOL    HW146443   2.040   8.662   2.471  1.8789 -1.3794 -0.2782
11838SOL    HW246444   2.095   8.611   2.326 -0.3120  0.0408 -1.6345
11839SOL     OW46445   7.425   2.030   2.323  0.3459  0.2855 -0.0272
11839SOL    HW146446   7.458   1.978   2.245  1.7153  0.8925  0.1308
11839SOL    HW246447   7.353   2.093   2.294 -1.0532 -1.4110 -0.2846
11840SOL     OW46448   9.643   5.657   2.398 -0.2835  0.0285  0.3842
11840SOL    HW146449   9.682   5.653   2.490  1.6239 -0.7834 -0.4387
11840SOL    HW246450   9.716   5.667   2.330 -1.5113 -1.2729 -1.1930
11841SOL     OW46451   8.759   9.507   2.333 -0.0487  0.2640 -0.0649
11841SOL    HW146452   8.858   9.517   2.328 -0.0121  0.4915  1.1519
11841SOL    HW246453   8.736   9.413   2.359 -0.1278  0.4670  0.6057
11842SOL     OW46454   3.036   3.876   0.575 -0.0523  0.4562  0.2333
11842SOL    HW146455   3.086   3.803   0.528 -1.2020 -0.3964  0.3194
11842SOL    HW246456   3.047   3.961   0.525  0.3810 -0.0167 -0.4908
11843SOL     OW46457   8.613   9.045   3.192 -0.4939  0.2705  0.1157
11843SOL    HW146458   8.536   9.040   3.128  1.1609 -1.7825 -1.8197
11843SOL    HW246459   8.689   8.991   3.155  1.1113  0.4932  3.0218
11844SOL     OW46460   8.550   6.403   4.631 -0.8206  0.4823  0.5715
11844SOL    HW146461   8.601   6.486   4.607 -0.8453  0.2031 -0.4747
11844SOL    HW246462   8.609   6.344   4.685  0.0021  0.1524 -0.6483
11845SOL     OW46463   1.000   1.841   3.577 -0.2130 -0.1452 -0.4034
11845SOL    HW146464   1.037   1.748   3.575  0.9105  0.3039 -2.6819
11845SOL    HW246465   1.043   1.892   3.653 -1.1771 -1.5830  1.1408
11846SOL     OW46466   2.978   7.292   4.479 -0.1132  0.1450 -0.1016
11846SOL    HW146467   2.996   7.390   4.480 -3.2243  0.7938 -1.5354
11846SOL    HW246468   3.063   7.242   4.460  1.2408  2.6020 -0.6715
11847SOL     OW46469   5.751   3.975   6.492  0.0292  0.4929 -0.0837
11847SOL    HW146470   5.813   3.954   6.568  0.9870  3.1451 -0.0881
11847SOL    HW246471   5.796   4.035   6.427 -1.1163 -1.0095 -2.3284
11848SOL     OW46472   8.117   0.956   1.439  0.1112 -0.1496  0.2014
11848SOL    HW146473   8.017   0.950   1.434 -0.1924  3.5129  0.3395
11848SOL    HW246474   8.158   0.902   1.367 -1.9716 -1.7468  0.1787
11849SOL     OW46475   2.236   7.480   0.798  0.6435 -0.3963  0.1611
11849SOL    HW146476   2.223   7.454   0.894  1.7730 -0.9304  0.1856
11849SOL    HW246477   2.151   7.468   0.748  0.1093 -0.3454  1.0489
11850SOL     OW46478   2.588   8.363   1.260  0.2352  0.0213 -0.4460
11850SOL    HW146479   2.566   8.403   1.171  0.1357 -1.8332 -1.2717
11850SOL    HW246480   2.676   8.398   1.292  0.0778  0.9933 -1.0813
11851SOL     OW46481   0.054   0.581   1.406 -0.0591 -0.0120  0.6747
11851SOL    HW146482  -0.018   0.525   1.446 -0.0666  0.3157  1.1236
11851SOL    HW246483   0.016   0.666   1.370 -0.0393 -0.2687  0.0391
11852SOL     OW46484   1.603   8.230   2.157 -0.0289  0.5525 -0.3244
11852SOL    HW146485   1.616   8.131   2.156  0.5382  0.5507  2.5003
11852SOL    HW246486   1.515   8.253   2.114 -1.2618 -1.3822  1.0738
11853SOL     OW46487   7.777   8.895   3.235 -0.1221  0.1220  0.0010
11853SOL    HW146488   7.823   8.983   3.222 -0.3065  0.5598  2.1137
11853SOL    HW246489   7.678   8.910   3.242 -0.1934 -0.3063 -0.0990
11854SOL     OW46490   7.304   2.632   3.401 -0.2500 -0.2633 -0.5398
11854SOL    HW146491   7.362   2.551   3.395  1.1207  0.6726 -0.3497
11854SOL    HW246492   7.356   2.712   3.370 -1.5722  0.5403 -0.7119
11855SOL     OW46493   2.276   8.355   3.160  0.0309 -0.0758 -0.1689
11855SOL    HW146494   2.178   8.349   3.177  0.2790  0.4944  1.6277
11855SOL    HW246495   2.322   8.274   3.198  0.6340  1.3601  2.3305
11856SOL     OW46496   2.823   3.751   0.700 -1.1127 -0.0979  0.5942
11856SOL    HW146497   2.811   3.669   0.644  0.0371  0.6525 -0.7800
11856SOL    HW246498   2.914   3.789   0.685 -1.1910  0.7429  2.1551
11857SOL     OW46499   9.317   5.834   4.298 -0.0804  0.0995  0.0417
11857SOL    HW146500   9.249   5.761   4.291 -0.6219  0.4653  1.3022
11857SOL    HW246501   9.376   5.818   4.377 -0.1926  1.0034  0.3160
11858SOL     OW46502   1.724   7.275   1.292 -0.5486  0.3286  0.1407
11858SOL    HW146503   1.667   7.202   1.330  0.4600 -0.3120  0.4526
11858SOL    HW246504   1.718   7.356   1.351 -0.6136  0.0420  0.5297
11859SOL     OW46505   9.456   2.775   5.046 -0.0230 -0.1545 -0.3554
11859SOL    HW146506   9.424   2.787   5.140  0.2908 -0.9753 -0.1367
11859SOL    HW246507   9.552   2.804   5.040 -0.5039  1.3974 -0.7911
11860SOL     OW46508   5.377   0.468   2.560 -0.0255 -0.4430 -0.0709
11860SOL    HW146509   5.321   0.547   2.534 -1.4331 -1.6027 -0.6487
11860SOL    HW246510   5.406   0.419   2.478 -0.2974 -1.2913  0.3331
11861SOL     OW46511   3.001   7.154   2.404 -0.3250  0.0708 -0.3744
11861SOL    HW146512   2.949   7.201   2.476 -0.0094 -0.2534  0.0597
11861SOL    HW246513   2.946   7.154   2.320 -1.4911 -1.2287  0.3710
11862SOL     OW46514   4.175   0.572   2.463 -0.3166  0.8090  0.5325
11862SOL    HW146515   4.208   0.652   2.413  2.3173  0.3444  1.4172
11862SOL    HW246516   4.151   0.500   2.399  1.1242  0.9282 -0.1641
11863SOL     OW46517   1.976   7.599   4.051 -0.2097  0.6590 -0.0459
11863SOL    HW146518   1.976   7.544   4.135  2.0147  1.7984  0.7379
11863SOL    HW246519   1.956   7.694   4.074  1.9400  1.2699 -0.5556
11864SOL     OW46520   3.529   0.104   3.598 -0.4651  0.5455  0.7153
11864SOL    HW146521   3.495   0.063   3.683 -0.4556  0.3063  0.6041
11864SOL    HW246522   3.580   0.035   3.546 -0.1068  0.8062  0.7155
11865SOL     OW46523   5.746   9.908   0.965 -1.0742 -0.3634 -0.4104
11865SOL    HW146524   5.801   9.903   1.049 -0.3572 -0.7478 -0.8898
11865SOL    HW246525   5.650   9.892   0.987 -0.7252 -1.7282  0.1788
11866SOL     OW46526   9.499   3.733   6.701 -0.3753 -0.0787  0.0960
11866SOL    HW146527   9.567   3.665   6.727 -1.2433 -0.1978  2.0846
11866SOL    HW246528   9.442   3.697   6.627 -0.1913 -1.1021  0.4507
11867SOL     OW46529   7.788   1.509   0.563  0.4624 -0.1695  0.2592
11867SOL    HW146530   7.715   1.540   0.625  0.3458 -0.2854  0.1787
11867SOL    HW246531   7.793   1.409   0.565 -1.8642 -0.4183 -2.5572
11868SOL     OW46532   2.725   3.904   3.999 -0.1377  0.6506 -0.4806
11868SOL    HW146533   2.772   3.827   4.043  1.7000  0.8557 -2.0148
11868SOL    HW246534   2.627   3.898   4.017 -0.0719 -2.2420 -0.8510
11869SOL     OW46535   5.014   9.907   1.650 -0.1292 -0.0066 -0.9204
11869SOL    HW146536   5.045   9.872   1.562  0.8305  0.1163 -0.6330
11869SOL    HW246537   5.086   9.894   1.718 -1.4861 -1.6469  0.2455
11870SOL     OW46538   8.432   1.996   1.488 -0.1855  0.7912  0.6089
11870SOL    HW146539   8.459   2.086   1.522 -1.8268  1.6324 -0.2430
11870SOL    HW246540   8.464   1.925   1.552 -0.3713  2.0941  2.1844
11871SOL     OW46541   4.624   8.389   1.949 -0.5923  0.5173 -0.0479
11871SOL    HW146542   4.673   8.325   2.009 -1.3653 -0.6234 -0.6241
11871SOL    HW246543   4.571   8.453   2.005  1.5675  1.8050  0.5879
11872SOL     OW46544   7.992   3.171   2.133  0.0791 -0.1838  0.6044
11872SOL    HW146545   7.992   3.153   2.231  1.1212  0.8961  0.8115
11872SOL    HW246546   7.898   3.184   2.101 -0.1073  1.9737  1.9449
11873SOL     OW46547   5.104   2.421   3.119 -0.3107 -0.6817 -0.3433
11873SOL    HW146548   5.007   2.428   3.140 -0.1775  1.5107 -0.3670
11873SOL    HW246549   5.117   2.424   3.019 -0.1233  0.6407 -0.2899
11874SOL     OW46550   8.792   0.384   2.166 -0.3273  0.0129  0.4884
11874SOL    HW146551   8.829   0.363   2.075  0.9819 -2.5923  1.5704
11874SOL    HW246552   8.692   0.389   2.161 -0.2672 -0.0707 -1.0895
11875SOL     OW46553   2.269   1.128   3.035 -0.8394 -0.4076  0.1274
11875SOL    HW146554   2.312   1.137   2.945 -1.3342 -1.9390 -0.2730
11875SOL    HW246555   2.183   1.179   3.036 -0.3467  0.4314  0.0620
11876SOL     OW46556   3.029   0.707   2.301  0.0403  0.2435  0.0713
11876SOL    HW146557   3.068   0.615   2.314 -0.8469  0.0473  1.4654
11876SOL    HW246558   3.083   0.757   2.234  1.7144 -0.5999  0.7626
11877SOL     OW46559   2.846   4.483   5.524 -0.0473 -0.5433  0.1456
11877SOL    HW146560   2.812   4.536   5.447  0.9409  2.2239  1.5432
11877SOL    HW246561   2.771   4.468   5.589  0.1801  1.2162  0.8494
11878SOL     OW46562   2.538   7.903   3.586  0.2350  0.0206  0.1024
11878SOL    HW146563   2.567   7.997   3.571  1.1083 -0.4908 -1.4330
11878SOL    HW246564   2.614   7.840   3.568 -0.7729 -1.0846 -0.3788
11879SOL     OW46565   8.829   5.902   2.316 -0.1628 -0.1430  0.0853
11879SOL    HW146566   8.888   5.950   2.382  0.2212 -0.6692  0.1255
11879SOL    HW246567   8.734   5.926   2.334 -0.2269 -1.7924  2.0908
11880SOL     OW46568   1.393   6.302   0.426  0.0450 -0.0422 -0.2707
11880SOL    HW146569   1.294   6.294   0.425  0.0817 -0.7077  0.6383
11880SOL    HW246570   1.424   6.348   0.343 -1.2002  2.3793  0.5472
11881SOL     OW46571   9.295   2.130   1.944  0.1472 -0.0362  0.1596
11881SOL    HW146572   9.319   2.097   2.035  0.4596  0.6217  0.3167
11881SOL    HW246573   9.224   2.201   1.951  0.0726 -0.0821 -0.1184
11882SOL     OW46574   8.726   3.578   0.301 -0.1615 -1.1641 -0.1228
11882SOL    HW146575   8.649   3.516   0.286 -0.5342 -0.2433 -2.1366
11882SOL    HW246576   8.811   3.525   0.300 -0.4982 -1.6898 -1.5417
11883SOL     OW46577   2.485   6.343   1.929 -0.1308  0.3045 -0.2822
11883SOL    HW146578   2.490   6.368   2.025 -0.4156 -1.2767  0.1686
11883SOL    HW246579   2.452   6.249   1.921 -0.4196  0.5259 -1.9393
11884SOL     OW46580   0.729   2.693   1.618 -0.5651  0.0719 -0.0299
11884SOL    HW146581   0.638   2.670   1.652 -1.1952 -0.0673 -1.7564
11884SOL    HW246582   0.782   2.736   1.691 -0.7435 -3.1220  2.0920
11885SOL     OW46583   1.352   1.637   3.537  0.1629 -0.1734  0.6438
11885SOL    HW146584   1.257   1.614   3.558  0.4021  0.0510  2.0285
11885SOL    HW246585   1.413   1.574   3.586  0.7243 -0.7764 -0.8020
11886SOL     OW46586   9.795   5.834   0.681 -0.2798 -0.5900 -0.6372
11886SOL    HW146587   9.837   5.781   0.607 -0.4258 -0.8583 -0.5322
11886SOL    HW246588   9.819   5.792   0.769 -2.0499 -1.7047 -0.6430
11887SOL     OW46589   8.781   5.070   2.452  0.3482 -0.2524 -0.8389
11887SOL    HW146590   8.828   5.144   2.498 -0.7653  1.2178 -2.0172
11887SOL    HW246591   8.696   5.104   2.412 -1.1899 -2.5914  0.3081
11888SOL     OW46592   5.413   1.005   3.660 -0.3296 -0.0956  0.2134
11888SOL    HW146593   5.487   0.995   3.594 -0.0545 -1.8267  0.7646
11888SOL    HW246594   5.329   0.965   3.623 -0.6009  0.4395  0.2397
11889SOL     OW46595   3.023   7.130   1.656  0.3229 -0.0903  0.2190
11889SOL    HW146596   3.003   7.140   1.559 -0.6796  1.1690  0.5494
11889SOL    HW246597   2.990   7.041   1.688 -2.2205  0.7907  0.1183
11890SOL     OW46598   0.214   6.409   0.569 -0.5651 -0.2035  0.6996
11890SOL    HW146599   0.303   6.433   0.530 -0.4801 -3.5568 -1.4301
11890SOL    HW246600   0.141   6.456   0.518 -0.1939 -0.8198 -0.4321
11891SOL     OW46601   4.633   4.717   0.825 -0.4054 -0.4254 -0.2318
11891SOL    HW146602   4.725   4.698   0.792 -0.1571 -0.6130  0.5611
11891SOL    HW246603   4.578   4.754   0.750 -0.0730 -1.5650 -1.0487
11892SOL     OW46604   1.903   9.122   4.421  0.6709  0.5431 -0.0630
11892SOL    HW146605   1.979   9.184   4.442  1.2104  0.6497 -2.2083
11892SOL    HW246606   1.824   9.147   4.476  1.7083  1.4280  1.0683
11893SOL     OW46607   4.037   0.390   2.631 -0.1684  0.0887 -0.3340
11893SOL    HW146608   4.075   0.330   2.701  1.9226  1.4652 -0.2375
11893SOL    HW246609   4.111   0.420   2.570 -1.4756  1.2220 -1.3812
11894SOL     OW46610   9.172   7.788   2.886  0.4562  0.1460 -0.1599
11894SOL    HW146611   9.265   7.811   2.857  0.6634  0.7313  0.9487
11894SOL    HW246612   9.123   7.871   2.911  0.3481 -0.3449  1.3176
11895SOL     OW46613   5.954   8.836   3.965  0.0186 -0.6171 -0.3388
11895SOL    HW146614   5.914   8.786   4.041  0.2591  0.9774  0.8745
11895SOL    HW246615   5.897   8.916   3.944  0.0168 -0.9754 -1.7610
11896SOL     OW46616   2.844   0.349   2.421  0.2913  0.7020 -0.4262
11896SOL    HW146617   2.910   0.395   2.480  1.7411 -1.4434 -0.3251
11896SOL    HW246618   2.873   0.358   2.326  0.3250  0.3861 -0.4454
11897SOL     OW46619   8.218   6.431   3.694  0.0235  0.0975 -0.3362
11897SOL    HW146620   8.236   6.336   3.717  0.9820  0.5759  0.9928
11897SOL    HW246621   8.160   6.436   3.613 -1.2480 -1.6227  0.4490
11898SOL     OW46622   7.723   6.079   3.360  0.7235 -0.5305 -0.3958
11898SOL    HW146623   7.699   6.109   3.452 -0.6510  0.7766 -1.1473
11898SOL    HW246624   7.794   6.139   3.323 -1.6966  1.6017 -1.7263
11899SOL     OW46625   6.976   1.118   1.546 -0.7482  0.4270 -0.2996
11899SOL    HW146626   7.001   1.183   1.474 -0.8116  0.4524 -0.2983
11899SOL    HW246627   6.969   1.165   1.633  2.1849 -0.0793  0.2777
11900SOL     OW46628   5.884   8.491   4.735  0.4658  0.2484  0.0825
11900SOL    HW146629   5.881   8.422   4.808  0.6039 -0.4734 -0.5895
11900SOL    HW246630   5.792   8.524   4.716  0.5274  1.0510  1.1685
11901SOL     OW46631   0.270   3.612   2.866 -0.4464  0.5380  0.6449
11901SOL    HW146632   0.260   3.609   2.767 -0.2655  0.9167  0.6166
11901SOL    HW246633   0.234   3.527   2.905 -0.0364  0.1623  0.2167
11902SOL     OW46634   6.966   7.250   3.319  0.0450 -0.2425 -0.1051
11902SOL    HW146635   6.999   7.169   3.366  1.7134 -0.1769 -1.1371
11902SOL    HW246636   6.929   7.224   3.229 -1.2452 -0.1008  0.3679
11903SOL     OW46637   9.869   4.241   4.139 -0.1858 -0.0784 -0.2706
11903SOL    HW146638   9.837   4.292   4.060  1.0418 -0.9698 -1.3607
11903SOL    HW246639   9.969   4.241   4.141 -0.1704 -1.9043  0.0445
11904SOL     OW46640   3.993   8.896   2.737  0.2045  0.5239  0.1712
11904SOL    HW146641   3.911   8.953   2.731  0.2740  0.8197  1.7735
11904SOL    HW246642   4.014   8.859   2.647  0.2061  3.0952 -0.9460
11905SOL     OW46643   3.895   6.276   1.322 -0.0168  0.0197 -0.1126
11905SOL    HW146644   3.824   6.220   1.365  1.3296  0.1539  2.3764
11905SOL    HW246645   3.854   6.357   1.281 -1.4734 -0.7043 -0.0995
11906SOL     OW46646   5.019   4.247   3.970  0.1896 -0.0892 -0.3620
11906SOL    HW146647   5.032   4.148   3.960 -0.4871 -0.2650  0.3999
11906SOL    HW246648   4.925   4.270   3.945  0.1872  0.2844  0.0004
11907SOL     OW46649   5.597   7.806   3.938 -0.3425  0.2379  0.0213
11907SOL    HW146650   5.643   7.720   3.915 -2.0355 -0.7931  0.4004
11907SOL    HW246651   5.608   7.825   4.035  0.2452  0.5789 -0.1121
11908SOL     OW46652   5.822   1.077   3.839 -0.4872  0.1716  0.2662
11908SOL    HW146653   5.723   1.084   3.848 -0.4224  0.3822  0.8853
11908SOL    HW246654   5.847   1.070   3.743 -1.1118 -0.0119  0.1150
11909SOL     OW46655   2.875   4.861   4.413  0.4131 -0.1811  0.7167
11909SOL    HW146656   2.790   4.872   4.361 -0.0452  0.7208  1.6451
11909SOL    HW246657   2.950   4.908   4.366  0.3059 -0.6025  0.1255
11910SOL     OW46658   4.184   8.002   2.731 -0.2966  0.6654  0.8841
11910SOL    HW146659   4.220   7.919   2.773  0.4411  1.6527  2.2629
11910SOL    HW246660   4.094   7.984   2.692  0.8368 -1.3562 -0.9000
11911SOL     OW46661   2.164   6.411   3.878  0.3364 -0.0654  0.3792
11911SOL    HW146662   2.254   6.419   3.835  0.0134 -0.0839 -0.2938
11911SOL    HW246663   2.170   6.350   3.957  1.0049  0.2613  0.5853
11912SOL     OW46664   2.484   7.597   4.684 -0.5001 -0.0554 -0.4136
11912SOL    HW146665   2.500   7.653   4.602 -1.0729  0.0776 -0.4357
11912SOL    HW246666   2.389   7.568   4.685 -0.4771 -0.0957  0.1867
11913SOL     OW46667   7.681   0.610   5.650  0.2863 -0.0478  0.1822
11913SOL    HW146668   7.602   0.632   5.593  0.4879 -0.6075 -0.3164
11913SOL    HW246669   7.667   0.521   5.693  1.1566 -0.6833 -0.8340
11914SOL     OW46670   7.181   9.625   3.395  0.2961  0.0533 -0.0410
11914SOL    HW146671   7.255   9.612   3.329  0.2959 -1.9746  0.3199
11914SOL    HW246672   7.215   9.674   3.475  0.8263  0.6391 -0.6279
11915SOL     OW46673   8.715   3.471   5.050  0.6626 -0.3543 -0.7051
11915SOL    HW146674   8.720   3.497   4.953  1.0668  0.0337 -0.5812
11915SOL    HW246675   8.791   3.512   5.099  0.4554 -0.5521 -0.2188
11916SOL     OW46676   3.207   6.271   0.840  0.2293  0.1405 -0.1632
11916SOL    HW146677   3.135   6.314   0.896  0.4502  0.1856  0.0893
11916SOL    HW246678   3.205   6.309   0.748  0.9012  1.2470  0.2567
11917SOL     OW46679   2.303   6.524   5.760  0.3253  0.4633  0.2368
11917SOL    HW146680   2.372   6.468   5.715  0.6490  1.0414  0.0129
11917SOL    HW246681   2.214   6.508   5.718  0.4873  0.4001 -0.0837
11918SOL     OW46682   8.666   0.722   2.019  0.1123  0.1524 -0.4494
11918SOL    HW146683   8.654   0.689   2.113  1.3424 -0.8342 -0.6228
11918SOL    HW246684   8.584   0.704   1.966 -0.2532 -0.1082  0.1999
11919SOL     OW46685   9.664   3.275   2.704  0.6209  0.2306  0.0201
11919SOL    HW146686   9.704   3.192   2.666 -3.3494 -1.6342 -0.2667
11919SOL    HW246687   9.637   3.337   2.630  0.9394  0.5190  0.1409
11920SOL     OW46688   6.873   9.392   5.767 -0.1778  0.4134  0.1561
11920SOL    HW146689   6.874   9.475   5.824 -2.1294  0.9951 -0.6206
11920SOL    HW246690   6.817   9.322   5.811 -0.1037  0.1778 -0.1268
11921SOL     OW46691   4.298   2.524   0.731  0.6290 -0.4967  0.0432
11921SOL    HW146692   4.304   2.477   0.819  0.6372  0.8433  0.7671
11921SOL    HW246693   4.215   2.580   0.728  0.2252 -1.1251 -1.1097
11922SOL     OW46694   0.038   8.086   3.849  0.4264 -0.2608 -0.2177
11922SOL    HW146695   0.020   8.148   3.926  0.2397  0.0337 -0.4996
11922SOL    HW246696   0.116   8.120   3.797  0.5109 -0.4259 -0.1993
11923SOL     OW46697   5.810   9.728   5.151 -0.2678 -0.4496  0.1961
11923SOL    HW146698   5.865   9.719   5.068 -0.1773 -1.0624  0.3196
11923SOL    HW246699   5.842   9.807   5.203 -0.1165 -0.2513 -0.1970
11924SOL     OW46700   6.319   5.289   0.265 -0.8254 -0.4606 -0.3228
11924SOL    HW146701   6.274   5.202   0.244 -1.2767 -0.5655  1.0762
11924SOL    HW246702   6.263   5.341   0.329  0.3257  0.0680  0.2562
11925SOL     OW46703   4.567   4.085   1.991 -0.5656  0.0575  0.1010
11925SOL    HW146704   4.626   4.084   2.072 -1.3035  0.8838  0.6596
11925SOL    HW246705   4.576   3.998   1.942  0.8693  0.0557  0.3504
11926SOL     OW46706   5.199   3.724   6.482  0.2314  0.0394  0.4433
11926SOL    HW146707   5.242   3.685   6.400 -0.4397  0.6795 -0.2147
11926SOL    HW246708   5.268   3.772   6.536  0.7086 -0.5322  0.3477
11927SOL     OW46709   2.674   1.110   3.078  0.2801 -0.5053  0.0216
11927SOL    HW146710   2.618   1.072   3.004 -0.1297  1.3118 -0.6183
11927SOL    HW246711   2.615   1.141   3.152  0.4826  0.4228 -0.1944
11928SOL     OW46712   5.927   0.643   5.720 -0.8261 -0.1419  0.2475
11928SOL    HW146713   6.008   0.659   5.776  0.4702  0.3849 -1.7328
11928SOL    HW246714   5.925   0.708   5.644 -3.1638 -0.0910  0.2996
11929SOL     OW46715   2.578   4.020   5.640 -0.3386  0.0204  0.1552
11929SOL    HW146716   2.570   4.076   5.722  0.8170  0.0046  0.2950
11929SOL    HW246717   2.505   3.952   5.637  0.6926 -1.1994  2.1142
11930SOL     OW46718   0.380   2.686   2.253  0.0535 -0.2598 -0.4561
11930SOL    HW146719   0.353   2.612   2.314 -0.1834 -0.4974 -0.8494
11930SOL    HW246720   0.315   2.693   2.178 -0.6292  1.1419  0.2306
11931SOL     OW46721   8.664   4.596   1.890  0.3934 -0.5464  0.2747
11931SOL    HW146722   8.570   4.586   1.859 -0.0415 -0.6530  1.6293
11931SOL    HW246723   8.681   4.691   1.914  0.7711 -0.4414 -0.3728
11932SOL     OW46724   9.377   4.310   3.242 -0.0329  0.5160 -0.1769
11932SOL    HW146725   9.292   4.270   3.208 -0.1174  0.2620  0.3315
11932SOL    HW246726   9.443   4.237   3.259 -0.9589  0.3141  2.9830
11933SOL     OW46727   9.496   5.256   5.671  0.3958 -0.1167  0.0714
11933SOL    HW146728   9.498   5.305   5.584 -1.5454 -0.6760 -0.3210
11933SOL    HW246729   9.542   5.310   5.741  0.8226  0.9395 -0.9974
11934SOL     OW46730   6.172   8.960   2.921  0.8726  0.2939 -0.2908
11934SOL    HW146731   6.140   8.998   2.834  1.0704  0.3123 -0.3563
11934SOL    HW246732   6.244   9.017   2.958 -0.4721  1.2907  0.8129
11935SOL     OW46733   7.703   2.770   0.741  0.6847  0.2574 -0.8191
11935SOL    HW146734   7.732   2.840   0.807  0.1955  1.1067 -1.4921
11935SOL    HW246735   7.728   2.798   0.649 -0.1915 -0.0880 -1.1740
11936SOL     OW46736   1.260   9.316   2.510 -0.3282 -0.0197 -0.3512
11936SOL    HW146737   1.274   9.221   2.538  0.6047 -0.2314 -1.4653
11936SOL    HW246738   1.162   9.333   2.497 -0.7252 -0.0433  2.4716
11937SOL     OW46739   0.260   4.363   3.430 -0.1527  0.6967  0.0221
11937SOL    HW146740   0.250   4.454   3.469  0.8548  0.4288  0.9632
11937SOL    HW246741   0.355   4.350   3.400 -0.5020  0.2730 -0.9133
11938SOL     OW46742   1.531   1.188   1.532  0.0836 -0.5842  0.4941
11938SOL    HW146743   1.463   1.258   1.510  0.7521  0.2381  0.9920
11938SOL    HW246744   1.525   1.166   1.630  1.5651  0.6264  0.8695
11939SOL     OW46745   0.025   8.302   2.752 -0.1662  0.0901 -0.2524
11939SOL    HW146746   0.036   8.401   2.756  2.3341  0.0594 -3.4154
11939SOL    HW246747  -0.069   8.279   2.730 -0.5071  1.8157 -0.6500
11940SOL     OW46748   6.864   0.459   6.443  0.0549 -0.0263  0.3569
11940SOL    HW146749   6.768   0.477   6.464  0.0655  0.4525 -0.0066
11940SOL    HW246750   6.919   0.473   6.525 -0.4556 -2.4344  1.1447
11941SOL     OW46751   0.808   9.095   1.832  0.1839 -0.0255  0.6372
11941SOL    HW146752   0.832   9.008   1.789 -0.5299 -0.0435  0.2740
11941SOL    HW246753   0.771   9.078   1.924 -0.1784 -0.1239  0.4738
11942SOL     OW46754   5.432   9.383   1.578 -0.0093 -0.0391 -0.2483
11942SOL    HW146755   5.426   9.307   1.513  1.7398 -0.4662  0.0503
11942SOL    HW246756   5.344   9.396   1.624  0.1480 -3.1187  1.0443
11943SOL     OW46757   0.622   9.183   0.704  0.1381  0.0632  0.3002
11943SOL    HW146758   0.590   9.139   0.789 -1.3074  0.0212 -0.2378
11943SOL    HW246759   0.672   9.116   0.649 -0.4548 -0.4067  0.3258
11944SOL     OW46760   0.990   0.535   2.993 -0.3721  0.0574  0.2604
11944SOL    HW146761   0.997   0.512   3.091 -0.3376 -0.0138  0.2409
11944SOL    HW246762   1.006   0.453   2.939  0.6891  0.3211  0.1680
11945SOL     OW46763   8.025   3.408   1.887 -0.4414  0.5273 -0.3470
11945SOL    HW146764   8.036   3.390   1.984 -1.6488 -0.2377 -0.3359
11945SOL    HW246765   8.057   3.500   1.865  2.5192 -0.3082  0.2584
11946SOL     OW46766   8.988   6.153   5.083  0.1247 -0.4754  0.1331
11946SOL    HW146767   8.890   6.134   5.090  0.1042 -0.3840  0.0920
11946SOL    HW246768   9.004   6.251   5.089 -0.2185 -0.0262 -4.4853
11947SOL     OW46769   0.227   7.522   2.986  0.6867  0.0068  0.0706
11947SOL    HW146770   0.322   7.491   2.984  0.9729  0.9550 -2.5105
11947SOL    HW246771   0.219   7.606   2.933 -1.4223  0.5000  1.1283
11948SOL     OW46772   0.469   2.301   4.630 -0.0152 -0.2018  0.4817
11948SOL    HW146773   0.410   2.347   4.696 -0.5222  0.1877 -0.2318
11948SOL    HW246774   0.455   2.341   4.539  0.8061 -0.6068  0.1733
11949SOL     OW46775   0.187   9.032   3.346  0.2422  0.0842  0.5961
11949SOL    HW146776   0.201   8.970   3.423  0.5752  0.2818  0.6948
11949SOL    HW246777   0.202   9.126   3.375 -1.3596  0.3071  0.7131
11950SOL     OW46778   5.366   1.689   3.569  0.5137 -0.8767  0.1615
11950SOL    HW146779   5.344   1.596   3.543 -1.7078 -0.5976  0.9583
11950SOL    HW246780   5.322   1.712   3.656  0.8100  0.9992 -0.1437
11951SOL     OW46781   1.224   5.551   1.147  0.7007 -0.6674 -0.0667
11951SOL    HW146782   1.141   5.522   1.195  0.5217  2.4264  1.6202
11951SOL    HW246783   1.206   5.555   1.049 -1.9916  2.4488  0.4873
11952SOL     OW46784   8.878   4.382   0.798 -0.6663 -0.5103  0.9546
11952SOL    HW146785   8.790   4.389   0.751 -1.8097  0.9424  3.2393
11952SOL    HW246786   8.948   4.430   0.744 -1.6236 -0.1546  0.0061
11953SOL     OW46787   9.001   9.409   2.187  0.1057 -0.0458 -0.1596
11953SOL    HW146788   8.970   9.356   2.108  0.2485  1.1670 -1.0518
11953SOL    HW246789   9.101   9.414   2.187  0.1729 -1.1334  0.8395
11954SOL     OW46790   1.749   7.441   4.922 -0.4641 -0.0697  0.1339
11954SOL    HW146791   1.803   7.422   4.839 -0.4434  3.5331 -0.7751
11954SOL    HW246792   1.712   7.356   4.958  2.1512 -2.1081 -1.7796
11955SOL     OW46793   3.453   5.796   5.094  0.0288  0.2790  0.2092
11955SOL    HW146794   3.547   5.766   5.108  0.2821  1.1546  0.4082
11955SOL    HW246795   3.425   5.775   5.000  0.0636 -0.9173  0.4548
11956SOL     OW46796   0.495   7.997   3.453  0.2409 -0.0359  0.5931
11956SOL    HW146797   0.527   7.925   3.392  0.4972  1.9978 -1.7207
11956SOL    HW246798   0.398   8.016   3.435  0.6241  1.3881 -0.0439
11957SOL     OW46799   8.350   6.928   3.752  0.0409 -0.2057 -0.3147
11957SOL    HW146800   8.331   6.937   3.655  1.9069 -1.0792 -0.7913
11957SOL    HW246801   8.308   6.844   3.787 -0.4746  0.0143 -0.4017
11958SOL     OW46802   7.927   5.520   3.572  0.0950  0.2547  0.8261
11958SOL    HW146803   7.892   5.567   3.491 -1.1376 -1.3725  0.3791
11958SOL    HW246804   8.015   5.478   3.551 -1.0248 -1.6517 -0.2557
11959SOL     OW46805   8.168   4.635   1.451  0.2117  0.5889 -0.0560
11959SOL    HW146806   8.080   4.676   1.475 -0.3468  0.8114 -2.3083
11959SOL    HW246807   8.227   4.704   1.409  0.0982 -0.3463 -1.8249
11960SOL     OW46808   3.443   9.888   2.867  0.1026 -0.3428  0.1235
11960SOL    HW146809   3.388   9.862   2.788 -0.8490 -1.4067  1.1240
11960SOL    HW246810   3.489   9.807   2.904  0.2929  0.0928  0.8465
11961SOL     OW46811   0.846   8.416   5.089  0.0387  0.3319 -0.4544
11961SOL    HW146812   0.763   8.472   5.087  0.4120  1.0109  2.3785
11961SOL    HW246813   0.926   8.475   5.094  0.4907 -0.4241  1.2492
11962SOL     OW46814   2.930   4.797   5.449  0.5122  0.2422 -0.6477
11962SOL    HW146815   2.968   4.889   5.453  0.8109  0.0636  1.1256
11962SOL    HW246816   3.002   4.732   5.426  0.4210  0.3749 -1.3219
11963SOL     OW46817   2.025   6.789   3.409  0.4640 -0.2156  0.0384
11963SOL    HW146818   2.103   6.786   3.471 -0.4968 -0.6967  1.2434
11963SOL    HW246819   1.991   6.696   3.394  0.7060 -0.1091 -1.2548
11964SOL     OW46820   7.521   1.674   2.344 -0.3393  0.0639  0.6179
11964SOL    HW146821   7.516   1.725   2.430 -2.0864  0.3549  0.3543
11964SOL    HW246822   7.542   1.737   2.269  2.5421 -0.3845  0.9823
11965SOL     OW46823   3.234   2.310   1.243  0.1744 -0.0612 -0.6670
11965SOL    HW146824   3.327   2.306   1.207  0.2768  0.2772 -0.4389
11965SOL    HW246825   3.171   2.339   1.171  0.3076  0.1276 -0.7084
11966SOL     OW46826   9.695   5.593   1.835 -0.2121  0.2895  0.4139
11966SOL    HW146827   9.709   5.575   1.932 -1.8447 -1.1986  0.3979
11966SOL    HW246828   9.606   5.635   1.821 -0.3197 -0.2312 -0.5168
11967SOL     OW46829   6.924   7.568   4.149 -0.1310 -0.0783  0.4805
11967SOL    HW146830   7.004   7.626   4.162 -0.3819  0.0093  1.6887
11967SOL    HW246831   6.940   7.505   4.073  1.5572 -0.8964  1.4922
11968SOL     OW46832   8.155   0.003   2.749 -0.0623  0.6874 -0.5884
11968SOL    HW146833   8.211  -0.010   2.666  2.1038  0.3184  0.8866
11968SOL    HW246834   8.178   0.091   2.791 -1.4551  1.0580 -0.5818
11969SOL     OW46835   4.223   8.544   3.332  0.2815 -0.2267 -0.8558
11969SOL    HW146836   4.258   8.450   3.327 -0.5727 -0.4714 -2.8988
11969SOL    HW246837   4.221   8.583   3.240 -1.4489  1.0287 -0.3003
11970SOL     OW46838   8.482   8.679   5.267  0.6288 -0.3256  0.5267
11970SOL    HW146839   8.511   8.764   5.310  0.4858  0.2781 -0.5465
11970SOL    HW246840   8.384   8.666   5.283  1.1552 -1.6267  2.9031
11971SOL     OW46841   8.414   8.976   5.022 -0.5355  0.1886 -0.1448
11971SOL    HW146842   8.434   9.072   5.002  0.7622 -0.5001 -2.3971
11971SOL    HW246843   8.480   8.942   5.090  0.4553  0.3065 -1.0253
11972SOL     OW46844   0.945   0.933   1.287  0.5143 -0.4958  0.5240
11972SOL    HW146845   1.004   0.951   1.209  0.0286  4.1209  1.0660
11972SOL    HW246846   1.001   0.929   1.371  0.4675  0.3392  0.6032
11973SOL     OW46847   9.111   1.572   1.875  0.0892 -0.0750 -0.0816
11973SOL    HW146848   9.117   1.498   1.941  0.1799 -0.8956 -0.9934
11973SOL    HW246849   9.144   1.657   1.916  2.3515 -1.0526  0.1981
11974SOL     OW46850   1.728   3.521   1.082  0.4433  0.4004  0.5533
11974SOL    HW146851   1.639   3.487   1.114 -0.2000  1.2581 -0.3152
11974SOL    HW246852   1.738   3.617   1.107  1.0413  0.3596  0.4707
11975SOL     OW46853   3.002   5.543   0.856 -0.2856 -0.5839 -0.4090
11975SOL    HW146854   2.989   5.626   0.801 -0.2728  0.2605  0.8376
11975SOL    HW246855   3.073   5.486   0.814  0.6320  0.6639 -0.5745
11976SOL     OW46856   1.223   5.041   3.676 -0.7046 -0.1526  0.4840
11976SOL    HW146857   1.262   5.118   3.626  0.9243 -0.4055  1.3354
11976SOL    HW246858   1.124   5.041   3.665 -0.7495  2.1806  0.6301
11977SOL     OW46859   8.104   9.736   4.024  0.4628  0.5062 -0.0723
11977SOL    HW146860   8.164   9.696   4.093  0.9976  0.2282 -0.6891
11977SOL    HW246861   8.154   9.746   3.938  0.4417  2.8039  0.1459
11978SOL     OW46862   8.831   9.017   2.260 -0.1558 -0.3815 -0.6212
11978SOL    HW146863   8.745   9.052   2.224 -0.1518 -1.0515 -1.2714
11978SOL    HW246864   8.843   8.921   2.235 -0.2686 -0.9327  1.3548
11979SOL     OW46865   9.117   8.340   4.067  1.0026  0.5212 -0.4708
11979SOL    HW146866   9.076   8.427   4.039  1.0666  0.6615 -0.1378
11979SOL    HW246867   9.208   8.357   4.105 -0.1276  0.6690  2.2773
11980SOL     OW46868   4.537   7.788   4.711  0.1367 -0.7006  0.0977
11980SOL    HW146869   4.460   7.726   4.728  1.0357 -2.4212 -1.8610
11980SOL    HW246870   4.562   7.834   4.796 -3.1431  0.0073  0.7373
11981SOL     OW46871   5.794   0.845   2.747  0.0406  0.4905 -0.0313
11981SOL    HW146872   5.829   0.939   2.747 -1.3757  1.0369 -0.8504
11981SOL    HW246873   5.713   0.839   2.806  0.4509 -0.3482  0.4570
11982SOL     OW46874   7.202   9.685   2.785 -0.6348  0.2164  0.5312
11982SOL    HW146875   7.224   9.641   2.872  1.6026  0.9121  0.3321
11982SOL    HW246876   7.171   9.616   2.720 -2.3952 -0.2989  1.8841
11983SOL     OW46877   3.897   4.576   4.822 -0.1253 -0.0635 -0.2046
11983SOL    HW146878   3.855   4.514   4.756  0.4943  1.1303 -1.7564
11983SOL    HW246879   3.988   4.542   4.846 -0.1172 -0.1961 -0.4201
11984SOL     OW46880   8.539   3.377   0.174  1.0808 -0.4983  0.2765
11984SOL    HW146881   8.444   3.404   0.156  0.6484 -3.1933 -2.0116
11984SOL    HW246882   8.540   3.303   0.242  1.0810 -3.4144 -2.7529
11985SOL     OW46883   2.133   2.838   4.260  0.3236 -0.0440 -0.0894
11985SOL    HW146884   2.224   2.838   4.300  1.0656  2.7429 -1.6674
11985SOL    HW246885   2.139   2.849   4.161 -1.7529  0.5800 -0.1821
11986SOL     OW46886   1.059   4.769   1.214  0.2679  0.1596 -0.0683
11986SOL    HW146887   1.043   4.769   1.313 -1.5370 -1.6792 -0.3419
11986SOL    HW246888   1.019   4.852   1.174  0.6866  0.7312  0.6713
11987SOL     OW46889   2.611   6.250   3.223  0.3094 -0.1592  0.2142
11987SOL    HW146890   2.568   6.166   3.255 -0.7825  1.0946  2.1962
11987SOL    HW246891   2.540   6.312   3.189  1.0655  0.0701 -0.9300
11988SOL     OW46892   1.478   5.616   4.020 -0.1631 -0.5776  0.2888
11988SOL    HW146893   1.443   5.552   3.951  0.6181  0.0904 -0.7445
11988SOL    HW246894   1.408   5.632   4.089 -0.7867 -1.6392 -0.0830
11989SOL     OW46895   7.849   8.612   3.996 -0.5722 -0.5204  0.0462
11989SOL    HW146896   7.810   8.639   3.907 -2.7177  0.7305  1.3152
11989SOL    HW246897   7.833   8.514   4.011 -2.9865 -0.1223  0.3544
11990SOL     OW46898   2.939   4.860   5.009 -0.6354  0.3473 -0.2898
11990SOL    HW146899   2.891   4.796   4.949  2.5240 -1.6536 -0.7365
11990SOL    HW246900   2.888   4.869   5.095 -1.7621 -1.8082 -0.6893
11991SOL     OW46901   4.575   1.428   0.746  0.2954  0.8935  0.5158
11991SOL    HW146902   4.632   1.350   0.721 -0.9182  0.1251  0.0882
11991SOL    HW246903   4.560   1.427   0.845  1.4195  1.3820  0.6973
11992SOL     OW46904   7.651   0.923   0.409 -0.0308  0.2740  0.0819
11992SOL    HW146905   7.731   0.958   0.458  1.6061 -1.2261 -1.4599
11992SOL    HW246906   7.579   0.993   0.410  1.2262  1.6080  1.5733
11993SOL     OW46907   9.104   9.736   5.189 -0.3739 -0.4429  0.5211
11993SOL    HW146908   9.013   9.711   5.156  0.3557 -0.4417 -1.5482
11993SOL    HW246909   9.113   9.836   5.191 -1.2328 -0.3769  3.0899
11994SOL     OW46910   8.856   2.570   3.863  0.2569  0.4113 -0.1159
11994SOL    HW146911   8.933   2.563   3.927  0.1958  0.5237 -0.0290
11994SOL    HW246912   8.855   2.662   3.823 -1.1983  1.1867  1.6251
11995SOL     OW46913   9.895   6.191   2.205  0.3960 -0.6055  0.2295
11995SOL    HW146914   9.956   6.150   2.273  0.0954 -0.1683  0.7649
11995SOL    HW246915   9.860   6.278   2.240 -0.5111 -0.8445 -0.0882
11996SOL     OW46916   0.451   5.471   0.188 -0.1877  0.3834  0.6434
11996SOL    HW146917   0.459   5.549   0.249 -1.7085 -0.7104  2.2855
11996SOL    HW246918   0.529   5.411   0.200  0.6878  1.3371 -0.1967
11997SOL     OW46919   9.562   6.378   0.186  0.4932  0.2354  0.1569
11997SOL    HW146920   9.614   6.409   0.106  0.6411  1.6929  0.8077
11997SOL    HW246921   9.486   6.319   0.156  0.6413  0.6454 -1.0352
11998SOL     OW46922   9.345   4.092   4.108  0.4265  0.0128  0.1827
11998SOL    HW146923   9.358   4.113   4.204  0.8729  1.3918 -0.1647
11998SOL    HW246924   9.247   4.084   4.089  0.1499  2.8392  0.1512
11999SOL     OW46925   5.607   8.993   4.984 -0.0691  0.2448  0.2462
11999SOL    HW146926   5.598   8.974   5.082 -1.5525  0.0179  0.0753
11999SOL    HW246927   5.573   8.915   4.932 -0.5954  0.9335 -0.4549
12000SOL     OW46928   6.797   4.012   0.640  0.3445 -0.7109  1.1349
12000SOL    HW146929   6.819   3.982   0.733  1.0951  0.8689  1.4932
12000SOL    HW246930   6.787   3.933   0.581  2.7222 -1.6668  1.9357
12001SOL     OW46931   8.468   7.976   4.575  0.9787  0.0311 -0.0370
12001SOL    HW146932   8.442   8.041   4.646  0.6361 -0.6319  0.4565
12001SOL    HW246933   8.432   8.007   4.487 -2.9932 -1.6683  0.8613
12002SOL     OW46934   0.325   9.962   2.803  0.2525 -0.9443  0.6004
12002SOL    HW146935   0.423   9.983   2.810 -0.1361  1.3260 -0.1247
12002SOL    HW246936   0.303   9.943   2.707  0.2642 -3.0359  1.0042
12003SOL     OW46937   4.081   7.350   2.315 -0.7937  0.2402 -0.1049
12003SOL    HW146938   4.162   7.356   2.373  1.1257  2.2588 -2.8465
12003SOL    HW246939   4.052   7.255   2.306  0.3406 -0.3350  2.1175
12004SOL     OW46940   8.782   0.104   0.745  0.2819 -0.4060  0.2790
12004SOL    HW146941   8.812   0.155   0.826  0.4167 -0.8477  0.5062
12004SOL    HW246942   8.770   0.168   0.669 -2.1039  0.3772  1.2581
12005SOL     OW46943   6.924   9.790   1.203 -0.6589 -0.5131  0.5642
12005SOL    HW146944   6.974   9.876   1.211 -0.8509 -0.5164  2.1203
12005SOL    HW246945   6.986   9.718   1.173 -0.7119  0.3479 -1.7206
12006SOL     OW46946   0.612   3.899   5.212 -0.4382 -0.8572 -0.2007
12006SOL    HW146947   0.550   3.894   5.134 -0.4208 -0.0440 -0.2622
12006SOL    HW246948   0.683   3.829   5.202 -0.5538 -0.8892 -0.8036
12007SOL     OW46949   6.152   8.067   2.315 -0.5843  0.2905  0.4158
12007SOL    HW146950   6.078   8.011   2.278 -1.3028  0.8706  0.9768
12007SOL    HW246951   6.153   8.156   2.269  1.1018 -0.4696 -1.0927
12008SOL     OW46952   8.932   0.070   2.180 -0.0986 -0.1170 -0.5694
12008SOL    HW146953   8.980   0.157   2.195 -0.3022 -0.2011  0.5913
12008SOL    HW246954   8.995  -0.006   2.198  0.0121 -0.2130 -1.3584
12009SOL     OW46955   2.547   8.425   2.179 -0.8252 -0.1020 -0.6703
12009SOL    HW146956   2.643   8.442   2.202 -0.5871  0.9073 -2.2784
12009SOL    HW246957   2.493   8.507   2.197 -1.2052 -0.3487 -0.6763
12010SOL     OW46958   0.386   0.703   0.839 -0.4426  0.0951 -0.3012
12010SOL    HW146959   0.369   0.736   0.932 -0.6363  1.1766 -0.7127
12010SOL    HW246960   0.354   0.771   0.773  0.8142 -0.1171 -1.1472
12011SOL     OW46961   4.544   9.203   4.200 -0.2402  0.0196 -0.1974
12011SOL    HW146962   4.516   9.178   4.107  0.0108  0.8026 -0.4905
12011SOL    HW246963   4.613   9.138   4.233  0.5464  0.4344 -1.0179
12012SOL     OW46964   8.389   7.621   4.157 -0.2885 -0.1628 -0.7756
12012SOL    HW146965   8.417   7.715   4.175  2.4549 -0.8740 -1.1664
12012SOL    HW246966   8.298   7.621   4.113 -0.0162  2.3178 -1.4104
12013SOL     OW46967   1.523   3.980   3.129  0.1664  0.5527 -0.1544
12013SOL    HW146968   1.600   4.038   3.155 -0.2641  0.7766  0.6450
12013SOL    HW246969   1.441   4.011   3.177 -1.0438  2.0139 -3.0293
12014SOL     OW46970   0.741   6.438   5.939  0.1859 -0.5284  0.4460
12014SOL    HW146971   0.798   6.491   6.002 -0.9216  0.2412  0.8221
12014SOL    HW246972   0.698   6.501   5.873 -3.6976 -0.4752  2.8659
12015SOL     OW46973   9.418   3.441   2.294 -0.1154  0.2700 -0.0736
12015SOL    HW146974   9.407   3.396   2.205 -0.1297 -0.6846  0.4027
12015SOL    HW246975   9.359   3.522   2.298  0.3306  0.6670 -1.1556
12016SOL     OW46976   9.562   0.718   4.940  0.2313 -0.4899  0.3053
12016SOL    HW146977   9.580   0.628   4.900 -0.5655 -0.0284 -1.1289
12016SOL    HW246978   9.581   0.789   4.873 -2.2111  0.2562  0.3355
12017SOL     OW46979   6.279   8.251   2.904 -0.2034  0.0902 -0.2644
12017SOL    HW146980   6.336   8.228   2.824  0.4042  0.2903  0.1090
12017SOL    HW246981   6.193   8.291   2.872 -0.0826 -0.0865 -0.8310
12018SOL     OW46982   7.183   4.730   0.591  0.4393 -0.0922  0.6827
12018SOL    HW146983   7.258   4.700   0.531 -0.5427  1.9117 -1.6227
12018SOL    HW246984   7.221   4.784   0.666  1.2566  1.6804 -0.9650
12019SOL     OW46985   1.222   4.091   3.646  0.2469  0.2693  0.3378
12019SOL    HW146986   1.316   4.056   3.653 -0.0642 -0.7753 -0.5559
12019SOL    HW246987   1.220   4.170   3.585  0.8193  1.3426  1.6990
12020SOL     OW46988   1.939   8.306   4.028  0.2839  0.5077  0.0808
12020SOL    HW146989   1.987   8.338   3.947 -0.7293  1.4235 -0.1721
12020SOL    HW246990   1.853   8.356   4.038 -0.9509 -1.5714  0.1377
12021SOL     OW46991   2.464   0.313   4.011  0.6126 -0.1349  0.5257
12021SOL    HW146992   2.502   0.221   4.013 -0.7082 -0.7459 -0.7870
12021SOL    HW246993   2.447   0.340   3.916  0.0129  1.0412  0.9468
12022SOL     OW46994   8.067   2.491   5.792 -0.1137  0.0802  0.5213
12022SOL    HW146995   8.024   2.518   5.878  0.0157  1.4701  0.1544
12022SOL    HW246996   8.067   2.391   5.785 -0.1794 -0.0386  2.0969
12023SOL     OW46997   2.075   0.212   3.716  0.6942 -0.3121 -0.2310
12023SOL    HW146998   2.162   0.175   3.684  1.0234 -0.4571  0.8055
12023SOL    HW246999   2.085   0.243   3.811 -0.3482 -0.2115 -0.1489
12024SOL     OW47000   2.861   3.379   3.585 -0.0587  0.6328  0.1247
12024SOL    HW147001   2.771   3.399   3.625 -0.1096 -0.9082  0.7986
12024SOL    HW247002   2.849   3.341   3.494 -0.0053  2.2648 -0.5879
12025SOL     OW47003   8.314   1.183   6.654  0.3717  0.6024  0.2040
12025SOL    HW147004   8.356   1.114   6.714  1.6338 -0.5971 -1.9862
12025SOL    HW247005   8.215   1.172   6.655  0.3997  0.3705  1.7857
12026SOL     OW47006   2.055   4.851   6.082 -0.0511  0.5096 -0.0840
12026SOL    HW147007   2.011   4.839   5.993 -0.4238 -1.7729  0.3747
12026SOL    HW247008   1.998   4.910   6.139 -0.7553  0.4544 -0.7120
12027SOL     OW47009   3.536   9.769   4.125 -0.1327  0.1704 -0.4938
12027SOL    HW147010   3.614   9.800   4.071  0.1548 -0.2477 -0.3148
12027SOL    HW247011   3.497   9.847   4.175 -0.9057  0.7219 -1.9252
12028SOL     OW47012   4.023   6.470   4.209 -0.0975 -0.0791 -0.1223
12028SOL    HW147013   4.053   6.561   4.237 -0.7760  0.3204 -0.6683
12028SOL    HW247014   3.946   6.479   4.145  1.4243 -0.9536 -2.1362
12029SOL     OW47015   1.089   3.265   6.031  0.3450  0.5876 -0.3849
12029SOL    HW147016   0.992   3.264   6.005 -0.3452  1.2962  2.0466
12029SOL    HW247017   1.133   3.182   5.997 -0.9978  0.4615 -1.8879
12030SOL     OW47018   6.652   9.120   2.506  0.2374 -0.2407  0.2452
12030SOL    HW147019   6.690   9.033   2.535  1.2526  0.6002  1.4774
12030SOL    HW247020   6.557   9.127   2.537 -0.2694 -1.4432 -0.9977
12031SOL     OW47021   9.571   4.469   3.649  0.2359 -0.2384  0.3812
12031SOL    HW147022   9.598   4.374   3.634  0.7356 -0.1303  0.5872
12031SOL    HW247023   9.604   4.525   3.573  1.4274  0.0543  1.1080
12032SOL     OW47024   9.577   0.105   2.541  0.3165 -0.5628 -0.2325
12032SOL    HW147025   9.635   0.081   2.463  0.1917  0.1537 -0.5463
12032SOL    HW247026   9.623   0.174   2.596  0.9259 -1.9056  0.9814
12033SOL     OW47027   0.060   3.631   2.226  0.4880  0.2174 -0.2161
12033SOL    HW147028   0.040   3.705   2.162  0.6047 -0.2608 -0.8110
12033SOL    HW247029   0.059   3.666   2.320 -1.5531  0.5293 -0.3314
12034SOL     OW47030   5.377   3.181   0.064 -0.0302  0.3810 -0.0482
12034SOL    HW147031   5.309   3.218   0.127 -0.4540  0.8219 -0.7617
12034SOL    HW247032   5.400   3.250  -0.005  1.8681  0.5879  0.7592
12035SOL     OW47033   0.709   1.813   2.077  0.1513 -0.4176  0.1584
12035SOL    HW147034   0.698   1.770   1.987  0.7238 -0.1058 -0.0668
12035SOL    HW247035   0.619   1.828   2.118 -0.0663 -1.5125  0.0972
12036SOL     OW47036   7.570   1.486   3.081  0.2030  0.2399  0.4067
12036SOL    HW147037   7.649   1.507   3.023  0.2056 -0.0537  0.3023
12036SOL    HW247038   7.541   1.569   3.129  0.2421  0.4696  0.0352
12037SOL     OW47039   7.957   4.850   1.068 -0.3870 -0.3883 -0.1691
12037SOL    HW147040   7.874   4.831   1.017  1.4893 -2.0514 -2.7456
12037SOL    HW247041   8.032   4.793   1.032  1.3666 -0.5457  3.4778
12038SOL     OW47042   9.644   2.851   5.732  0.4840  0.5254  0.0751
12038SOL    HW147043   9.715   2.913   5.765  0.7267 -0.1191  0.7608
12038SOL    HW247044   9.633   2.774   5.795 -1.5497  1.1517  0.5397
12039SOL     OW47045   8.408   4.531   2.439 -0.0303 -0.2942  0.0671
12039SOL    HW147046   8.385   4.526   2.342 -1.0457  1.1824  0.2121
12039SOL    HW247047   8.434   4.625   2.462 -0.5125 -0.4770  1.3886
12040SOL     OW47048   7.818   2.757   4.786  0.4301 -0.0824  0.4723
12040SOL    HW147049   7.827   2.658   4.798  1.5263  0.0024  0.4363
12040SOL    HW247050   7.906   2.801   4.806  0.4143  0.7237 -1.1373
12041SOL     OW47051   9.823   8.374   3.120  0.6183  0.0286 -0.0675
12041SOL    HW147052   9.759   8.366   3.044  1.9025  1.1375 -1.3128
12041SOL    HW247053   9.904   8.318   3.102  1.9735  2.1055 -0.6755
12042SOL     OW47054   3.146   8.366   2.355  0.0529 -0.5979 -0.7477
12042SOL    HW147055   3.245   8.355   2.358  0.2289  0.7040 -1.2766
12042SOL    HW247056   3.103   8.297   2.413  1.5541  1.9612  3.6997
12043SOL     OW47057   0.225   8.560   3.029  0.2248 -0.2209 -0.3390
12043SOL    HW147058   0.249   8.610   2.946 -0.2264 -0.0055 -0.3433
12043SOL    HW247059   0.155   8.611   3.079 -1.0691 -1.4113 -0.9181
12044SOL     OW47060   3.857   5.964   2.406 -0.3043 -0.6245  0.0739
12044SOL    HW147061   3.815   6.017   2.332 -0.4632 -0.0132  0.6049
12044SOL    HW247062   3.806   5.978   2.491  1.8807  1.3499  1.0898
12045SOL     OW47063   8.359   2.743   3.955 -0.4497 -0.1615 -0.0463
12045SOL    HW147064   8.327   2.798   4.032  1.8415  1.9408 -0.5525
12045SOL    HW247065   8.308   2.768   3.872  0.2954  0.8802 -0.1862
12046SOL     OW47066   1.725   4.587   4.894  0.7421 -0.1469 -0.8256
12046SOL    HW147067   1.690   4.571   4.987 -0.4279 -2.9826 -1.7170
12046SOL    HW247068   1.649   4.617   4.836  1.6390  2.4540 -0.7190
12047SOL     OW47069   3.704   5.146   3.798 -0.2766 -0.4021 -0.1717
12047SOL    HW147070   3.738   5.240   3.804  0.0336 -0.4913 -0.5026
12047SOL    HW247071   3.606   5.145   3.815 -0.8035  0.3664 -2.9028
12048SOL     OW47072   6.757   7.381   2.710  0.0382 -0.2629  0.4462
12048SOL    HW147073   6.829   7.433   2.664 -0.1452 -1.1099 -0.8259
12048SOL    HW247074   6.669   7.404   2.668 -0.0223 -1.6967 -0.2289
12049SOL     OW47075   4.041   7.117   2.779 -0.0079  0.2089 -0.4149
12049SOL    HW147076   3.993   7.052   2.720 -0.5484  0.6509 -0.4728
12049SOL    HW247077   4.089   7.068   2.852  1.5984 -0.4243 -1.8776
12050SOL     OW47078   9.489   8.876   2.729 -0.1768  0.4088 -0.6264
12050SOL    HW147079   9.431   8.956   2.749  0.4210  0.7000 -0.0041
12050SOL    HW247080   9.529   8.843   2.815 -0.7639 -0.8291 -0.8288
12051SOL     OW47081   9.712   9.203   2.584  0.5395 -0.1888  0.3982
12051SOL    HW147082   9.694   9.243   2.494 -1.2808 -0.3575  0.6576
12051SOL    HW247083   9.692   9.106   2.582  0.1192 -0.1185  1.0785
12052SOL     OW47084   9.253   5.020   2.542  0.2735 -0.9382 -0.0098
12052SOL    HW147085   9.256   5.042   2.445  0.6829  1.8815  0.5896
12052SOL    HW247086   9.293   5.095   2.595  2.1652 -3.3851  2.2272
12053SOL     OW47087   7.633   0.209   1.925  0.0145  0.1297  0.7319
12053SOL    HW147088   7.642   0.178   2.020 -0.5875  0.3727  0.8731
12053SOL    HW247089   7.669   0.140   1.864  0.5969  0.0570  1.1501
12054SOL     OW47090   9.045   6.536   0.488  0.0248  0.2910 -0.5855
12054SOL    HW147091   9.036   6.513   0.391  0.5289  0.1465 -0.6002
12054SOL    HW247092   9.094   6.462   0.535  0.2202  0.5911 -0.3169
12055SOL     OW47093   2.107   7.295   3.612 -0.2577 -0.1759  0.3603
12055SOL    HW147094   2.025   7.349   3.591  0.0700  0.1740 -0.0622
12055SOL    HW247095   2.088   7.233   3.688 -0.4637  0.9814  1.2742
12056SOL     OW47096   1.611   9.444   4.578  0.1452  0.2219 -0.3087
12056SOL    HW147097   1.624   9.410   4.484  0.3105  2.1586 -1.0049
12056SOL    HW247098   1.681   9.511   4.599 -0.8161  0.9392  0.6610
12057SOL     OW47099   1.258   3.330   0.757 -0.8999  0.8795 -0.2723
12057SOL    HW147100   1.337   3.390   0.768  0.6246 -1.2598  0.8018
12057SOL    HW247101   1.210   3.321   0.844 -0.3219 -0.5149 -0.0827
12058SOL     OW47102   1.831   3.564   6.534 -0.1497 -0.2173 -0.5660
12058SOL    HW147103   1.764   3.501   6.575 -0.4706  0.5406  0.0919
12058SOL    HW247104   1.884   3.608   6.607 -0.7829  1.2107 -0.9438
12059SOL     OW47105   4.563   4.549   1.043  0.5509  0.5020  0.2370
12059SOL    HW147106   4.655   4.559   1.079  0.6630  0.6954 -0.1065
12059SOL    HW247107   4.542   4.626   0.983  0.3155  0.2477 -0.0095
12060SOL     OW47108   3.342   5.719   3.027 -0.0785 -0.4784  0.5469
12060SOL    HW147109   3.368   5.814   3.040  0.4285 -0.5248 -0.0758
12060SOL    HW247110   3.269   5.695   3.090 -1.8413  0.9973 -0.8662
12061SOL     OW47111   0.784   6.001   3.624  0.1342  0.4151 -0.1083
12061SOL    HW147112   0.838   5.925   3.659  1.5645  1.5965  0.2856
12061SOL    HW247113   0.748   6.054   3.701 -0.8739  0.1364 -0.3790
12062SOL     OW47114   1.895   8.871   4.319  0.4774  0.0173 -0.1807
12062SOL    HW147115   1.803   8.869   4.279  0.7068 -0.8934 -0.6795
12062SOL    HW247116   1.907   8.956   4.371  0.0260  1.0552 -1.7196
12063SOL     OW47117   5.156   3.409   6.398 -0.1143 -0.5030  0.0604
12063SOL    HW147118   5.207   3.452   6.473  0.1584 -0.3114 -0.2381
12063SOL    HW247119   5.157   3.310   6.410 -1.0671 -0.4176  0.9675
12064SOL     OW47120   9.493   0.648   4.044 -0.4194  0.9292  0.0129
12064SOL    HW147121   9.460   0.680   3.956  1.0106  0.9513 -0.5360
12064SOL    HW247122   9.440   0.568   4.072 -1.3734  1.3713 -0.5041
12065SOL     OW47123   3.562   1.893   1.810 -0.1571  0.4314  0.2899
12065SOL    HW147124   3.535   1.918   1.903 -0.4700  0.7151  0.1236
12065SOL    HW247125   3.573   1.976   1.755 -0.9605  0.2148 -0.2019
12066SOL     OW47126   4.201   1.239   3.199  0.1188 -0.0736 -0.0633
12066SOL    HW147127   4.271   1.171   3.179 -0.9843 -1.5739  1.0084
12066SOL    HW247128   4.188   1.298   3.120  1.6607 -0.5992 -0.7283
12067SOL     OW47129   1.911   0.809   1.387  0.1719 -0.1881 -0.2571
12067SOL    HW147130   1.981   0.767   1.330  0.5898  0.2266 -0.0565
12067SOL    HW247131   1.858   0.738   1.433  1.1138 -0.4855  0.3739
12068SOL     OW47132   0.042   4.464   5.928  0.1408  0.2462 -0.0766
12068SOL    HW147133   0.065   4.497   5.836 -2.6273 -0.2632 -1.0131
12068SOL    HW247134   0.023   4.541   5.988 -0.2665  0.5232 -0.5610
12069SOL     OW47135   4.835   4.685   0.633  0.2788 -0.8452  0.3163
12069SOL    HW147136   4.899   4.740   0.580  2.2174 -2.1275  1.2572
12069SOL    HW247137   4.827   4.594   0.591 -0.0795 -1.0596  0.8400
12070SOL     OW47138   2.000   3.675   1.738 -0.0235  0.7862  0.3438
12070SOL    HW147139   2.008   3.575   1.738 -0.3740  0.7568 -0.0439
12070SOL    HW247140   1.980   3.707   1.831 -0.3081  0.4581  0.3966
12071SOL     OW47141   3.997   5.131   5.684  0.8581  0.1180  0.6859
12071SOL    HW147142   4.051   5.209   5.653 -1.2750  2.0471  1.6409
12071SOL    HW247143   3.907   5.134   5.641  0.4845 -1.3875  1.3389
12072SOL     OW47144   8.050   9.452   0.926 -0.7703 -0.1370  0.9686
12072SOL    HW147145   7.985   9.377   0.936 -0.9541 -0.0178  0.6469
12072SOL    HW247146   8.031   9.503   0.842  0.9957 -1.3289 -0.1647
12073SOL     OW47147   3.933   5.743   0.037 -0.1783 -0.6201 -0.0951
12073SOL    HW147148   3.843   5.788   0.038  0.4125  0.5575  1.5544
12073SOL    HW247149   3.925   5.651   0.076 -0.3642  0.0917  1.5729
12074SOL     OW47150   8.096   0.861   5.430 -0.3272 -0.2236 -0.1741
12074SOL    HW147151   8.007   0.824   5.455  0.3164 -0.3684  1.9461
12074SOL    HW247152   8.168   0.804   5.469  0.6855  2.7228  2.3930
12075SOL     OW47153   0.948   8.025   1.018 -0.1669 -0.0887 -0.0956
12075SOL    HW147154   0.884   7.949   1.031 -1.6663  1.4222  1.7478
12075SOL    HW247155   1.042   7.990   1.021 -0.8434 -2.1613 -1.5581
12076SOL     OW47156   3.580   5.462   2.160 -0.2021  0.1624 -0.4943
12076SOL    HW147157   3.573   5.459   2.061 -2.0340 -2.6968 -0.3402
12076SOL    HW247158   3.595   5.370   2.196 -0.0722  1.0781  1.9117
12077SOL     OW47159   4.209   5.649   1.116  0.3535  0.8147  0.2929
12077SOL    HW147160   4.123   5.673   1.159  1.0792  1.2233  1.5234
12077SOL    HW247161   4.276   5.722   1.130  0.5819  1.0173 -1.6202
12078SOL     OW47162   3.404   5.787   6.543 -0.4144 -0.5021 -0.3548
12078SOL    HW147163   3.383   5.852   6.616  0.2517 -0.1403 -0.4780
12078SOL    HW247164   3.406   5.695   6.580  0.8627 -0.2222  0.2869
12079SOL     OW47165   0.233   1.819   0.602 -0.3240 -0.1349  0.5113
12079SOL    HW147166   0.182   1.794   0.519  3.5893 -1.1618 -1.7181
12079SOL    HW247167   0.244   1.739   0.660 -0.0381 -0.2488  0.3009
12080SOL     OW47168   2.356   7.939   5.212 -0.0986 -0.0423  0.3931
12080SOL    HW147169   2.382   7.990   5.294 -0.5033 -1.2557  1.2882
12080SOL    HW247170   2.283   7.988   5.164 -0.2067  0.4115  1.0210
12081SOL     OW47171   4.525   6.483   1.964  0.2450  0.1581  0.2701
12081SOL    HW147172   4.509   6.575   1.927 -0.8246 -0.5348 -1.0115
12081SOL    HW247173   4.606   6.485   2.022  0.3916  1.8577  0.0522
12082SOL     OW47174   8.113   2.443   0.823  0.4531  0.1405  0.0630
12082SOL    HW147175   8.035   2.497   0.855  1.4715  2.6808 -1.5518
12082SOL    HW247176   8.106   2.429   0.725 -0.5960 -4.1287  0.6723
12083SOL     OW47177   9.399   0.426   2.576 -0.0717  0.7379 -0.1600
12083SOL    HW147178   9.458   0.351   2.546 -0.4692  0.6816 -0.8033
12083SOL    HW247179   9.361   0.472   2.496 -0.8784  0.7879  0.2540
12084SOL     OW47180   1.727   4.550   2.113 -0.0778 -0.2593  0.0428
12084SOL    HW147181   1.628   4.543   2.097  0.1073 -1.8270 -0.4957
12084SOL    HW247182   1.758   4.642   2.089 -1.3028  0.0567 -0.3709
12085SOL     OW47183   3.182   5.730   5.093  0.7562 -0.2794 -0.7219
12085SOL    HW147184   3.276   5.750   5.123 -0.8109  1.6727  3.3277
12085SOL    HW247185   3.132   5.816   5.085 -1.1775 -1.4335 -1.1060
12086SOL     OW47186   6.305   0.090   2.938  0.4825  0.1749 -0.0453
12086SOL    HW147187   6.319   0.179   2.895  1.7604  0.0044  0.0161
12086SOL    HW247188   6.392   0.054   2.971  0.2039 -1.6828 -1.2215
12087SOL     OW47189   4.959   9.366   3.160 -0.0575  0.0855  0.1132
12087SOL    HW147190   5.055   9.385   3.140 -0.9084  1.8957 -2.4375
12087SOL    HW247191   4.932   9.281   3.116 -0.2346  0.7778 -1.1260
12088SOL     OW47192   4.799   7.856   3.145  0.6751  0.0997  0.8364
12088SOL    HW147193   4.823   7.810   3.060  0.0421 -2.1546  1.8154
12088SOL    HW247194   4.882   7.876   3.197  0.9402 -0.3189  0.5742
12089SOL     OW47195   0.376   0.866   4.179 -0.1223 -0.4050 -0.0720
12089SOL    HW147196   0.378   0.963   4.204 -0.2764 -0.5146  0.3674
12089SOL    HW247197   0.458   0.821   4.214  0.5738 -0.1713 -1.3641
12090SOL     OW47198   2.841   0.613   4.319 -0.4698 -0.1655  0.2454
12090SOL    HW147199   2.929   0.656   4.338  0.4631 -2.4661  1.3811
12090SOL    HW247200   2.769   0.659   4.372  0.3241  0.6666  0.6050
12091SOL     OW47201   3.338   2.516   2.632  0.1795  0.2506  0.4196
12091SOL    HW147202   3.319   2.579   2.556 -2.8844 -2.5087 -1.2536
12091SOL    HW247203   3.409   2.452   2.604  0.2609  0.3032  0.5075
12092SOL     OW47204   7.150   9.593   1.139 -0.0620 -0.0908 -0.0518
12092SOL    HW147205   7.181   9.532   1.066 -0.0426  0.7668 -0.7706
12092SOL    HW247206   7.228   9.639   1.180  0.0340 -1.4241  1.2882
12093SOL     OW47207   8.455   3.706   3.965 -0.3562 -0.4527  0.0285
12093SOL    HW147208   8.428   3.678   3.873 -0.4223  0.0660 -0.1108
12093SOL    HW247209   8.395   3.780   3.996 -0.3439 -0.6317  0.4976
12094SOL     OW47210   0.664   6.438   3.797 -0.2159 -0.5806 -0.0130
12094SOL    HW147211   0.749   6.439   3.851 -0.7775 -0.4301  0.8863
12094SOL    HW247212   0.686   6.425   3.701  0.7431 -2.3087  0.4091
12095SOL     OW47213   7.895   6.209   4.929  0.3660 -0.5361  0.2457
12095SOL    HW147214   7.914   6.275   4.856  0.0667 -0.0557  0.5997
12095SOL    HW247215   7.856   6.125   4.890 -0.6761  0.0788 -0.0545
12096SOL     OW47216   3.274   3.649   3.180 -0.0909 -0.7919 -0.2905
12096SOL    HW147217   3.236   3.705   3.106 -0.7527 -1.3475 -0.3854
12096SOL    HW247218   3.201   3.593   3.219  0.1481 -0.1487  1.1146
12097SOL     OW47219   1.145   5.872   2.707 -0.1679 -0.4493 -0.1186
12097SOL    HW147220   1.233   5.847   2.749 -0.7684 -0.1364  1.3507
12097SOL    HW247221   1.144   5.970   2.689 -0.2297 -0.4441 -0.0871
12098SOL     OW47222   4.220   8.418   1.183 -0.0630 -0.4858  0.3888
12098SOL    HW147223   4.300   8.383   1.231 -0.3344 -1.2615  0.2984
12098SOL    HW247224   4.138   8.398   1.237 -0.2172  0.1115  0.3798
12099SOL     OW47225   0.127   0.690   2.005  0.4649 -0.0650  0.2126
12099SOL    HW147226   0.099   0.654   1.915  0.0415  0.0743  0.2876
12099SOL    HW247227   0.212   0.646   2.033 -0.4224 -1.5430  0.6244
12100SOL     OW47228   4.534   2.932   3.975  0.0516  0.2361 -0.4856
12100SOL    HW147229   4.555   2.875   3.896  0.9288  0.7921 -0.6601
12100SOL    HW247230   4.511   3.025   3.944  0.9927  0.6190 -0.0531
12101SOL     OW47231   3.914   8.305   3.315 -0.2342 -0.4029  0.0077
12101SOL    HW147232   3.922   8.356   3.229 -1.6362  1.3012  0.8709
12101SOL    HW247233   4.002   8.262   3.336  0.8989  1.4010 -0.8895
12102SOL     OW47234   8.350   2.329   0.639  0.8283  0.3098 -0.0601
12102SOL    HW147235   8.373   2.274   0.559  0.0378  1.5131 -1.1301
12102SOL    HW247236   8.255   2.361   0.631  0.9170  0.8700  1.0983
12103SOL     OW47237   1.573   2.096   2.644 -0.0477  0.5403  0.3468
12103SOL    HW147238   1.587   2.063   2.737  1.3061  1.0064  0.3156
12103SOL    HW247239   1.652   2.071   2.588 -0.6835  0.6076 -0.5845
12104SOL     OW47240   3.090   9.339   2.691  0.0967 -0.5004 -0.2559
12104SOL    HW147241   3.076   9.278   2.768 -0.3660 -0.7159 -0.5122
12104SOL    HW247242   3.182   9.380   2.697  0.1259 -0.6519  0.3068
12105SOL     OW47243   8.320   9.101   4.343  0.1763  0.4579  0.1911
12105SOL    HW147244   8.386   9.094   4.268  0.0712 -1.9999  0.2798
12105SOL    HW247245   8.368   9.099   4.430  0.0929  0.4002  0.2350
12106SOL     OW47246   2.312   7.740   4.140  0.0442  0.2697 -0.1789
12106SOL    HW147247   2.318   7.748   4.041  1.5903 -0.0630 -0.1385
12106SOL    HW247248   2.345   7.649   4.168  0.6359  0.7348  0.7000
12107SOL     OW47249   3.778   5.022   4.759  0.1215 -0.3172 -0.2990
12107SOL    HW147250   3.816   5.030   4.851 -0.3010 -0.0767 -0.1432
12107SOL    HW247251   3.809   5.098   4.703 -0.0999 -0.1426 -0.1836
12108SOL     OW47252   9.077   4.725   3.975  0.2618 -0.1210 -0.2037
12108SOL    HW147253   9.085   4.751   4.071  1.7225  1.2381 -0.6816
12108SOL    HW247254   8.983   4.740   3.945  0.2664  1.3624  0.4734
12109SOL     OW47255   5.681   9.305   4.207 -0.4046 -0.5487 -0.3628
12109SOL    HW147256   5.740   9.268   4.278 -1.3527 -1.2968  0.0419
12109SOL    HW247257   5.673   9.404   4.219  1.4865 -0.3090 -0.9732
12110SOL     OW47258   4.035   4.070   0.665 -0.2031  0.3752 -0.4538
12110SOL    HW147259   4.060   3.973   0.669  1.4499  0.8434  1.3160
12110SOL    HW247260   4.117   4.124   0.647 -0.5689  1.6775  1.6299
12111SOL     OW47261   6.684   0.984   1.036  0.1092 -0.5500 -0.0909
12111SOL    HW147262   6.593   0.946   1.049 -0.0628 -0.7154 -1.6034
12111SOL    HW247263   6.706   1.046   1.111 -1.4771 -0.0774  0.0076
12112SOL     OW47264   7.742   1.667   2.628  0.2846 -0.3791  0.3414
12112SOL    HW147265   7.673   1.721   2.579  0.2164 -0.5101  0.2922
12112SOL    HW247266   7.833   1.704   2.609  0.2557 -0.4056  0.1460
12113SOL     OW47267   8.567   6.090   1.176 -0.1232 -0.0022  0.3500
12113SOL    HW147268   8.602   6.024   1.241  0.7429 -1.2130 -1.2955
12113SOL    HW247269   8.475   6.065   1.148 -0.3210  0.2621  0.7664
12114SOL     OW47270   4.493   3.043   2.610  0.0194  0.0901  0.3251
12114SOL    HW147271   4.578   3.010   2.569  0.7889  1.0520  1.1121
12114SOL    HW247272   4.472   2.988   2.691 -0.3244 -0.3872 -0.0787
12115SOL     OW47273   0.275   4.125   0.675  0.2518  0.3893  0.0952
12115SOL    HW147274   0.292   4.076   0.761 -0.7084  0.0116  0.0751
12115SOL    HW247275   0.360   4.131   0.623  0.4012 -1.2023  0.1278
12116SOL     OW47276   1.092   3.897   3.758 -0.2254  0.4955 -0.0884
12116SOL    HW147277   1.140   3.975   3.719 -0.8672  0.5090 -0.8720
12116SOL    HW247278   1.015   3.872   3.698  0.2128 -0.9846 -0.0546
12117SOL     OW47279   5.407   0.417   0.373 -0.4560 -0.1906 -0.1660
12117SOL    HW147280   5.505   0.417   0.395 -0.3150 -0.4427 -0.7682
12117SOL    HW247281   5.371   0.324   0.383 -0.0914 -0.5875 -2.2401
12118SOL     OW47282   2.237   0.492   4.213 -0.0020 -0.4397  0.3279
12118SOL    HW147283   2.320   0.440   4.230  0.0862 -1.1626 -2.0861
12118SOL    HW247284   2.160   0.429   4.202 -0.6227  0.1537  1.2084
12119SOL     OW47285   9.708   2.618   4.024  0.2005 -0.3053  0.6472
12119SOL    HW147286   9.614   2.648   4.036  0.0061 -1.5001  2.1898
12119SOL    HW247287   9.769   2.680   4.073 -0.0270 -1.1461  2.0245
12120SOL     OW47288   5.993   8.383   4.529 -0.6752  0.6884 -0.8146
12120SOL    HW147289   5.950   8.433   4.604 -0.9498  0.4795 -0.8298
12120SOL    HW247290   6.088   8.364   4.551 -0.7546  0.6339 -0.5231
12121SOL     OW47291   4.156   5.142   1.909  0.4878  0.4156 -0.6587
12121SOL    HW147292   4.195   5.222   1.954  0.4813  0.0946 -0.0848
12121SOL    HW247293   4.137   5.071   1.977  0.8924 -0.2362 -1.2131
12122SOL     OW47294   5.455   0.084   1.972  0.1385  0.3289  0.1972
12122SOL    HW147295   5.550   0.113   1.964 -0.2612  1.6909  0.1638
12122SOL    HW247296   5.395   0.156   1.936 -0.9001 -0.5642  0.0981
12123SOL     OW47297   0.038   9.550   2.867  0.1270 -0.1856  0.2242
12123SOL    HW147298   0.005   9.576   2.958  2.1122 -0.6737  1.1126
12123SOL    HW247299  -0.029   9.492   2.823 -1.1085  0.5040  1.1514
12124SOL     OW47300   3.013   1.545   2.422  0.3054 -0.1099 -0.2216
12124SOL    HW147301   2.997   1.493   2.506  0.5479 -1.5358 -1.0408
12124SOL    HW247302   3.013   1.643   2.443 -0.1981 -0.4282  1.3390
12125SOL     OW47303   3.587   5.784   5.729 -0.3892 -0.1473  0.4926
12125SOL    HW147304   3.626   5.872   5.756 -0.5609  0.1345 -0.1843
12125SOL    HW247305   3.494   5.798   5.694 -0.0317 -0.4648 -0.5943
12126SOL     OW47306   9.619   2.202   2.165 -0.9976  0.0782  0.1161
12126SOL    HW147307   9.588   2.163   2.252 -4.2683  0.7579 -0.6694
12126SOL    HW247308   9.601   2.137   2.091 -1.3192  0.8303 -0.4750
12127SOL     OW47309   1.943   9.807   1.466  0.0111 -0.1256 -0.7646
12127SOL    HW147310   1.924   9.825   1.369 -0.4992  3.0982 -0.1296
12127SOL    HW247311   1.899   9.877   1.522  0.1963 -2.0162  1.8461
12128SOL     OW47312   9.603   8.907   4.250 -0.1086 -0.2115  0.3270
12128SOL    HW147313   9.544   8.956   4.314 -0.5645 -0.8315  0.3839
12128SOL    HW247314   9.687   8.960   4.235  0.1066 -0.1619  1.6146
12129SOL     OW47315   1.862   6.151   2.415  0.5454  0.2745 -0.0281
12129SOL    HW147316   1.778   6.109   2.382  0.8670  0.6585 -1.3686
12129SOL    HW247317   1.839   6.223   2.480 -0.1198 -0.1577  0.2282
12130SOL     OW47318   5.990   8.630   2.905  0.2632  0.2062 -0.5477
12130SOL    HW147319   5.925   8.702   2.883  0.8671  0.6248 -0.9720
12130SOL    HW247320   5.975   8.599   2.999  1.2973  2.2869  0.3440
12131SOL     OW47321   4.278   9.482   1.602 -0.4056  0.2384 -0.0508
12131SOL    HW147322   4.248   9.575   1.621  0.1466  0.6705 -1.2644
12131SOL    HW247323   4.288   9.468   1.504 -1.9351 -1.5774  0.0088
12132SOL     OW47324   4.890   6.227   2.146 -0.3091  0.5880 -0.5657
12132SOL    HW147325   4.983   6.251   2.117 -0.3267  0.1892 -0.9662
12132SOL    HW247326   4.858   6.149   2.092 -0.9401  0.8282 -0.5387
12133SOL     OW47327   1.675   3.976   2.816 -0.1730  0.0136 -0.2563
12133SOL    HW147328   1.650   4.071   2.795 -0.0701  0.3658  1.2000
12133SOL    HW247329   1.609   3.937   2.879  1.0676 -0.1238  0.9884
12134SOL     OW47330   0.066   5.371   1.664  0.1287 -0.3704 -0.4726
12134SOL    HW147331   0.032   5.295   1.719 -2.8579 -1.0393 -3.0887
12134SOL    HW247332   0.127   5.335   1.593 -0.1716 -0.1378 -0.8458
12135SOL     OW47333   6.267   9.175   1.676  0.2035  0.2398 -0.1028
12135SOL    HW147334   6.170   9.154   1.671 -0.1723  1.9166 -0.2321
12135SOL    HW247335   6.295   9.224   1.593  1.6559 -2.1406 -1.0674
12136SOL     OW47336   1.069   5.932   4.782 -0.2227  0.0237 -0.0656
12136SOL    HW147337   0.974   5.903   4.784 -0.8175  1.9478  0.5534
12136SOL    HW247338   1.103   5.944   4.875 -0.0397  1.4030 -0.2986
12137SOL     OW47339   3.890   5.118   4.481  0.4111  0.4377 -0.1960
12137SOL    HW147340   3.972   5.061   4.472  1.1053  1.1351  1.4775
12137SOL    HW247341   3.813   5.075   4.434  1.5251 -0.6728 -1.0048
12138SOL     OW47342   9.068   8.932   4.118  0.6307  0.3728  0.0652
12138SOL    HW147343   9.033   8.975   4.035 -0.6567  0.0309  0.4285
12138SOL    HW247344   9.041   8.985   4.198 -1.7045 -1.5207  0.5939
12139SOL     OW47345   5.588   3.488   6.337 -0.1394  0.0912 -0.3271
12139SOL    HW147346   5.607   3.529   6.427 -0.8090 -0.8166  0.2347
12139SOL    HW247347   5.611   3.391   6.340  2.2355  0.5632 -1.9046
12140SOL     OW47348   1.777   9.665   2.353 -0.3741 -0.2440  0.1631
12140SOL    HW147349   1.859   9.639   2.303 -0.4310  0.2069 -0.1673
12140SOL    HW247350   1.696   9.632   2.305 -0.4637  0.8373 -0.4473
12141SOL     OW47351   4.053   4.146   1.899 -0.4683 -0.1198 -0.7629
12141SOL    HW147352   4.104   4.068   1.936  1.2126  1.6506  0.7896
12141SOL    HW247353   3.972   4.162   1.954 -0.1515 -0.0207 -0.3207
12142SOL     OW47354   2.505   9.249   2.917 -0.1733 -0.3940  0.1894
12142SOL    HW147355   2.475   9.336   2.879 -0.6456 -1.4126 -1.8089
12142SOL    HW247356   2.456   9.231   3.003 -0.2570  1.1635  0.4775
12143SOL     OW47357   2.397   5.780   5.460  0.2462 -0.0048 -0.2298
12143SOL    HW147358   2.477   5.839   5.470  1.0354 -1.3355  1.6133
12143SOL    HW247359   2.405   5.727   5.376  0.8828  0.4895 -0.4834
12144SOL     OW47360   3.646   3.979   4.422 -0.0584  0.0851  0.3162
12144SOL    HW147361   3.701   4.021   4.494 -2.1331  2.6499  0.4771
12144SOL    HW247362   3.672   4.018   4.334  0.0538 -0.4957  0.0902
12145SOL     OW47363   7.024   7.589   4.711  0.5676  0.2973  0.0146
12145SOL    HW147364   6.924   7.592   4.714  0.4051 -2.2992 -1.1575
12145SOL    HW247365   7.056   7.508   4.760  2.0991  0.9890  0.1814
12146SOL     OW47366   8.988   6.980   5.097 -0.0018 -0.3325  0.4792
12146SOL    HW147367   9.037   6.915   5.039  0.4378 -0.3291  0.8435
12146SOL    HW247368   8.990   7.071   5.055  1.6914  0.0091  1.2671
12147SOL     OW47369   0.556   7.199   6.122 -0.7919 -0.3760 -0.0728
12147SOL    HW147370   0.543   7.176   6.026 -1.4642  0.5836 -0.2171
12147SOL    HW247371   0.523   7.123   6.179 -0.4914 -0.8985 -0.5883
12148SOL     OW47372   3.451   1.620   1.120 -0.1117 -0.7867  0.3179
12148SOL    HW147373   3.500   1.652   1.201 -0.4909 -2.7013  1.3422
12148SOL    HW247374   3.511   1.623   1.041  0.8828 -0.7823  1.0649
12149SOL     OW47375   8.021   0.478   3.734 -0.4216 -0.3933 -0.1455
12149SOL    HW147376   7.997   0.567   3.772 -2.8859 -1.1605  0.1636
12149SOL    HW247377   8.051   0.417   3.807 -2.1324 -0.8985  0.1405
12150SOL     OW47378   1.547   6.797   2.304  0.4165 -0.2996  0.0584
12150SOL    HW147379   1.569   6.845   2.389 -0.5843 -0.7866  0.6016
12150SOL    HW247380   1.520   6.863   2.234 -0.7498 -0.0450  0.7402
12151SOL     OW47381   0.310   2.032   3.971  0.1265 -0.2467 -0.3492
12151SOL    HW147382   0.222   2.073   3.997  0.4143  0.1179  0.0678
12151SOL    HW247383   0.348   1.984   4.051  0.0630 -0.8501 -0.6750
12152SOL     OW47384   7.681   0.234   0.284 -0.6243 -0.3035 -0.4405
12152SOL    HW147385   7.625   0.275   0.357 -0.0493 -0.4111  0.0692
12152SOL    HW247386   7.707   0.304   0.218  3.4457  1.0026  2.3606
12153SOL     OW47387   7.211   4.272   1.105  0.2044  0.5204 -0.0546
12153SOL    HW147388   7.112   4.287   1.115  0.3888  1.1943  0.8568
12153SOL    HW247389   7.229   4.174   1.104 -0.4264  0.3908  0.3856
12154SOL     OW47390   8.827   9.650   5.750 -0.2786  0.5392 -0.1794
12154SOL    HW147391   8.905   9.614   5.698 -0.0545 -1.4443  1.4378
12154SOL    HW247392   8.855   9.733   5.798  0.3887  0.7061 -0.8469
12155SOL     OW47393   9.416   5.532   6.353 -0.0120  0.2413 -0.1804
12155SOL    HW147394   9.489   5.600   6.363  0.8504 -0.7232  0.2231
12155SOL    HW247395   9.444   5.462   6.287  0.8618 -1.9526  2.4061
12156SOL     OW47396   9.947   3.837   3.548  0.1204 -0.0642  0.2618
12156SOL    HW147397   9.871   3.800   3.495  0.3900 -0.2178 -0.0220
12156SOL    HW247398   9.924   3.929   3.581 -0.3165 -0.2466  0.4657
12157SOL     OW47399   3.759   4.378   4.668 -0.2331  0.3549  0.4727
12157SOL    HW147400   3.703   4.419   4.596 -0.7319  0.9603  1.1959
12157SOL    HW247401   3.700   4.352   4.744  0.4570  0.9130  1.2040
12158SOL     OW47402   8.775   8.587   0.691  0.5706 -0.0241  0.2717
12158SOL    HW147403   8.703   8.546   0.636  0.7646  0.0630 -0.0493
12158SOL    HW247404   8.816   8.517   0.750 -0.1388  0.0428  0.8465
12159SOL     OW47405   1.128   8.348   3.787  0.2810  0.2495 -0.4922
12159SOL    HW147406   1.038   8.341   3.745  0.9791 -0.6664 -1.8487
12159SOL    HW247407   1.154   8.259   3.825  1.4528  0.0067 -1.8417
12160SOL     OW47408   8.762   3.239   0.093  0.2846  0.5486 -0.0121
12160SOL    HW147409   8.747   3.145   0.126 -1.4612 -0.1096 -2.4986
12160SOL    HW247410   8.693   3.300   0.132  0.6690  0.5586  0.6537
12161SOL     OW47411   0.515   2.942   3.157 -0.1461  0.1027 -0.0158
12161SOL    HW147412   0.525   2.876   3.231 -0.2799 -0.1605 -0.2356
12161SOL    HW247413   0.461   2.902   3.083 -1.4625  0.9558  0.4672
12162SOL     OW47414   2.325   5.678   4.655 -0.1576 -0.1712  0.6323
12162SOL    HW147415   2.316   5.771   4.691  0.7574  0.3742 -0.4943
12162SOL    HW247416   2.389   5.626   4.713  2.0465  0.9883 -0.6680
12163SOL     OW47417   4.220   4.739   3.966  0.2118  0.2445 -0.0669
12163SOL    HW147418   4.217   4.774   3.873  0.8496  0.7751  0.1076
12163SOL    HW247419   4.247   4.643   3.965  1.7522  0.6679 -0.3345
12164SOL     OW47420   9.180   6.095   1.434  0.1592  0.5388 -0.9100
12164SOL    HW147421   9.242   6.171   1.454 -1.2557  1.4381  0.0846
12164SOL    HW247422   9.234   6.015   1.405  1.9505  0.7176  1.7521
12165SOL     OW47423   4.755   2.058   1.527  0.0575  0.6278 -0.5862
12165SOL    HW147424   4.772   2.020   1.618 -1.4082  3.8854  1.1438
12165SOL    HW247425   4.823   2.022   1.463  0.9534 -1.9466  1.6967
12166SOL     OW47426   1.640   4.262   1.680 -0.0334  0.5952 -0.3751
12166SOL    HW147427   1.670   4.306   1.595  0.3329  0.8043 -0.1370
12166SOL    HW247428   1.718   4.218   1.724 -0.1160  0.9791  0.1512
12167SOL     OW47429   8.498   6.976   3.337  0.9006  0.1433  1.2506
12167SOL    HW147430   8.479   6.973   3.239 -1.1405  0.8335  1.6056
12167SOL    HW247431   8.468   7.064   3.374 -1.9070 -1.5762  3.1736
12168SOL     OW47432   9.061   2.148   2.559  0.3747 -0.2342 -0.0910
12168SOL    HW147433   9.031   2.090   2.483 -0.4971  0.2986 -0.1664
12168SOL    HW247434   9.123   2.097   2.618  0.1194 -1.0346 -0.5034
12169SOL     OW47435   6.050   8.769   3.234  0.3035 -0.4213  0.0127
12169SOL    HW147436   6.028   8.791   3.139 -1.5503 -1.6213  0.1287
12169SOL    HW247437   6.111   8.690   3.236  0.3476 -0.3927 -0.1836
12170SOL     OW47438   4.184   0.452   1.162  0.3185  0.5320  0.6033
12170SOL    HW147439   4.257   0.520   1.156 -0.0082  0.7484 -1.2772
12170SOL    HW247440   4.222   0.364   1.190  1.7193  0.0510 -2.5987
12171SOL     OW47441   2.545   0.994   2.855  0.4902  0.4467  0.0752
12171SOL    HW147442   2.635   0.990   2.812 -0.7125 -0.4103 -2.4673
12171SOL    HW247443   2.474   0.986   2.785 -1.5751  0.7318  2.0701
12172SOL     OW47444   8.039   4.307   2.795  0.1630 -0.1525  0.2196
12172SOL    HW147445   8.041   4.239   2.721  0.0620  0.5119 -0.3981
12172SOL    HW247446   8.131   4.313   2.836  0.2029 -0.5681  0.2021
12173SOL     OW47447   4.887   9.446   4.360  0.9838  0.4996  0.0204
12173SOL    HW147448   4.877   9.427   4.262  0.8837 -1.9613  0.4803
12173SOL    HW247449   4.828   9.523   4.385  0.2281  0.4852 -1.6469
12174SOL     OW47450   2.939   7.722   5.085 -0.4000 -0.0724 -0.1231
12174SOL    HW147451   2.899   7.748   5.173  0.0642  1.5266 -0.3801
12174SOL    HW247452   2.949   7.803   5.028  0.1681 -0.9698 -1.3048
12175SOL     OW47453   5.937   0.078   3.660  0.0608 -0.0480 -0.8249
12175SOL    HW147454   5.890   0.089   3.572 -0.3599 -0.0979 -0.6035
12175SOL    HW247455   5.916  -0.011   3.698 -1.2650  0.7088  0.2355
12176SOL     OW47456   1.803   7.016   2.886 -0.4752  0.1398 -0.3026
12176SOL    HW147457   1.757   7.104   2.874  0.5110  1.0058  2.0263
12176SOL    HW247458   1.883   7.012   2.826  0.0337  1.2541  0.2777
12177SOL     OW47459   5.166   9.366   1.677 -0.4668 -0.1831  0.5261
12177SOL    HW147460   5.155   9.430   1.601  0.4842  0.8428  1.2349
12177SOL    HW247461   5.118   9.401   1.757 -0.9247 -0.9415  0.5874
12178SOL     OW47462   3.272   0.044   3.300 -0.7685 -0.0884 -0.4859
12178SOL    HW147463   3.181   0.076   3.327 -0.8108  0.0517 -0.7877
12178SOL    HW247464   3.309  -0.016   3.371 -1.4030 -0.7334 -0.6911
12179SOL     OW47465   9.884   7.983   4.650  0.7822  0.3285  0.2031
12179SOL    HW147466   9.840   7.924   4.718 -1.2115  1.2150 -0.2946
12179SOL    HW247467   9.825   7.992   4.570  1.6917  1.8530 -0.3212
12180SOL     OW47468   7.227   1.719   0.646 -0.5083 -0.0870 -0.2870
12180SOL    HW147469   7.324   1.722   0.672 -0.3632 -1.2282 -0.6671
12180SOL    HW247470   7.175   1.782   0.704 -0.1164 -2.1933  2.4888
12181SOL     OW47471   1.063   7.540   0.138 -0.0135  0.1431 -0.2224
12181SOL    HW147472   0.972   7.580   0.138 -0.0242  0.1284 -0.9454
12181SOL    HW247473   1.055   7.440   0.146 -0.0575  0.1460 -0.2339
12182SOL     OW47474   8.168   3.148   1.147 -0.0775 -0.4287 -0.0782
12182SOL    HW147475   8.185   3.159   1.049 -1.0407  0.6740 -0.1248
12182SOL    HW247476   8.244   3.187   1.198 -0.5444  0.8652 -0.3572
12183SOL     OW47477   6.984   2.687   2.483  0.3786 -0.2072 -0.4162
12183SOL    HW147478   7.006   2.606   2.538 -0.5866 -2.4474 -3.1673
12183SOL    HW247479   6.896   2.725   2.514 -0.7114 -2.1175 -1.0548
12184SOL     OW47480   8.501   6.357   4.329 -0.2043 -0.4242 -0.1585
12184SOL    HW147481   8.587   6.326   4.290 -0.4085 -2.8029  1.1339
12184SOL    HW247482   8.509   6.359   4.429 -1.2313  0.6425 -0.0908
12185SOL     OW47483   1.573   6.406   1.295  0.1017  0.3576 -0.2144
12185SOL    HW147484   1.633   6.328   1.283  0.3922  0.5852 -0.2606
12185SOL    HW247485   1.478   6.377   1.285  0.1321 -0.2618  1.2633
12186SOL     OW47486   6.431   0.065   2.030 -0.5317 -0.1918  0.2811
12186SOL    HW147487   6.430  -0.029   1.998 -1.0889 -0.3259  0.6862
12186SOL    HW247488   6.476   0.069   2.120 -0.2418 -0.0292  0.1285
12187SOL     OW47489   7.216   0.141   2.634  0.1102  0.0626 -0.4849
12187SOL    HW147490   7.245   0.180   2.721 -0.6354  0.0474 -0.2220
12187SOL    HW247491   7.257   0.051   2.622  1.0004  0.4841 -0.6061
12188SOL     OW47492   6.083   0.685   2.550 -0.4862 -0.4180  0.6003
12188SOL    HW147493   6.105   0.769   2.598 -0.1045  0.1947 -0.6187
12188SOL    HW247494   6.037   0.621   2.612 -0.8573  0.7230  1.5075
12189SOL     OW47495   6.708   7.732   2.178 -0.2181  0.3702 -0.1676
12189SOL    HW147496   6.630   7.707   2.122 -1.5228  0.6668  1.4825
12189SOL    HW247497   6.765   7.798   2.129 -0.4757 -0.5563 -1.7541
12190SOL     OW47498   6.275   7.080   4.832  0.2538  0.5119 -0.7183
12190SOL    HW147499   6.301   6.996   4.880 -1.9729  1.2750  1.9566
12190SOL    HW247500   6.181   7.071   4.799 -0.0106  1.9834 -0.3862
12191SOL     OW47501   8.507   6.999   2.128 -0.1412 -0.2296 -0.3088
12191SOL    HW147502   8.562   6.929   2.175 -2.1202 -1.2265  0.5893
12191SOL    HW247503   8.440   6.954   2.068 -0.1861  0.9595 -1.1742
12192SOL     OW47504   1.796   0.023   1.838 -0.0208 -0.3324 -0.0895
12192SOL    HW147505   1.748   0.068   1.763 -0.9914 -0.1608  0.6207
12192SOL    HW247506   1.739  -0.051   1.874  0.8786 -1.0858 -0.2006
12193SOL     OW47507   1.007   5.165   1.806 -0.0880 -0.2062  0.3713
12193SOL    HW147508   1.060   5.232   1.858 -0.2498  0.6821 -0.5830
12193SOL    HW247509   1.024   5.073   1.842  0.5639  0.2855  1.3363
12194SOL     OW47510   3.238   6.005   0.903  0.3921 -0.1792 -0.3480
12194SOL    HW147511   3.239   6.097   0.864 -1.8467  0.4787  1.1024
12194SOL    HW247512   3.238   5.938   0.828 -0.8779  1.0204 -1.4546
12195SOL     OW47513   0.669   8.503   4.783  0.0231  0.6095 -0.4212
12195SOL    HW147514   0.604   8.471   4.852  0.5324 -0.3352 -0.3577
12195SOL    HW247515   0.726   8.575   4.821  0.2456  0.1501  0.1298
12196SOL     OW47516   8.091   3.761   0.769 -0.0324 -0.0295 -0.1321
12196SOL    HW147517   8.190   3.766   0.759 -0.0489  0.7192  0.0387
12196SOL    HW247518   8.054   3.692   0.706  0.7146 -1.1709  0.6826
12197SOL     OW47519   9.700   3.582   1.472  0.2882 -0.1372 -0.2672
12197SOL    HW147520   9.622   3.537   1.428 -0.9000  0.6242  1.0419
12197SOL    HW247521   9.672   3.671   1.508  1.1335 -0.8928  2.3716
12198SOL     OW47522   8.301   5.960   3.053  0.3846 -0.5781 -0.0220
12198SOL    HW147523   8.387   6.001   3.085  0.0307  0.0633  0.1098
12198SOL    HW247524   8.240   6.032   3.020  0.0419 -1.0699 -0.4617
12199SOL     OW47525   4.609   7.576   2.714  0.3684 -0.1942 -0.5740
12199SOL    HW147526   4.596   7.494   2.659 -0.6348 -0.3430 -0.1241
12199SOL    HW247527   4.623   7.550   2.810 -0.4508  0.1813 -0.3499
12200SOL     OW47528   8.105   8.564   1.567  0.3817 -0.2143  0.0127
12200SOL    HW147529   8.121   8.541   1.663 -1.0973 -0.3479  0.2291
12200SOL    HW247530   8.193   8.566   1.518  0.9496 -1.9637  0.9464
12201SOL     OW47531   1.627   4.995   0.963  0.0760  0.1881  0.1334
12201SOL    HW147532   1.610   4.944   0.878  2.3391  1.3999 -1.0940
12201SOL    HW247533   1.714   4.967   1.002  0.2162  1.4335  0.7300
12202SOL     OW47534   5.846   0.416   1.492  0.0998  0.0163  0.5313
12202SOL    HW147535   5.859   0.475   1.413  0.0752 -1.2519 -0.4259
12202SOL    HW247536   5.928   0.419   1.550  0.1646  0.8445  0.3962
12203SOL     OW47537   2.747   0.740   2.282 -0.0153 -0.6138  0.0649
12203SOL    HW147538   2.841   0.705   2.289  0.2437 -0.1524 -0.9798
12203SOL    HW247539   2.684   0.664   2.269  0.0989 -1.0129  1.7158
12204SOL     OW47540   6.789   1.104   3.755 -0.3241 -0.2765 -0.3462
12204SOL    HW147541   6.714   1.040   3.772  0.0562 -0.6198  0.0471
12204SOL    HW247542   6.751   1.192   3.725 -0.7360 -1.4825 -3.5639
12205SOL     OW47543   3.953   9.258   0.994 -0.1278 -0.2104 -0.2194
12205SOL    HW147544   4.047   9.225   0.979  0.3868  0.2091  1.9843
12205SOL    HW247545   3.905   9.197   1.056 -0.8541  0.3521 -0.2162
12206SOL     OW47546   1.097   0.886   2.266  0.0822 -0.1282 -0.4005
12206SOL    HW147547   1.063   0.895   2.359 -0.2582  1.0660 -0.6255
12206SOL    HW247548   1.051   0.810   2.220  1.1913 -1.5439  0.8126
12207SOL     OW47549   8.624   0.302   2.902  0.0043  0.2690  0.1104
12207SOL    HW147550   8.611   0.203   2.906 -0.5445  0.3421  0.1116
12207SOL    HW247551   8.598   0.342   2.990 -2.7397  0.7668 -0.8904
12208SOL     OW47552   8.892   5.846   1.303 -0.5257  0.0772  0.0578
12208SOL    HW147553   8.963   5.916   1.300 -0.2161 -0.1851  1.0059
12208SOL    HW247554   8.906   5.788   1.383 -0.8513 -1.0032 -0.6590
12209SOL     OW47555   9.236   4.769   0.958 -0.0498 -0.0059 -0.0419
12209SOL    HW147556   9.146   4.749   0.996  0.0896 -0.6360 -0.0465
12209SOL    HW247557   9.233   4.856   0.909 -0.7851 -0.2785 -0.4768
12210SOL     OW47558   4.961   4.545   2.733  0.5975  0.1305  0.9994
12210SOL    HW147559   5.003   4.476   2.674 -0.6212 -0.9098  1.3081
12210SOL    HW247560   4.988   4.529   2.828  0.7940  0.4567  1.0007
12211SOL     OW47561   9.803   7.519   5.239  0.2749  0.7658 -0.2659
12211SOL    HW147562   9.869   7.565   5.179  1.1160  2.5414  1.9626
12211SOL    HW247563   9.851   7.477   5.316 -0.6318 -2.8124 -1.5220
12212SOL     OW47564   9.019   3.108   1.770 -0.1631  0.1338  0.5360
12212SOL    HW147565   9.041   3.013   1.791  0.9749 -0.3273 -2.5452
12212SOL    HW247566   8.931   3.113   1.723  0.7995  0.3260 -1.3022
12213SOL     OW47567   3.530   7.332   3.608 -0.5108  0.4801  0.6161
12213SOL    HW147568   3.528   7.284   3.520 -0.9569  1.0386  0.3191
12213SOL    HW247569   3.487   7.275   3.678 -0.7372  0.3052  0.3346
12214SOL     OW47570   9.581   8.162   0.569  0.0808  0.0510  0.3366
12214SOL    HW147571   9.520   8.124   0.499  3.0040  1.0735 -2.8856
12214SOL    HW247572   9.561   8.259   0.582 -2.3000 -0.7305  3.0374
12215SOL     OW47573   4.106   3.784   0.478 -0.2246 -0.8436  0.1312
12215SOL    HW147574   4.062   3.851   0.418 -0.0790 -0.1551  0.7857
12215SOL    HW247575   4.067   3.694   0.461 -2.1061 -0.2022  0.8887
12216SOL     OW47576   2.514   4.219   2.671 -0.5680  0.2713  0.3477
12216SOL    HW147577   2.512   4.310   2.628 -1.1407  0.4082  0.6483
12216SOL    HW247578   2.469   4.153   2.611 -0.4434  0.2557  0.2733
12217SOL     OW47579   7.601   2.642   3.166  0.4705 -0.0569 -0.2146
12217SOL    HW147580   7.666   2.611   3.096  1.8356 -0.5146  1.2323
12217SOL    HW247581   7.524   2.578   3.170  0.4530 -0.1034 -1.2043
12218SOL     OW47582   9.266   6.384   6.102  0.5378  0.0255 -0.6540
12218SOL    HW147583   9.321   6.359   6.182 -0.9894 -0.3710  0.3079
12218SOL    HW247584   9.278   6.315   6.031  1.7181  0.2496 -0.6832
12219SOL     OW47585   7.026   0.429   3.128  0.1282  0.3731  0.3720
12219SOL    HW147586   6.975   0.401   3.209 -1.0787  2.3690  0.3193
12219SOL    HW247587   7.054   0.524   3.137 -1.5030  1.1653 -2.2641
12220SOL     OW47588   0.444   8.864   3.035  1.0699  0.0868 -0.4701
12220SOL    HW147589   0.452   8.791   3.103 -0.3352  1.8463  1.6502
12220SOL    HW247590   0.504   8.940   3.060  0.6938  0.6636 -1.2915
12221SOL     OW47591   8.244   9.925   3.271 -0.2227 -0.1287  0.2186
12221SOL    HW147592   8.215  10.017   3.297  0.7538  0.8008 -1.8017
12221SOL    HW247593   8.329   9.903   3.319 -0.0983  0.2979  0.1969
12222SOL     OW47594   9.382   2.447   0.981 -0.0038 -0.0420 -0.1282
12222SOL    HW147595   9.422   2.531   0.943 -2.1559  2.3778  2.7285
12222SOL    HW247596   9.448   2.405   1.043  1.0215 -0.4405 -1.4468
12223SOL     OW47597   4.336   8.212   1.903  0.1062  0.0509 -0.3185
12223SOL    HW147598   4.396   8.150   1.953  0.6802 -0.3392 -1.4711
12223SOL    HW247599   4.386   8.254   1.827  0.1011  2.9426  1.2043
12224SOL     OW47600   1.730   3.625   0.787 -0.2859 -0.0230  0.5336
12224SOL    HW147601   1.639   3.597   0.757  0.5067 -1.9246 -0.1674
12224SOL    HW247602   1.742   3.602   0.884 -0.6963  0.6172  0.7386
12225SOL     OW47603   5.919   6.970   2.190 -0.1844  0.5357 -0.0577
12225SOL    HW147604   5.902   7.042   2.258 -0.2421  1.6167 -1.1981
12225SOL    HW247605   5.865   6.889   2.213 -0.6521  1.0989  0.8541
12226SOL     OW47606   2.942   8.807   4.617 -0.6072 -0.5780  0.1954
12226SOL    HW147607   2.985   8.791   4.706 -1.3436 -1.2056  0.4462
12226SOL    HW247608   2.843   8.796   4.625 -0.7471  0.0286 -0.5581
12227SOL     OW47609   3.955   4.010   1.387  0.5474  0.4540  0.0234
12227SOL    HW147610   3.893   3.936   1.364  2.1933 -0.6073 -1.1536
12227SOL    HW247611   3.904   4.095   1.398 -1.0065 -0.1921 -1.8937
12228SOL     OW47612   8.614   7.691   1.342  0.4527 -0.0784 -0.3933
12228SOL    HW147613   8.664   7.767   1.299  1.2436 -0.6790 -0.5263
12228SOL    HW247614   8.666   7.607   1.334 -0.3258 -0.6048 -0.0369
12229SOL     OW47615   1.224   1.183   4.873 -0.3685  0.8717  0.3331
12229SOL    HW147616   1.157   1.108   4.869  0.1427  0.4365 -0.3993
12229SOL    HW247617   1.307   1.151   4.919 -0.2702  1.0869  0.3058
12230SOL     OW47618   3.298   9.674   4.515 -0.0220  0.6395  0.2977
12230SOL    HW147619   3.382   9.640   4.557 -0.5405 -0.4857  0.4551
12230SOL    HW247620   3.295   9.645   4.419  0.9050  2.7439 -0.4036
12231SOL     OW47621   3.044   5.300   6.164  0.0461  0.2833 -0.0527
12231SOL    HW147622   3.003   5.222   6.211 -0.6887  0.4800 -0.3427
12231SOL    HW247623   3.127   5.329   6.211  0.6502 -1.0456 -0.2883
12232SOL     OW47624   8.612   3.535   4.792 -0.2487  0.2728 -0.1231
12232SOL    HW147625   8.604   3.614   4.732 -0.6592 -0.9761 -1.7456
12232SOL    HW247626   8.521   3.499   4.813 -0.0213 -0.4589 -0.3510
12233SOL     OW47627   3.571   3.802   6.712 -0.2413 -0.1029 -0.3351
12233SOL    HW147628   3.572   3.807   6.812 -0.4638  1.0264 -0.3882
12233SOL    HW247629   3.506   3.869   6.676  1.4824  1.0741 -1.3187
12234SOL     OW47630   3.109   5.793   3.279 -0.2084 -0.0076  0.1650
12234SOL    HW147631   3.089   5.886   3.308 -0.7016 -0.6986  2.1021
12234SOL    HW247632   3.033   5.733   3.303  2.0633 -1.7565  3.2516
12235SOL     OW47633   2.655   1.820   3.622 -0.0145 -0.0315  0.1600
12235SOL    HW147634   2.723   1.868   3.567 -0.2854  1.2262  0.9174
12235SOL    HW247635   2.674   1.722   3.620  1.0045  0.1817 -0.7500
12236SOL     OW47636   0.406   9.461   0.878  0.2174 -0.3813 -0.0923
12236SOL    HW147637   0.481   9.474   0.943  1.1015 -1.9863 -0.7595
12236SOL    HW247638   0.410   9.368   0.841  0.7698  1.0257 -3.7440
12237SOL     OW47639   3.180   4.003   3.141 -0.2806 -0.2565 -0.2943
12237SOL    HW147640   3.143   3.973   3.229  0.5237  1.5084  0.6663
12237SOL    HW247641   3.160   4.100   3.128 -2.6687 -1.0750 -3.2549
12238SOL     OW47642   9.939   9.910   4.608 -0.5513 -0.3191  0.2196
12238SOL    HW147643  10.038   9.908   4.618 -0.4703 -0.6299 -0.6251
12238SOL    HW247644   9.897   9.938   4.695  0.1748 -2.0154  1.1293
12239SOL     OW47645   9.749   8.265   1.332 -0.3911  0.5985 -0.2991
12239SOL    HW147646   9.682   8.220   1.274  0.3023  0.6329 -1.1461
12239SOL    HW247647   9.813   8.317   1.275 -0.2367  1.3749  0.5555
12240SOL     OW47648   4.335   9.009   4.582 -0.1507 -0.1922  0.0042
12240SOL    HW147649   4.312   9.003   4.679  1.0364  1.5325  0.4079
12240SOL    HW247650   4.361   8.918   4.549 -1.4353 -0.9709  1.0630
12241SOL     OW47651   1.274   3.859   1.332 -0.3486  0.3452 -0.1363
12241SOL    HW147652   1.362   3.835   1.290  1.0877 -0.8549  3.4072
12241SOL    HW247653   1.267   3.958   1.339  1.2304  0.4312  0.5081
12242SOL     OW47654   3.218   3.382   4.860 -0.0411 -0.1827 -0.3920
12242SOL    HW147655   3.149   3.312   4.841 -1.0738  0.5925  0.4326
12242SOL    HW247656   3.222   3.446   4.783 -1.9103  1.0907  0.5263
12243SOL     OW47657   6.793   0.815   5.515  0.3788 -0.1679 -0.1921
12243SOL    HW147658   6.861   0.753   5.553  2.5127  2.4846  0.4909
12243SOL    HW247659   6.823   0.848   5.426 -0.9143 -0.4180 -0.7277
12244SOL     OW47660   9.307   8.665   4.684  0.5143  1.0032 -0.0826
12244SOL    HW147661   9.344   8.709   4.766  1.1116  0.2456  0.0581
12244SOL    HW247662   9.370   8.678   4.607 -0.9182  3.2979 -0.8956
12245SOL     OW47663   2.341   4.515   2.126 -0.1592 -0.2589 -0.0956
12245SOL    HW147664   2.424   4.522   2.072  0.6160 -0.7856  1.0090
12245SOL    HW247665   2.261   4.514   2.065  0.6557 -0.1705 -1.1770
12246SOL     OW47666   2.576   7.651   1.823  0.0563  0.7193  0.4129
12246SOL    HW147667   2.497   7.712   1.826 -2.2654 -2.2347  0.8299
12246SOL    HW247668   2.590   7.609   1.912  1.9942  1.0545  0.2897
12247SOL     OW47669   5.422   9.895   3.680  0.3990 -0.2897 -0.5996
12247SOL    HW147670   5.374   9.824   3.628  1.6213 -0.5853 -1.3565
12247SOL    HW247671   5.391   9.894   3.775 -0.7105 -0.8078 -0.9632
12248SOL     OW47672   7.052   0.268   4.105  0.4528  0.1358 -0.3306
12248SOL    HW147673   7.096   0.341   4.157  0.6071  1.2561 -2.0020
12248SOL    HW247674   7.077   0.275   4.009  0.2682 -1.9816 -0.5711
12249SOL     OW47675   4.105   9.461   3.639  0.4508  0.3482 -0.2240
12249SOL    HW147676   4.033   9.428   3.579  1.0593  1.3850 -1.5578
12249SOL    HW247677   4.114   9.400   3.717 -0.2609 -1.1057 -1.2583
12250SOL     OW47678   0.965   7.730   2.143  0.0008 -0.5125  0.3998
12250SOL    HW147679   0.937   7.752   2.049 -0.8356  0.4435  0.8598
12250SOL    HW247680   1.022   7.648   2.143  0.7372 -0.0050 -1.0401
12251SOL     OW47681   5.880   9.702   1.808 -0.2949 -0.1272 -0.7519
12251SOL    HW147682   5.930   9.758   1.874 -0.7058  1.0831 -1.4416
12251SOL    HW247683   5.782   9.703   1.830 -0.4830  0.6139 -1.6079
12252SOL     OW47684   0.491   7.984   5.448 -0.2169 -1.3617  0.6643
12252SOL    HW147685   0.393   8.003   5.446 -0.0885 -0.8064 -0.8273
12252SOL    HW247686   0.505   7.888   5.471 -1.0416 -1.0804  2.4989
12253SOL     OW47687   3.715   2.951   2.124  0.2553 -0.3412 -0.3212
12253SOL    HW147688   3.810   2.976   2.143 -0.1507  0.9892  0.0170
12253SOL    HW247689   3.712   2.858   2.087  1.7512 -0.1557 -0.9639
12254SOL     OW47690   4.472   0.588   1.101 -0.4662  0.0212 -0.3098
12254SOL    HW147691   4.464   0.688   1.110  0.6992 -0.0937  2.3820
12254SOL    HW247692   4.532   0.553   1.173 -1.2038 -2.7017 -0.9803
12255SOL     OW47693   1.884   5.296   0.539  0.3688 -0.3400  0.4191
12255SOL    HW147694   1.911   5.286   0.635 -0.7042 -0.3757  0.7228
12255SOL    HW247695   1.833   5.381   0.527 -0.3889 -0.8356  0.0909
12256SOL     OW47696   1.442   1.531   2.332 -0.6323 -0.3224  0.1861
12256SOL    HW147697   1.344   1.514   2.343 -0.5506 -0.4034  0.7885
12256SOL    HW247698   1.458   1.578   2.245 -1.3295  0.6700  0.5792
12257SOL     OW47699   3.124   1.983   3.001  0.1625  0.5015 -0.4698
12257SOL    HW147700   3.161   2.073   3.025  0.4503  0.7085 -1.6140
12257SOL    HW247701   3.037   1.995   2.952 -0.6153  0.0821  0.7767
12258SOL     OW47702   3.139   8.025   4.693 -0.3362  0.7455 -0.3779
12258SOL    HW147703   3.074   8.037   4.768  0.9260 -0.7968  0.9960
12258SOL    HW247704   3.090   7.992   4.611 -1.4073  0.3992  0.3925
12259SOL     OW47705   0.689   8.048   5.619 -1.0182 -0.2735  0.0454
12259SOL    HW147706   0.606   8.022   5.570 -1.2455 -0.3311  0.4619
12259SOL    HW247707   0.751   8.096   5.557 -0.6340 -1.7356 -0.7228
12260SOL     OW47708   7.086   8.539   4.501  0.2710  0.2983  0.0666
12260SOL    HW147709   6.993   8.569   4.478 -0.2426 -0.0477  1.6374
12260SOL    HW247710   7.138   8.617   4.536  0.3620  0.3430 -0.1678
12261SOL     OW47711   3.225   2.549   1.419 -0.0705 -0.0317 -0.1365
12261SOL    HW147712   3.325   2.546   1.421 -0.0824 -0.1347  0.3679
12261SOL    HW247713   3.190   2.466   1.375  0.0307 -0.6328  0.8923
12262SOL     OW47714   1.704   4.799   6.342 -0.0715 -0.0636 -0.1889
12262SOL    HW147715   1.764   4.782   6.420  0.7404  0.7602 -0.6226
12262SOL    HW247716   1.612   4.822   6.374 -0.3761 -2.1067  0.4679
12263SOL     OW47717   2.458   3.063   4.471 -0.5219 -0.0790 -0.3452
12263SOL    HW147718   2.429   3.155   4.497  1.4035  0.8133 -1.2799
12263SOL    HW247719   2.487   3.014   4.553  0.4729  0.8975 -0.0971
12264SOL     OW47720   3.514   1.101   3.731  0.2528 -0.3264 -0.4154
12264SOL    HW147721   3.611   1.101   3.705 -0.2682 -0.3820 -2.5088
12264SOL    HW247722   3.471   1.186   3.699 -0.2576 -0.0047  1.0771
12265SOL     OW47723   9.116   9.443   0.735  0.4431 -0.3593 -0.4966
12265SOL    HW147724   9.181   9.506   0.694  1.3731 -0.5621  0.6347
12265SOL    HW247725   9.156   9.352   0.740  0.5881 -0.2321  1.3414
12266SOL     OW47726   1.198   2.113   4.163  0.3778  0.4553 -0.6824
12266SOL    HW147727   1.226   2.042   4.099 -0.2099 -0.6015  0.2197
12266SOL    HW247728   1.098   2.122   4.163  0.3221 -0.0175  0.5560
12267SOL     OW47729   2.352   4.933   6.105 -0.0650  0.0952 -0.6924
12267SOL    HW147730   2.254   4.918   6.121  0.6040 -3.9437  0.3697
12267SOL    HW247731   2.372   4.926   6.008 -0.8369  0.9309 -0.9110
12268SOL     OW47732   4.024   3.501   3.205 -0.4528  0.2259 -0.1253
12268SOL    HW147733   4.123   3.502   3.192 -0.6823 -1.5926 -2.3168
12268SOL    HW247734   3.979   3.503   3.116 -2.4212  1.3759  0.8520
12269SOL     OW47735   3.433   5.949   5.312 -0.3883 -0.8192  0.0122
12269SOL    HW147736   3.433   5.887   5.234 -0.0300  1.5220 -1.9004
12269SOL    HW247737   3.351   5.933   5.368 -0.7960 -2.3079 -0.9842
12270SOL     OW47738   4.068   6.718   4.295  0.1858  0.4042  0.3025
12270SOL    HW147739   3.997   6.671   4.347 -2.6763  1.6699 -2.2746
12270SOL    HW247740   4.054   6.817   4.301  0.2636  0.6024 -2.1219
12271SOL     OW47741   8.675   1.753   4.321  0.0512 -0.0401 -0.2900
12271SOL    HW147742   8.669   1.851   4.341 -2.1563 -0.0860 -0.5890
12271SOL    HW247743   8.645   1.701   4.401  0.6766 -0.4701 -0.3293
12272SOL     OW47744   1.294   1.510   2.803 -0.0759 -0.0181 -0.0495
12272SOL    HW147745   1.283   1.587   2.865 -0.5921 -0.1995  0.0861
12272SOL    HW247746   1.227   1.517   2.729 -2.0653 -1.8430  1.5083
12273SOL     OW47747   8.101   7.909   2.097  1.2179 -0.3518  0.4174
12273SOL    HW147748   8.156   7.858   2.163  0.0887 -1.7590  0.2813
12273SOL    HW247749   8.081   8.000   2.134  2.9448 -0.1301  0.8080
12274SOL     OW47750   9.891   6.153   3.164  0.0421  0.2427 -0.1511
12274SOL    HW147751   9.893   6.162   3.264 -0.6932 -2.0716  0.1101
12274SOL    HW247752   9.810   6.198   3.128  0.4484  1.3176  0.2621
12275SOL     OW47753   3.145   0.519   1.300  0.1917 -0.2557  0.3282
12275SOL    HW147754   3.074   0.457   1.269 -0.2732  0.3924  0.0744
12275SOL    HW247755   3.136   0.534   1.399 -1.5790  1.7638 -0.1139
12276SOL     OW47756   0.073   3.517   5.261  0.6052 -0.3582  0.3514
12276SOL    HW147757   0.118   3.503   5.349 -0.1222 -0.4181  0.7221
12276SOL    HW247758   0.071   3.615   5.240  0.0584 -0.2723  0.7922
12277SOL     OW47759   9.551   8.407   0.333 -0.3598  0.2054 -0.3806
12277SOL    HW147760   9.596   8.492   0.360  0.7974  0.5411 -3.1921
12277SOL    HW247761   9.621   8.335   0.321 -0.9534 -0.2469 -1.2177
12278SOL     OW47762   8.255   0.729   6.731 -0.1817  0.2582  0.1810
12278SOL    HW147763   8.216   0.775   6.810 -0.2862  2.6594 -1.2166
12278SOL    HW247764   8.189   0.730   6.656  1.0684  0.8334 -0.9435
12279SOL     OW47765   1.506   1.526   2.065 -0.1393  0.4191 -0.4624
12279SOL    HW147766   1.553   1.607   2.030 -1.2909  0.5388 -1.7930
12279SOL    HW247767   1.485   1.464   1.989 -0.3984 -0.5322  0.3730
12280SOL     OW47768   2.986   9.615   3.814 -0.0893 -0.2142  0.1820
12280SOL    HW147769   2.897   9.595   3.772  1.3563 -0.9546 -2.7042
12280SOL    HW247770   3.051   9.542   3.789  1.4937  0.6328  1.7242
12281SOL     OW47771   4.150   4.443   4.848  0.1965  0.1473 -0.1646
12281SOL    HW147772   4.177   4.370   4.786 -0.0676 -0.3588  0.3050
12281SOL    HW247773   4.230   4.495   4.876  0.3951 -0.0043 -0.4510
12282SOL     OW47774   0.829   9.367   4.882  0.0642  0.3467  0.3905
12282SOL    HW147775   0.752   9.365   4.945  0.7940  0.0502  1.2856
12282SOL    HW247776   0.833   9.281   4.830 -0.2503  0.3932  0.2893
12283SOL     OW47777   0.313   7.277   6.224  0.1565 -0.4445  0.0295
12283SOL    HW147778   0.284   7.373   6.225 -0.2603 -0.5547 -0.6748
12283SOL    HW247779   0.402   7.269   6.180  0.4118 -0.3200  0.5276
12284SOL     OW47780   3.554   1.495   3.754 -0.0465  0.7892  0.2613
12284SOL    HW147781   3.613   1.454   3.684 -0.7034 -0.1563  0.2494
12284SOL    HW247782   3.471   1.440   3.763 -0.9702  2.1696  0.2078
12285SOL     OW47783   5.550   7.774   4.441 -0.3798 -0.6768  0.1095
12285SOL    HW147784   5.525   7.697   4.382 -0.4224 -2.0060  1.8170
12285SOL    HW247785   5.477   7.791   4.507  0.1738  0.0209  0.5483
12286SOL     OW47786   4.700   8.125   3.775  0.0126 -0.0996 -0.7239
12286SOL    HW147787   4.748   8.071   3.845  1.8658  1.0941 -1.0320
12286SOL    HW247788   4.672   8.064   3.700 -0.8885 -1.1743  0.4661
12287SOL     OW47789   5.385   9.537   5.129  0.1484  0.8124  0.3820
12287SOL    HW147790   5.399   9.610   5.196 -1.3351  2.2595 -0.8316
12287SOL    HW247791   5.384   9.577   5.037 -0.1454 -0.8203 -0.3331
12288SOL     OW47792   0.477   7.048   2.923 -0.3081  0.0900  0.3300
12288SOL    HW147793   0.504   6.965   2.972 -1.5516 -0.0220  0.8256
12288SOL    HW247794   0.524   7.051   2.835  0.5104 -0.6338  0.7325
12289SOL     OW47795   3.880   8.539   4.962  0.1912  0.3285  0.0288
12289SOL    HW147796   3.846   8.498   4.877 -0.4203  0.9742 -0.0438
12289SOL    HW247797   3.835   8.497   5.040  0.1044  0.3454 -0.0113
12290SOL     OW47798   8.572   3.873   5.116  0.0769 -0.2296  0.2762
12290SOL    HW147799   8.554   3.783   5.157  2.2932 -0.7540  0.1553
12290SOL    HW247800   8.641   3.921   5.169 -1.8655  1.9115  0.9725
12291SOL     OW47801   2.271   6.874   1.118  0.2710 -0.1879  0.3681
12291SOL    HW147802   2.246   6.970   1.125  4.1860  0.9480 -0.1655
12291SOL    HW247803   2.304   6.841   1.206  0.3502 -0.6067  0.1843
12292SOL     OW47804   4.889   8.625   4.776 -0.1784  0.1029  0.1533
12292SOL    HW147805   4.893   8.556   4.849  1.0918  1.0434  0.9784
12292SOL    HW247806   4.831   8.701   4.805 -0.6977 -0.1050 -0.3262
12293SOL     OW47807   9.675   9.522   3.607  0.1609 -0.2763  0.3383
12293SOL    HW147808   9.664   9.545   3.704 -1.4605  0.2047  0.0601
12293SOL    HW247809   9.772   9.514   3.585  0.6617  2.5537  1.3083
12294SOL     OW47810   1.307   4.680   5.942 -0.5609 -0.1120  0.0539
12294SOL    HW147811   1.396   4.708   5.904 -1.4403  1.1534 -1.1081
12294SOL    HW247812   1.309   4.582   5.961  0.3474 -0.5461 -2.0798
12295SOL     OW47813   1.549   3.963   0.170  0.3144  0.8915 -0.2024
12295SOL    HW147814   1.582   4.024   0.242 -1.3236 -1.6495  2.7828
12295SOL    HW247815   1.450   3.957   0.174  0.4180 -1.5530 -0.8198
12296SOL     OW47816   3.692   9.824   3.904 -0.7485 -0.1969 -0.4294
12296SOL    HW147817   3.680   9.727   3.883 -0.0080 -0.0791 -1.4053
12296SOL    HW247818   3.785   9.839   3.939 -1.0792  0.0583  0.3666
12297SOL     OW47819   9.732   0.215   1.030 -0.1120  0.3297 -0.0143
12297SOL    HW147820   9.763   0.163   0.951 -1.4789 -0.4969 -0.0107
12297SOL    HW247821   9.675   0.291   0.999 -0.5402  0.0830  0.1735
12298SOL     OW47822   9.396   2.050   1.213 -0.4146  0.5438  0.2111
12298SOL    HW147823   9.344   2.071   1.297  0.9888 -1.6337  1.6660
12298SOL    HW247824   9.440   1.961   1.223  1.4395  1.1754 -2.0708
12299SOL     OW47825   3.756   3.623   2.957  0.2018 -0.5993  0.7510
12299SOL    HW147826   3.827   3.674   3.006  2.1691 -0.0566 -2.4861
12299SOL    HW247827   3.701   3.687   2.903  0.5704 -1.5679 -0.7864
12300SOL     OW47828   1.311   5.759   5.730  0.4700 -0.2399  0.3153
12300SOL    HW147829   1.349   5.795   5.816  0.7199  0.5776 -0.1331
12300SOL    HW247830   1.281   5.665   5.744 -0.5651  0.2762  1.6059
12301SOL     OW47831   0.918   9.058   4.131 -0.3040  0.1497 -0.0757
12301SOL    HW147832   0.880   9.100   4.214  0.4711  0.2843  0.2200
12301SOL    HW247833   0.962   8.971   4.155  0.4742  0.4929 -0.2359
12302SOL     OW47834   3.079   5.067   0.783  0.2259  0.0615 -0.2620
12302SOL    HW147835   3.057   5.074   0.685  1.1387  0.6588 -0.4327
12302SOL    HW247836   2.994   5.065   0.836 -0.2877 -1.1593 -1.1199
12303SOL     OW47837   3.966   8.928   1.316 -0.2468 -0.2398 -0.2220
12303SOL    HW147838   4.020   8.859   1.268  0.2311 -0.6163  0.8474
12303SOL    HW247839   3.962   8.906   1.413 -1.4622  0.3548 -0.1205
12304SOL     OW47840   1.288   5.923   0.322 -0.4260  0.2700  0.2648
12304SOL    HW147841   1.200   5.970   0.329 -1.1037 -1.2286  2.4456
12304SOL    HW247842   1.345   5.947   0.400 -0.5975 -2.0942  1.1629
12305SOL     OW47843   9.196   5.126   1.523 -0.1838 -0.4039 -0.1696
12305SOL    HW147844   9.205   5.226   1.525  0.8062 -0.4545 -1.4581
12305SOL    HW247845   9.264   5.085   1.583 -0.9583 -0.2933  0.7964
12306SOL     OW47846   2.547   3.679   0.486  0.3993  0.3863 -0.1540
12306SOL    HW147847   2.641   3.648   0.495  0.6533  1.4169  0.8684
12306SOL    HW247848   2.539   3.741   0.408  0.8209  1.2566  0.4954
12307SOL     OW47849   5.374   2.512   3.506 -0.0046  0.7964  0.1048
12307SOL    HW147850   5.360   2.557   3.595 -1.1645  1.6284 -0.4955
12307SOL    HW247851   5.293   2.525   3.449 -0.3992 -2.1665 -0.0496
12308SOL     OW47852   9.462   7.992   2.067  0.3217 -0.0742  0.1656
12308SOL    HW147853   9.475   8.010   2.164 -0.0910  0.1394  0.1811
12308SOL    HW247854   9.492   7.898   2.046  0.6077 -0.0480  0.4562
12309SOL     OW47855   8.740   5.151   0.745 -1.0138  0.4637 -0.0114
12309SOL    HW147856   8.669   5.140   0.675 -1.9902 -0.7155  1.1342
12309SOL    HW247857   8.729   5.240   0.790 -3.4971 -0.7998  2.0008
12310SOL     OW47858   2.179   1.439   1.790  0.0867 -0.1627  0.8266
12310SOL    HW147859   2.275   1.416   1.774  0.3897  0.9161  1.0883
12310SOL    HW247860   2.132   1.445   1.702  0.3141 -0.4307  0.6830
12311SOL     OW47861   7.275   2.220   3.173 -0.2297  0.2598 -0.4351
12311SOL    HW147862   7.346   2.159   3.209 -0.9896  0.3428  1.2545
12311SOL    HW247863   7.272   2.213   3.074  1.2397 -0.7454 -0.4189
12312SOL     OW47864   5.733   2.208   3.810  0.9026 -0.1897  0.0647
12312SOL    HW147865   5.724   2.128   3.751  1.5639  0.4750 -0.9453
12312SOL    HW247866   5.642   2.247   3.827  0.7252 -0.2573 -0.6929
12313SOL     OW47867   0.521   1.338   3.448 -0.6892 -0.0349 -0.0145
12313SOL    HW147868   0.583   1.260   3.437  1.5300  1.8142 -1.0245
12313SOL    HW247869   0.465   1.348   3.366 -0.7521 -0.3866 -0.0135
12314SOL     OW47870   3.381   0.666   3.553  0.0111  0.2342 -0.5341
12314SOL    HW147871   3.309   0.676   3.622 -1.7489 -1.2413 -2.0985
12314SOL    HW247872   3.436   0.586   3.574  0.2212  0.4701 -0.1864
12315SOL     OW47873   1.213   5.490   4.021  0.2281  0.3128 -0.5885
12315SOL    HW147874   1.271   5.510   3.942  2.2829 -0.7725  0.6170
12315SOL    HW247875   1.142   5.560   4.028  1.4096  1.6989 -2.0693
12316SOL     OW47876   9.970   5.142   1.810 -0.5623  0.5387 -0.0170
12316SOL    HW147877   9.980   5.094   1.723 -0.7591 -0.2218  0.3760
12316SOL    HW247878   9.888   5.110   1.857  0.5037 -0.3592  1.2724
12317SOL     OW47879   5.045   8.522   1.856 -0.6072 -0.4712  0.2279
12317SOL    HW147880   5.132   8.496   1.898 -0.9952 -0.2835  1.1730
12317SOL    HW247881   5.043   8.491   1.761  0.5359 -0.3617  0.1622
12318SOL     OW47882   5.437   7.848   4.932 -0.0698 -0.2829 -0.3559
12318SOL    HW147883   5.342   7.820   4.919  0.0737 -0.7149 -0.4711
12318SOL    HW247884   5.448   7.944   4.904 -0.1007 -0.7372 -1.9832
12319SOL     OW47885   3.023   0.245   2.987  0.3435  0.0303  0.4003
12319SOL    HW147886   3.017   0.342   3.012 -1.4549  0.4131 -1.4563
12319SOL    HW247887   3.094   0.233   2.917  1.8046 -0.2907  1.8950
12320SOL     OW47888   8.359   2.132   5.522  0.3339  0.0930  0.3092
12320SOL    HW147889   8.288   2.197   5.548 -1.1554 -0.8031 -1.3555
12320SOL    HW247890   8.440   2.181   5.493 -0.6001  1.2120 -0.4467
12321SOL     OW47891   8.978   0.684   3.788 -0.0789 -0.9566  0.0517
12321SOL    HW147892   8.984   0.729   3.877  1.7998 -3.1265  1.0754
12321SOL    HW247893   8.982   0.752   3.715  0.3250  0.6850  1.5837
12322SOL     OW47894   9.237   6.828   5.841 -0.3247 -0.7638  0.7261
12322SOL    HW147895   9.236   6.764   5.918  1.1226 -0.8028  0.7177
12322SOL    HW247896   9.250   6.777   5.755  0.8947 -0.4467  0.7262
12323SOL     OW47897   2.356   6.445   1.721 -0.4543 -0.0959 -0.1941
12323SOL    HW147898   2.404   6.440   1.808 -1.7841 -3.1829  0.4383
12323SOL    HW247899   2.292   6.521   1.722  0.0022  0.2842  1.2705
12324SOL     OW47900   4.684   8.929   0.910  0.4689 -0.2713  0.9671
12324SOL    HW147901   4.591   8.900   0.887  0.3146  0.2618  0.9227
12324SOL    HW247902   4.683   8.977   0.997  0.8724 -1.2293  1.5143
12325SOL     OW47903   2.150   8.639   1.457  0.0090  0.2163  0.5502
12325SOL    HW147904   2.146   8.660   1.359 -1.5165  0.8569  0.7450
12325SOL    HW247905   2.150   8.724   1.509  0.2034 -0.1429  1.1439
12326SOL     OW47906   7.398   0.863   1.930  0.0358  0.4005 -0.7455
12326SOL    HW147907   7.386   0.917   1.847 -0.1168 -0.9629 -1.6334
12326SOL    HW247908   7.429   0.771   1.906 -2.7134 -0.9175  0.5081
12327SOL     OW47909   8.439   6.597   3.616  0.0097  0.2293  0.1844
12327SOL    HW147910   8.534   6.569   3.625 -0.4330 -1.6243 -0.6151
12327SOL    HW247911   8.379   6.523   3.647 -1.1949  0.3027 -1.8548
12328SOL     OW47912   2.626   7.049   3.674 -0.4467  0.8331  0.4042
12328SOL    HW147913   2.634   7.148   3.683 -0.5903  1.2546 -3.1388
12328SOL    HW247914   2.540   7.026   3.627  0.9190 -0.7526 -1.4021
12329SOL     OW47915   1.182   6.417   2.712  0.1821 -0.2453  0.0854
12329SOL    HW147916   1.128   6.463   2.642 -0.3415 -2.2491 -0.8626
12329SOL    HW247917   1.272   6.394   2.676  1.4429  2.4012  1.4213
12330SOL     OW47918   2.623   2.746   1.830 -0.8874 -0.3452  0.2390
12330SOL    HW147919   2.714   2.730   1.867 -0.5000 -0.7396 -0.8605
12330SOL    HW247920   2.589   2.835   1.861 -0.5149 -0.6029  1.4040
12331SOL     OW47921   8.469   4.033   2.810  0.2890 -0.6325 -0.0638
12331SOL    HW147922   8.506   3.982   2.887  0.8054  0.5377  0.4753
12331SOL    HW247923   8.542   4.053   2.744  0.3975  0.6962  0.4531
12332SOL     OW47924   3.070   4.345   2.960  0.4414 -0.3111 -0.0216
12332SOL    HW147925   2.993   4.292   2.925  2.1235 -2.0367 -1.1815
12332SOL    HW247926   3.052   4.443   2.946 -2.1055 -0.6016  0.9480
12333SOL     OW47927   9.524   8.448   4.573 -0.1278 -0.3007  0.5258
12333SOL    HW147928   9.602   8.429   4.514  0.5478 -1.5423  1.7843
12333SOL    HW247929   9.483   8.535   4.548  0.5538 -0.4958 -1.3333
12334SOL     OW47930   0.166   8.087   3.442  0.6200 -0.2862 -0.0507
12334SOL    HW147931   0.096   8.035   3.393  2.2570 -1.9664 -0.6891
12334SOL    HW247932   0.177   8.177   3.400  0.4702 -0.8947 -1.4188
12335SOL     OW47933   2.670   2.192   3.915 -0.0321  0.3748 -0.5223
12335SOL    HW147934   2.613   2.120   3.874  0.3217 -0.0563 -0.2598
12335SOL    HW247935   2.680   2.267   3.850 -0.3548  0.1646 -0.8219
12336SOL     OW47936   8.143   2.990   4.533 -0.0074  0.2390  0.0645
12336SOL    HW147937   8.166   2.964   4.627  1.1119 -1.0008 -0.5385
12336SOL    HW247938   8.191   3.074   4.509 -1.5967  1.4978  1.1403
12337SOL     OW47939   3.490   2.154   3.960  0.1780 -0.4285  0.2259
12337SOL    HW147940   3.451   2.212   4.031  0.3416 -0.7336  0.5679
12337SOL    HW247941   3.588   2.172   3.952  0.0167  0.1707 -0.4708
12338SOL     OW47942   3.210   8.124   5.500 -0.3467  0.0528  0.3589
12338SOL    HW147943   3.196   8.149   5.596  0.3395  1.3126  0.1343
12338SOL    HW247944   3.154   8.044   5.478 -1.3727  0.4477  1.5048
12339SOL     OW47945   7.788   4.422   0.780 -0.0477  0.8402  0.5620
12339SOL    HW147946   7.746   4.442   0.691  2.0242  0.3656 -0.5543
12339SOL    HW247947   7.856   4.350   0.769  1.6569  2.1556  2.1709
12340SOL     OW47948   3.576   6.876   4.483  0.5995 -0.4714  0.3061
12340SOL    HW147949   3.654   6.815   4.469 -0.6171 -1.8548 -0.6057
12340SOL    HW247950   3.517   6.875   4.403 -0.3359  0.6045  0.9571
12341SOL     OW47951   4.643   8.314   3.099  0.5013 -0.1589  0.0207
12341SOL    HW147952   4.701   8.386   3.062  1.0180 -0.8503 -0.5298
12341SOL    HW247953   4.605   8.343   3.187 -1.0312  1.6378 -1.2189
12342SOL     OW47954   2.479   2.792   2.252 -0.4730 -0.0969 -0.1628
12342SOL    HW147955   2.529   2.853   2.313  1.4869 -0.9498 -0.8674
12342SOL    HW247956   2.395   2.836   2.223 -0.4392  1.1290  1.5456
12343SOL     OW47957   4.032   5.223   3.349 -0.0510  0.0506  0.3648
12343SOL    HW147958   3.959   5.216   3.417 -0.6354  1.4935 -0.0941
12343SOL    HW247959   3.993   5.218   3.257  0.3112  1.6416  0.1076
12344SOL     OW47960   0.503   7.674   1.306 -0.1269 -0.0660 -0.1879
12344SOL    HW147961   0.405   7.682   1.285  0.0429 -0.9211 -1.3544
12344SOL    HW247962   0.553   7.652   1.222  1.1481  0.9150  0.2953
12345SOL     OW47963   1.735   5.869   5.401  0.7324 -0.5343 -0.8065
12345SOL    HW147964   1.736   5.825   5.492  1.9319  0.4174 -0.3442
12345SOL    HW247965   1.792   5.815   5.339  1.0753 -0.4116 -0.6050
12346SOL     OW47966   6.911   0.653   4.125 -0.0156 -0.0893  0.1905
12346SOL    HW147967   6.812   0.656   4.137  0.1416 -0.3700  1.5782
12346SOL    HW247968   6.933   0.664   4.028 -1.3723  0.6230 -0.0401
12347SOL     OW47969   0.121   8.089   0.355 -0.1275  0.1175  0.1846
12347SOL    HW147970   0.115   8.189   0.344 -0.2845  0.1238  0.3363
12347SOL    HW247971   0.203   8.056   0.308 -1.7853 -0.1005 -2.6299
12348SOL     OW47972   8.355   9.103   3.475  0.2471 -0.1176  0.1094
12348SOL    HW147973   8.383   9.195   3.448 -0.3143 -0.0123 -0.1377
12348SOL    HW247974   8.317   9.056   3.395 -0.5806 -0.1345  0.5023
12349SOL     OW47975   1.395   6.609   3.759  0.1417 -0.2244  0.6200
12349SOL    HW147976   1.495   6.610   3.757  0.1899  2.5646  2.3897
12349SOL    HW247977   1.361   6.616   3.665  1.6320  1.8867  0.1960
12350SOL     OW47978   8.542   0.938   1.294 -0.0314 -0.7388  0.1025
12350SOL    HW147979   8.567   0.916   1.388  1.4274  0.6582  0.0508
12350SOL    HW247980   8.471   1.008   1.295  0.6374 -0.0615  0.1468
12351SOL     OW47981   1.243   4.320   3.463  0.2842  0.1223 -0.2208
12351SOL    HW147982   1.281   4.340   3.372  0.1388 -0.1847 -0.3493
12351SOL    HW247983   1.150   4.357   3.468  0.3471  0.2725 -0.1429
12352SOL     OW47984   8.083   5.220   2.145  0.5099  0.0752 -0.1564
12352SOL    HW147985   8.093   5.315   2.171  1.5213 -0.0124 -0.2092
12352SOL    HW247986   8.150   5.197   2.074  0.5787 -0.7888  0.1788
12353SOL     OW47987   6.000   1.492   1.960  0.8005  0.0019  0.9620
12353SOL    HW147988   6.069   1.421   1.947  1.4261  0.5148  1.4296
12353SOL    HW247989   5.917   1.451   1.999  1.3690 -0.3643  1.7836
12354SOL     OW47990   7.392   1.095   2.554 -0.8155 -0.2257  0.3272
12354SOL    HW147991   7.356   1.027   2.490 -3.1071  1.7024 -0.4939
12354SOL    HW247992   7.487   1.116   2.530 -0.5682 -1.9568 -0.3435
12355SOL     OW47993   9.722   4.261   1.679  0.6529  0.6093  0.1405
12355SOL    HW147994   9.709   4.359   1.660  0.0193  0.6308  0.6418
12355SOL    HW247995   9.670   4.207   1.613  1.7695  0.5903 -0.7202
12356SOL     OW47996   8.928   1.296   1.845  0.4392 -0.5376  0.4796
12356SOL    HW147997   8.831   1.270   1.851  0.1512  0.5739  0.7345
12356SOL    HW247998   8.946   1.372   1.906  1.5275 -0.8421  0.5514
12357SOL     OW47999   9.568   9.338   1.111  0.1339 -0.3395 -0.1680
12357SOL    HW148000   9.630   9.262   1.092  0.0837 -0.1379 -1.1692
12357SOL    HW248001   9.481   9.302   1.145 -0.0380 -0.7665 -1.0292
12358SOL     OW48002   9.228   2.110   5.219  0.5085  0.3243 -0.4249
12358SOL    HW148003   9.286   2.112   5.138  0.0543  1.8912 -0.7220
12358SOL    HW248004   9.283   2.086   5.299  1.0589 -0.7001 -1.1121
12359SOL     OW48005   0.783   7.611   4.393 -0.0972 -0.0223  0.0746
12359SOL    HW148006   0.808   7.666   4.473 -0.1728  1.9648 -1.2384
12359SOL    HW248007   0.705   7.653   4.347 -2.1224 -2.9213  0.7478
12360SOL     OW48008   0.135   1.924   4.567  1.0624 -0.1860 -0.4149
12360SOL    HW148009   0.207   1.926   4.498  1.3855  1.7296 -0.0648
12360SOL    HW248010   0.173   1.952   4.656  0.9062 -3.7338  0.8298
12361SOL     OW48011   0.833   3.718   6.036  0.3579  0.2980 -0.2656
12361SOL    HW148012   0.913   3.676   5.993 -0.1149 -0.4734 -0.4018
12361SOL    HW248013   0.855   3.743   6.131  1.0963  1.1010 -0.6432
12362SOL     OW48014   4.899   9.576   2.691 -0.0135 -0.5116 -0.0129
12362SOL    HW148015   4.892   9.500   2.626 -1.1693  0.0930 -0.6070
12362SOL    HW248016   4.891   9.663   2.641 -0.6573 -0.0392  0.9091
12363SOL     OW48017   1.672   9.238   2.301  0.0006  0.0524 -0.0192
12363SOL    HW148018   1.614   9.158   2.316  0.1636 -0.1455 -0.4491
12363SOL    HW248019   1.623   9.320   2.330 -0.0509 -0.2320  0.7070
12364SOL     OW48020   9.767   1.010   0.449 -0.0167  0.2934 -0.5011
12364SOL    HW148021   9.853   0.977   0.410 -0.2278 -0.5895 -0.2309
12364SOL    HW248022   9.782   1.099   0.492  0.6283  0.4166 -0.9731
12365SOL     OW48023   9.590   3.541   1.781  0.0725  0.3869 -0.4141
12365SOL    HW148024   9.577   3.443   1.770  0.0646  0.2860  0.4718
12365SOL    HW248025   9.685   3.560   1.804 -0.3380  0.4061  1.3727
12366SOL     OW48026   8.979   6.504   4.780  0.6272 -0.2404  0.6326
12366SOL    HW148027   9.031   6.490   4.865  1.2619  0.0886  0.3030
12366SOL    HW248028   8.956   6.601   4.771 -0.6552 -0.4872  1.1205
12367SOL     OW48029   2.871   5.574   6.732 -0.1663 -0.4593 -0.3275
12367SOL    HW148030   2.960   5.538   6.760 -0.2871  0.2900  1.0327
12367SOL    HW248031   2.803   5.555   6.803 -0.4572  1.5451 -0.0467
12368SOL     OW48032   1.388   3.518   5.050  0.3411 -0.2083 -0.5157
12368SOL    HW148033   1.291   3.497   5.062 -0.0121  1.8337  0.4412
12368SOL    HW248034   1.443   3.462   5.112 -0.3757 -0.0156  0.2931
12369SOL     OW48035   0.939   3.572   4.930 -0.2454  0.0681 -0.1228
12369SOL    HW148036   0.931   3.473   4.941  0.9538  0.0121  0.3427
12369SOL    HW248037   0.878   3.603   4.857 -0.4441 -1.0499 -0.4308
12370SOL     OW48038   6.815   1.165   0.448 -0.3279  0.0460  0.3471
12370SOL    HW148039   6.795   1.156   0.545  0.3381  1.2120  0.6092
12370SOL    HW248040   6.849   1.078   0.412  0.5663 -0.0669  1.4415
12371SOL     OW48041   8.465   3.612   3.686  0.2067  0.6933 -0.3901
12371SOL    HW148042   8.406   3.553   3.743  1.1748 -1.2390 -1.3384
12371SOL    HW248043   8.424   3.622   3.595  1.9152 -1.7173 -1.4736
12372SOL     OW48044   2.779   9.334   4.473 -0.4511 -0.3380 -0.2986
12372SOL    HW148045   2.802   9.368   4.564  1.8011 -1.7707 -0.2840
12372SOL    HW248046   2.693   9.374   4.443 -1.4931 -0.2446  2.6601
12373SOL     OW48047   0.329   6.498   0.804 -0.4520 -0.2964  0.3012
12373SOL    HW148048   0.417   6.451   0.817 -1.0053 -0.4573  4.1557
12373SOL    HW248049   0.271   6.443   0.744  1.8311 -0.4718 -1.8331
12374SOL     OW48050   3.644   0.783   3.612  0.1744  0.3201 -0.0929
12374SOL    HW148051   3.546   0.771   3.622  0.1894 -0.8009 -1.1686
12374SOL    HW248052   3.691   0.717   3.672  0.2771  1.1403  0.7391
12375SOL     OW48053   1.338   2.063   2.794 -0.2241  0.3066 -0.1149
12375SOL    HW148054   1.417   2.057   2.733 -0.4641  0.4091 -0.4424
12375SOL    HW248055   1.354   2.009   2.876 -0.7195 -1.5167 -1.1835
12376SOL     OW48056   9.418   5.705   1.969  0.1372  0.0695  0.3606
12376SOL    HW148057   9.483   5.773   2.001 -0.7316  0.8633  0.4743
12376SOL    HW248058   9.366   5.669   2.047 -0.2690  0.1988  0.1550
12377SOL     OW48059   4.151   9.820   4.140  0.7288  0.2105  0.9764
12377SOL    HW148060   4.054   9.808   4.118  0.5999  1.5743  0.7138
12377SOL    HW248061   4.205   9.748   4.096 -0.3607 -1.7543  2.7822
12378SOL     OW48062   6.031   8.745   4.763  0.2661 -0.1741 -0.3122
12378SOL    HW148063   5.982   8.658   4.763 -2.1968  1.1622  1.7726
12378SOL    HW248064   6.129   8.728   4.777  0.0014 -2.6551 -1.2250
12379SOL     OW48065   1.752   6.958   4.133 -0.0208 -0.1344 -0.4470
12379SOL    HW148066   1.689   6.907   4.192  0.4857  0.3525  0.5134
12379SOL    HW248067   1.699   7.015   4.070 -0.5409  1.1004  1.0801
12380SOL     OW48068   0.681   6.785   0.801 -0.0758  0.5421  0.1470
12380SOL    HW148069   0.588   6.820   0.792  0.0578  0.6356 -0.9650
12380SOL    HW248070   0.687   6.723   0.879 -1.6288 -1.2534 -1.1119
12381SOL     OW48071   8.753   6.002   2.052  0.4190  0.4664  0.0106
12381SOL    HW148072   8.813   5.974   2.128 -0.4173  2.6839  1.5117
12381SOL    HW248073   8.806   6.057   1.987  0.4307  0.9763  0.4508
12382SOL     OW48074   1.456   6.474   5.920 -0.3622  0.4882  0.1956
12382SOL    HW148075   1.403   6.502   5.840  1.8173  1.0310 -1.1054
12382SOL    HW248076   1.506   6.390   5.898  0.0890  0.5229  1.0683
12383SOL     OW48077   0.418   9.006   4.147  0.2049 -0.4179  0.3522
12383SOL    HW148078   0.396   9.079   4.212  0.1451 -0.7160  0.6728
12383SOL    HW248079   0.449   9.045   4.061  2.0456 -0.0200  1.1621
12384SOL     OW48080   4.844   5.797   2.151 -0.0892 -0.0915 -0.4043
12384SOL    HW148081   4.747   5.785   2.126 -0.4678  0.6938  0.6475
12384SOL    HW248082   4.850   5.835   2.243  1.2669 -1.6890  0.1999
12385SOL     OW48083   9.120   0.233   2.337 -0.1367  0.2708 -0.3423
12385SOL    HW148084   9.182   0.238   2.259  1.1183  0.2848  0.6185
12385SOL    HW248085   9.058   0.311   2.337 -1.0501 -0.4461 -2.0542
12386SOL     OW48086   4.688   8.690   1.801 -0.3305  0.2266  0.2615
12386SOL    HW148087   4.773   8.674   1.752 -1.0742 -1.8501 -0.4176
12386SOL    HW248088   4.611   8.665   1.742 -1.2956 -0.8468  1.9325
12387SOL     OW48089   8.995   3.272   2.406 -0.2830  0.3774  0.0484
12387SOL    HW148090   8.964   3.177   2.414 -0.2622  0.3474 -0.2260
12387SOL    HW248091   8.976   3.305   2.313  2.0417 -0.1756 -0.6495
12388SOL     OW48092   4.103   0.321   3.643 -0.1764  0.7901  0.1070
12388SOL    HW148093   4.150   0.356   3.562  0.5471  0.3216  0.3135
12388SOL    HW248094   4.160   0.250   3.686 -1.4896 -0.4432 -0.1626
12389SOL     OW48095   0.378   3.540   3.604 -0.3607  0.2291 -0.1284
12389SOL    HW148096   0.321   3.618   3.574  0.1424  0.4452 -0.5293
12389SOL    HW248097   0.333   3.455   3.577 -0.4235  0.4033 -0.5900
12390SOL     OW48098   7.897   9.154   4.699  0.2033  0.1726  0.1794
12390SOL    HW148099   7.938   9.137   4.609  0.9235  0.6575  0.4099
12390SOL    HW248100   7.815   9.209   4.689 -0.2241 -0.5350 -0.2592
12391SOL     OW48101   0.368   5.069   1.563 -0.1179  0.2483  0.5280
12391SOL    HW148102   0.302   5.041   1.493 -0.2923  1.1158  0.3427
12391SOL    HW248103   0.458   5.031   1.540 -0.6963 -1.6210  1.2152
12392SOL     OW48104   5.146   1.805   3.414  0.2027 -0.2285 -0.5331
12392SOL    HW148105   5.239   1.770   3.424  0.5926 -0.0234 -3.1848
12392SOL    HW248106   5.087   1.733   3.377  0.0542  0.6129 -1.9684
12393SOL     OW48107   8.815   1.174   3.123  0.2516  0.1024  0.1445
12393SOL    HW148108   8.733   1.126   3.155  0.0269  0.8818  0.7720
12393SOL    HW248109   8.803   1.201   3.028 -0.4901  0.7735  0.4212
12394SOL     OW48110   7.255   1.336   1.637 -0.0938  0.1530 -0.7043
12394SOL    HW148111   7.263   1.323   1.736 -0.5497 -1.1464 -0.8290
12394SOL    HW248112   7.171   1.386   1.616 -0.2673 -0.0410 -0.4738
12395SOL     OW48113   0.724   3.134   3.143  1.0304  0.4270  0.2040
12395SOL    HW148114   0.699   3.216   3.091 -0.5663 -0.1769 -0.0222
12395SOL    HW248115   0.661   3.060   3.120  1.5014 -0.4067  1.5678
12396SOL     OW48116   1.528   3.100   3.649 -0.0079  0.3472  0.5075
12396SOL    HW148117   1.446   3.099   3.706  0.2746  0.3399  0.9143
12396SOL    HW248118   1.503   3.077   3.555 -0.4960  0.4948  0.5960
12397SOL     OW48119   5.739   1.450   4.473  0.2277 -0.1213 -0.7362
12397SOL    HW148120   5.748   1.549   4.465  0.3903 -0.1919 -1.4126
12397SOL    HW248121   5.823   1.405   4.442  0.1711 -0.4727 -0.3967
12398SOL     OW48122   0.451   7.845   3.898 -0.1316 -0.5978  0.4493
12398SOL    HW148123   0.440   7.768   3.962  0.1546 -1.2027 -0.2180
12398SOL    HW248124   0.495   7.812   3.814  1.0061  0.5220  0.5918
12399SOL     OW48125   9.244   6.680   6.084 -0.1755  0.1227  0.0866
12399SOL    HW148126   9.285   6.683   6.175 -0.3617 -0.9931  0.2050
12399SOL    HW248127   9.183   6.602   6.077  0.6854 -0.4319 -1.3633
12400SOL     OW48128   2.353   4.032   3.350  0.2124  0.1681 -0.0845
12400SOL    HW148129   2.285   4.027   3.423 -0.1725 -0.5421 -0.4840
12400SOL    HW248130   2.445   4.029   3.389  0.0096  0.6665  0.4286
12401SOL     OW48131   4.240   6.762   3.492  0.1550  0.7314 -0.1711
12401SOL    HW148132   4.243   6.838   3.557  0.0596  0.3839  0.2531
12401SOL    HW248133   4.305   6.691   3.521  0.7531  0.9554 -0.9580
12402SOL     OW48134   0.211   7.460   6.553  0.0448 -0.6199 -0.6656
12402SOL    HW148135   0.232   7.552   6.519  1.6845 -1.0794 -0.9484
12402SOL    HW248136   0.149   7.414   6.489  1.6628 -0.8113 -2.1414
12403SOL     OW48137   1.360   4.910   0.121 -0.1447 -0.0723  0.2060
12403SOL    HW148138   1.277   4.857   0.137 -0.3980  0.3752  0.3952
12403SOL    HW248139   1.396   4.890   0.030  0.8362 -1.9992  1.0047
12404SOL     OW48140   4.376   7.403   3.042 -0.5706 -0.0120  1.0472
12404SOL    HW148141   4.428   7.482   3.008  0.7741 -0.7210  1.4438
12404SOL    HW248142   4.383   7.400   3.142 -0.4532 -0.7528  1.0143
12405SOL     OW48143   0.252   2.470   2.393 -0.2347  0.0941 -0.0944
12405SOL    HW148144   0.306   2.419   2.459 -0.2891  0.3115  0.1176
12405SOL    HW248145   0.232   2.411   2.314  0.3557  0.0339 -0.2024
12406SOL     OW48146   6.678   9.599   5.061  0.8302 -0.0616  0.1210
12406SOL    HW148147   6.662   9.624   4.966  2.0506  0.3602  0.0236
12406SOL    HW248148   6.679   9.681   5.118 -1.1968 -0.4084  0.7143
12407SOL     OW48149   3.030   1.292   4.464 -0.0299  0.2444 -0.1118
12407SOL    HW148150   3.100   1.362   4.449  0.5625 -0.5666 -1.3084
12407SOL    HW248151   2.941   1.335   4.472  0.4767  1.2258  0.3937
12408SOL     OW48152   2.873   0.601   3.674 -0.6005 -0.1500  0.3793
12408SOL    HW148153   2.940   0.643   3.735 -0.5373 -0.1066  0.2807
12408SOL    HW248154   2.787   0.586   3.723 -0.5437 -0.1326  0.4830
12409SOL     OW48155   5.324   1.734   4.091  0.3177 -0.4673  0.2557
12409SOL    HW148156   5.251   1.794   4.126  1.1296  0.5380  0.2637
12409SOL    HW248157   5.407   1.749   4.145  0.6426 -1.3263 -0.0028
12410SOL     OW48158   5.596   1.736   1.431 -0.4743  0.2682  0.2384
12410SOL    HW148159   5.630   1.680   1.507  1.0939  1.1858  0.2374
12410SOL    HW248160   5.612   1.832   1.451 -0.7777  0.5624 -0.9055
12411SOL     OW48161   0.523   1.381   4.156  0.0494  0.2076 -0.4389
12411SOL    HW148162   0.508   1.383   4.057  1.1832  1.0239 -0.6062
12411SOL    HW248163   0.621   1.382   4.174 -0.1624  1.4107  0.7112
12412SOL     OW48164   7.970   1.195   3.101 -0.3114 -0.6779  0.1319
12412SOL    HW148165   7.928   1.261   3.164  1.0994  1.7613 -1.4058
12412SOL    HW248166   7.967   1.232   3.008  3.0720 -1.5111 -0.3524
12413SOL     OW48167   0.076   8.261   4.083  0.5705  0.0077  0.1014
12413SOL    HW148168   0.161   8.236   4.130  0.1805  0.9697  1.3561
12413SOL    HW248169   0.078   8.359   4.061  0.0236 -0.0844 -0.3544
12414SOL     OW48170   1.529   2.744   4.934  0.5094  0.3773  0.3356
12414SOL    HW148171   1.430   2.736   4.942  0.3058  3.2553  1.2182
12414SOL    HW248172   1.555   2.742   4.838 -0.3648 -0.7876  0.1174
12415SOL     OW48173   8.891   1.066   4.995  0.3494 -0.3317  0.4780
12415SOL    HW148174   8.866   0.970   5.003  0.5398 -0.6225 -1.9866
12415SOL    HW248175   8.809   1.120   4.971  0.9679 -0.4840 -2.0917
12416SOL     OW48176   8.313   7.133   1.906 -0.4617 -0.1499 -0.1743
12416SOL    HW148177   8.372   7.200   1.952 -0.2667 -0.2046 -0.3413
12416SOL    HW248178   8.217   7.153   1.926 -0.4499  0.6598 -0.8706
12417SOL     OW48179   0.597   3.276   6.688 -0.5018  0.0026  0.0216
12417SOL    HW148180   0.585   3.220   6.770  2.7624 -2.1641 -0.8818
12417SOL    HW248181   0.644   3.361   6.711 -0.0596 -0.3632  0.4860
12418SOL     OW48182   0.825   3.346   1.250 -0.3211  0.6513  0.6599
12418SOL    HW148183   0.797   3.259   1.209 -0.5592  0.5689  1.0011
12418SOL    HW248184   0.901   3.329   1.313  0.8999  0.9542 -0.7084
12419SOL     OW48185   7.613   1.979   4.727  0.3979 -0.3289 -0.3410
12419SOL    HW148186   7.655   1.902   4.774  0.6664 -1.2076 -1.9549
12419SOL    HW248187   7.673   2.058   4.730 -0.2003  0.0584  1.9651
12420SOL     OW48188   4.676   8.928   3.122  0.2014 -0.5551 -0.8072
12420SOL    HW148189   4.621   8.957   3.043 -1.7020  0.0496  0.6983
12420SOL    HW248190   4.677   9.001   3.190  2.3298 -0.8443 -0.5017
12421SOL     OW48191   7.899   9.759   0.126 -0.6519  0.3443 -0.3300
12421SOL    HW148192   7.938   9.672   0.154 -1.1215  0.6085  1.1856
12421SOL    HW248193   7.956   9.834   0.160 -2.7572  0.7566  2.4599
12422SOL     OW48194   1.020   6.117   4.274 -0.7385 -0.0548 -0.4035
12422SOL    HW148195   1.047   6.105   4.369 -1.6409 -0.9593 -0.2415
12422SOL    HW248196   0.923   6.093   4.264 -0.7143  0.2700 -1.5006
12423SOL     OW48197   6.611   6.853   4.081  0.0000  0.5984  0.0186
12423SOL    HW148198   6.650   6.770   4.121  0.8986  1.1234  0.2402
12423SOL    HW248199   6.615   6.927   4.148 -0.9299  0.7898 -0.1276
12424SOL     OW48200   4.760   4.404   3.002  0.0112  0.2523  0.2737
12424SOL    HW148201   4.796   4.341   3.071  0.6831  1.7594  1.3164
12424SOL    HW248202   4.750   4.495   3.042  0.2839  1.1223 -1.5938
12425SOL     OW48203   2.502   4.043   3.103 -0.3756 -0.6761  0.2507
12425SOL    HW148204   2.443   4.099   3.045  0.5467  1.3795  1.2435
12425SOL    HW248205   2.459   4.031   3.192  0.0948 -0.3093  0.5276
12426SOL     OW48206   1.205   8.144   0.921  0.3495  0.0161 -0.0483
12426SOL    HW148207   1.280   8.161   0.857  0.2824  0.0790 -0.1105
12426SOL    HW248208   1.242   8.115   1.009  0.4210 -0.6792 -0.3020
12427SOL     OW48209   5.284   2.573   4.163 -0.2891  0.0668  0.5938
12427SOL    HW148210   5.364   2.524   4.198  0.4008  1.1225  0.5160
12427SOL    HW248211   5.241   2.624   4.237 -0.5402 -0.0164  0.5064
12428SOL     OW48212   7.329   9.613   2.477  0.1621 -0.2763 -0.2389
12428SOL    HW148213   7.247   9.582   2.525  0.6457 -0.1298  0.7031
12428SOL    HW248214   7.382   9.534   2.446  0.3082 -0.3781  0.2683
12429SOL     OW48215   2.596   0.315   1.250  0.1747  0.6856 -0.0767
12429SOL    HW148216   2.555   0.237   1.204  1.2849 -0.5007  0.8930
12429SOL    HW248217   2.535   0.346   1.324 -0.3066  0.7870 -0.5175
12430SOL     OW48218   2.337   3.213   4.186  0.0424  0.5146  0.0649
12430SOL    HW148219   2.349   3.149   4.263  0.1705 -0.2195 -0.5570
12430SOL    HW248220   2.251   3.263   4.198 -1.5258 -1.8377 -0.8851
12431SOL     OW48221   2.304   6.161   5.912 -0.1945 -0.7211  0.1110
12431SOL    HW148222   2.377   6.184   5.848 -0.2755  0.3212  0.3748
12431SOL    HW248223   2.324   6.202   6.001 -0.7402 -1.0399  0.3854
12432SOL     OW48224   5.853   8.179   4.428 -0.4145 -0.3909 -0.5466
12432SOL    HW148225   5.906   8.258   4.460  0.0835 -0.7745 -0.4161
12432SOL    HW248226   5.896   8.095   4.462 -0.7950 -0.7271 -0.8981
12433SOL     OW48227   1.848   8.572   1.103 -0.5934 -0.3789 -0.1492
12433SOL    HW148228   1.804   8.573   1.013 -2.1512 -0.5731  0.5976
12433SOL    HW248229   1.893   8.484   1.116 -0.8210 -0.5556 -0.5283
12434SOL     OW48230   1.852   3.520   0.397  0.2283  0.3064  0.3095
12434SOL    HW148231   1.809   3.599   0.354 -1.4818 -0.3994  0.6662
12434SOL    HW248232   1.849   3.442   0.336 -0.1181 -0.0822  0.8164
12435SOL     OW48233   5.088   3.725   4.735  0.1683  0.5107  0.2709
12435SOL    HW148234   5.188   3.726   4.741  0.1885  0.0567  0.0140
12435SOL    HW248235   5.050   3.685   4.818  0.3565 -3.1450 -1.2953
12436SOL     OW48236   0.808   7.819   5.697  0.0053 -0.3704 -0.1604
12436SOL    HW148237   0.794   7.918   5.692 -0.1918 -0.4525 -1.4027
12436SOL    HW248238   0.897   7.795   5.659  0.5196 -0.5741  1.1401
12437SOL     OW48239   9.955   1.298   3.167  0.2369 -0.4471  0.5148
12437SOL    HW148240   9.903   1.235   3.225  2.2547 -1.9966  0.7004
12437SOL    HW248241   9.969   1.256   3.077  0.8104  0.1191  0.3345
12438SOL     OW48242   1.362   6.245   5.313 -0.4158  0.6280 -0.0098
12438SOL    HW148243   1.340   6.334   5.271 -1.8837  0.0628 -0.4922
12438SOL    HW248244   1.341   6.249   5.411 -1.1204  0.6138 -0.1557
12439SOL     OW48245   4.217   0.454   3.431  0.2596 -0.0846 -0.3474
12439SOL    HW148246   4.161   0.534   3.407 -0.6462 -0.8856 -0.9340
12439SOL    HW248247   4.313   0.482   3.439  0.0110  0.9828 -0.9925
12440SOL     OW48248   0.327   9.771   4.386 -0.1765 -0.0647 -0.1613
12440SOL    HW148249   0.361   9.846   4.329 -0.4210  0.6567  0.6305
12440SOL    HW248250   0.290   9.699   4.328 -0.5980  0.7409 -0.9116
12441SOL     OW48251   5.615   6.184   1.817  0.0530  0.0693  0.0277
12441SOL    HW148252   5.541   6.126   1.850  0.2829  0.0046  0.4313
12441SOL    HW248253   5.701   6.133   1.820  0.3182  0.5531  0.7425
12442SOL     OW48254   7.536   2.913   1.451  0.4590  0.2913  0.2394
12442SOL    HW148255   7.514   2.993   1.396  0.9194  2.0683  2.5272
12442SOL    HW248256   7.629   2.922   1.487 -0.5167  0.2057  2.9162
12443SOL     OW48257   1.075   3.929   5.910 -0.0678 -0.0953  0.0829
12443SOL    HW148258   1.069   3.830   5.926 -3.0303  0.0089 -0.1661
12443SOL    HW248259   1.086   3.976   5.997 -2.1398 -0.4476  0.5576
12444SOL     OW48260   3.140   6.912   1.403  0.0211  0.1403  0.1270
12444SOL    HW148261   3.141   6.839   1.335 -0.3605 -0.1345  0.4166
12444SOL    HW248262   3.230   6.921   1.445  0.6238  1.1855 -1.3556
12445SOL     OW48263   0.012   8.996   1.839  0.2760  0.0606 -0.1437
12445SOL    HW148264   0.026   9.078   1.783  0.7935  0.2919  0.3255
12445SOL    HW248265  -0.048   9.018   1.916 -2.1645 -0.7495 -1.7385
12446SOL     OW48266   3.405   4.015   2.886 -0.3446 -0.4532 -0.3037
12446SOL    HW148267   3.447   4.032   2.975 -3.0277  2.7199  0.4665
12446SOL    HW248268   3.466   4.049   2.814  0.3685  0.0476  0.5183
12447SOL     OW48269   5.676   1.584   3.583  0.3722 -0.4105  0.2718
12447SOL    HW148270   5.584   1.595   3.545  0.2102  1.1302  1.0892
12447SOL    HW248271   5.687   1.644   3.663  2.0211 -0.7227  0.2958
12448SOL     OW48272   8.223   9.220   0.819 -0.6307 -0.0628  0.0980
12448SOL    HW148273   8.321   9.216   0.838 -0.6588 -1.2491  0.0825
12448SOL    HW248274   8.192   9.315   0.819  0.7923  0.4333 -1.2991
12449SOL     OW48275   2.916   1.577   3.908 -0.0493 -0.3976 -0.2737
12449SOL    HW148276   2.834   1.596   3.963  0.0293 -1.1594  0.1230
12449SOL    HW248277   2.997   1.599   3.961  0.0792 -2.9421  0.6857
12450SOL     OW48278   5.216   1.546   1.262 -0.2409  0.3393 -0.6396
12450SOL    HW148279   5.310   1.516   1.274 -0.4619 -0.3046 -0.5072
12450SOL    HW248280   5.176   1.503   1.182 -0.3712  0.7450 -0.7972
12451SOL     OW48281   2.676   8.885   1.391  0.0631 -0.0653  0.0186
12451SOL    HW148282   2.586   8.899   1.431  0.6649  0.1661  1.3263
12451SOL    HW248283   2.746   8.894   1.462  1.0487 -1.3099 -0.7785
12452SOL     OW48284   1.377   1.848   1.936 -0.0890 -0.3684  0.3153
12452SOL    HW148285   1.350   1.943   1.922 -0.4348 -0.7766 -1.9602
12452SOL    HW248286   1.477   1.841   1.938 -0.0323 -0.1812 -1.3496
12453SOL     OW48287   8.013   6.642   3.221  0.4271  0.2412  0.0343
12453SOL    HW148288   7.950   6.645   3.144 -0.7814  0.7670  1.0276
12453SOL    HW248289   8.040   6.735   3.246  0.7477  0.0778  0.3049
12454SOL     OW48290   7.237   3.656   0.964  0.3658  0.2997 -0.3226
12454SOL    HW148291   7.215   3.721   0.891  0.3082  0.2010 -0.3937
12454SOL    HW248292   7.281   3.704   1.040 -0.8345  0.6443  0.1732
12455SOL     OW48293   4.419   8.681   5.236  0.1237 -0.4510 -0.1991
12455SOL    HW148294   4.319   8.680   5.239  0.1473 -1.1565  0.3768
12455SOL    HW248295   4.454   8.727   5.318  0.2845 -0.5004 -0.2413
12456SOL     OW48296   4.429   9.081   3.291 -0.1143 -0.4457  0.2058
12456SOL    HW148297   4.523   9.110   3.307  0.3650 -1.8543 -0.0000
12456SOL    HW248298   4.376   9.093   3.375 -0.0219  1.3292  0.0266
12457SOL     OW48299   0.417   5.933   3.906  0.0522  0.3624 -0.1744
12457SOL    HW148300   0.417   6.024   3.865  1.2355  1.0338  1.2646
12457SOL    HW248301   0.394   5.865   3.836  1.3423  1.5366 -1.7796
12458SOL     OW48302   1.105   1.579   3.614 -0.4160  1.0337 -0.2480
12458SOL    HW148303   1.079   1.485   3.592  0.4239  1.1406 -1.8234
12458SOL    HW248304   1.149   1.582   3.704 -0.6664 -0.0503 -0.0902
12459SOL     OW48305   8.670   0.127   3.239  0.2151  0.0869 -0.2491
12459SOL    HW148306   8.666   0.073   3.155 -0.5683  2.2892 -1.6510
12459SOL    HW248307   8.743   0.195   3.231  0.9288 -0.4578  1.3467
12460SOL     OW48308   2.279   7.526   3.576  0.3668  0.1767  0.9960
12460SOL    HW148309   2.378   7.514   3.588  0.6217 -2.6999 -2.9019
12460SOL    HW248310   2.236   7.436   3.571 -2.3075  1.4022  1.4124
12461SOL     OW48311   1.007   0.758   2.529  0.3903 -0.3303 -0.0088
12461SOL    HW148312   0.928   0.770   2.470  1.8421  0.9180 -1.7609
12461SOL    HW248313   0.993   0.810   2.614 -1.4223 -1.5988  0.4842
12462SOL     OW48314   2.692   6.380   4.315  0.3516 -0.1654 -0.3057
12462SOL    HW148315   2.658   6.399   4.407 -1.2371 -1.0988 -0.6796
12462SOL    HW248316   2.746   6.458   4.283  0.6217  0.3106  1.2670
12463SOL     OW48317   1.068   1.353   3.480  0.0239 -0.5344 -0.2913
12463SOL    HW148318   1.057   1.384   3.386  0.7410 -0.9151 -0.5035
12463SOL    HW248319   1.109   1.262   3.481 -2.9769 -1.9443  0.3045
12464SOL     OW48320   2.336   9.576   3.500 -0.0241  0.0282  0.3640
12464SOL    HW148321   2.296   9.656   3.454 -1.4255 -0.3090  0.9738
12464SOL    HW248322   2.264   9.512   3.524  1.3826 -2.7974 -2.6732
12465SOL     OW48323   9.105   8.365   3.145  0.1649 -0.4065  0.2089
12465SOL    HW148324   9.137   8.308   3.220 -0.0238 -2.1728 -1.0363
12465SOL    HW248325   9.005   8.357   3.137  0.2193 -0.5050 -0.4413
12466SOL     OW48326   7.383   2.554   4.298  0.5530  0.0487  0.3574
12466SOL    HW148327   7.355   2.518   4.209 -0.2980  1.1393  0.1752
12466SOL    HW248328   7.398   2.478   4.361 -3.2788 -0.6186  0.5845
12467SOL     OW48329   9.981   9.365   4.790  0.0642  0.5494 -0.4706
12467SOL    HW148330   9.964   9.273   4.824  1.0319  0.2308 -0.8311
12467SOL    HW248331   9.906   9.425   4.818  0.2626  0.0409  1.2122
12468SOL     OW48332   5.898   4.216   6.431  0.8143 -0.1211  0.1780
12468SOL    HW148333   5.846   4.237   6.349  0.1659  2.0900  1.1362
12468SOL    HW248334   5.985   4.265   6.429  0.7442  0.0327  0.8718
12469SOL     OW48335   0.115   6.930   3.592 -0.3093 -0.2686 -0.1307
12469SOL    HW148336   0.040   6.957   3.531 -0.4850 -1.5118 -0.4765
12469SOL    HW248337   0.184   7.002   3.594 -1.6637  1.0419  0.4428
12470SOL     OW48338   3.015   8.819   3.402  0.2361  0.5159  0.1612
12470SOL    HW148339   2.996   8.768   3.485 -1.0300 -3.7533 -2.5661
12470SOL    HW248340   2.930   8.832   3.351  1.4362  0.0438 -2.0411
12471SOL     OW48341   0.391   9.207   4.923 -0.0861  0.1378 -0.4206
12471SOL    HW148342   0.337   9.147   4.865 -0.8678  0.3375  0.0863
12471SOL    HW248343   0.335   9.284   4.953  0.9915  1.2925 -1.3173
12472SOL     OW48344   0.010   4.200   3.850 -0.2217  0.0729  0.0065
12472SOL    HW148345   0.062   4.122   3.886 -2.8242 -0.8872  1.8799
12472SOL    HW248346   0.058   4.285   3.873  1.6496 -0.8625 -0.3168
12473SOL     OW48347   1.726   5.490   0.422 -0.0788 -0.2140  0.0073
12473SOL    HW148348   1.640   5.513   0.467 -1.0504 -0.7794 -1.5342
12473SOL    HW248349   1.712   5.485   0.324  2.3288  2.4723 -0.5524
12474SOL     OW48350   7.235   1.003   4.150  0.2220  0.3750 -0.3171
12474SOL    HW148351   7.214   1.040   4.240  1.1251 -0.7727  0.3781
12474SOL    HW248352   7.306   1.059   4.107  0.6610  0.2140  0.1966
12475SOL     OW48353   7.891   7.885   4.415 -0.0818  0.9323  0.4543
12475SOL    HW148354   7.962   7.947   4.450  0.1719  0.1092  1.4162
12475SOL    HW248355   7.838   7.848   4.491 -1.0877  0.9850 -0.2112
12476SOL     OW48356   2.223   2.159   4.577  0.1535  0.5886 -0.0229
12476SOL    HW148357   2.316   2.193   4.591  0.4357 -0.0549 -0.3166
12476SOL    HW248358   2.177   2.215   4.509 -0.0600  1.6036  0.9367
12477SOL     OW48359   3.103   7.396   0.207  0.0852  0.0322  0.1342
12477SOL    HW148360   3.134   7.341   0.284 -1.4375 -1.6548 -0.4471
12477SOL    HW248361   3.033   7.460   0.238  0.1185 -0.0167  0.3130
12478SOL     OW48362   8.052   9.163   5.186  0.1948  0.4342 -0.1089
12478SOL    HW148363   8.100   9.090   5.137  1.3981  0.6541  0.6957
12478SOL    HW248364   7.954   9.156   5.170  0.0634 -2.6766  1.6396
12479SOL     OW48365   5.891   0.515   3.411 -0.2967  0.3040 -0.3574
12479SOL    HW148366   5.847   0.482   3.494  2.5014 -0.9704  0.6978
12479SOL    HW248367   5.941   0.440   3.369  2.7314  2.1852 -0.2433
12480SOL     OW48368   8.775   8.711   1.232 -0.3596  0.0829 -0.1289
12480SOL    HW148369   8.759   8.612   1.222  0.9380 -0.1455 -0.0629
12480SOL    HW248370   8.809   8.730   1.324 -3.4042  0.9916  0.8602
12481SOL     OW48371   3.488   4.188   0.332 -0.2552  0.3798 -0.4582
12481SOL    HW148372   3.419   4.251   0.295  0.5077  1.0353 -0.7808
12481SOL    HW248373   3.566   4.184   0.270  1.5448  2.3497  1.5719
12482SOL     OW48374   5.634   1.767   2.912  0.5475 -0.3719  0.5752
12482SOL    HW148375   5.548   1.755   2.862 -0.0955 -0.1674  1.6235
12482SOL    HW248376   5.680   1.849   2.880 -0.4944  0.4673  1.2193
12483SOL     OW48377   4.257   9.593   1.306 -0.6469 -0.2732  0.8549
12483SOL    HW148378   4.255   9.688   1.336  0.3301 -0.3696  1.2354
12483SOL    HW248379   4.278   9.589   1.208  0.4967 -0.1522  1.0974
12484SOL     OW48380   1.616   5.709   5.912  0.0212  0.6590  0.3045
12484SOL    HW148381   1.696   5.723   5.969 -0.5383  1.1342  0.9826
12484SOL    HW248382   1.534   5.739   5.961 -0.4067  1.6108 -0.9655
12485SOL     OW48383   5.141   9.457   2.798  0.3098 -0.2016 -0.0968
12485SOL    HW148384   5.188   9.545   2.798 -0.3526  0.1779  1.7717
12485SOL    HW248385   5.046   9.471   2.769  0.2151 -0.3155  0.1633
12486SOL     OW48386   3.137   4.812   1.671  0.4245 -0.1675  0.1802
12486SOL    HW148387   3.196   4.816   1.751 -0.1443 -3.3827  0.8062
12486SOL    HW248388   3.041   4.818   1.699  0.3015  1.5600 -0.5360
12487SOL     OW48389   1.535   5.007   2.731 -0.1816  0.5444  0.3004
12487SOL    HW148390   1.628   4.993   2.766 -0.6303  0.1975  1.4010
12487SOL    HW248391   1.532   4.984   2.634  0.6840 -0.3308  0.4685
12488SOL     OW48392   8.169   5.880   3.496 -0.3490 -0.1528  0.0968
12488SOL    HW148393   8.189   5.823   3.416 -1.1412 -2.4948  1.5239
12488SOL    HW248394   8.118   5.961   3.467 -2.2493 -1.8997 -1.5568
12489SOL     OW48395   2.722   2.737   2.585 -0.5659 -0.2509  0.0618
12489SOL    HW148396   2.649   2.669   2.573  0.4980 -1.1423 -1.5193
12489SOL    HW248397   2.810   2.695   2.563  0.3247  1.0753  1.0829
12490SOL     OW48398   3.521   5.050   4.641 -0.8438 -0.0743  0.0209
12490SOL    HW148399   3.535   5.066   4.543 -0.7441  1.0610  0.2150
12490SOL    HW248400   3.610   5.044   4.687 -0.8861  1.7085  0.3930
12491SOL     OW48401   0.631   5.928   4.057  0.5539  0.3128  0.0008
12491SOL    HW148402   0.702   5.967   3.998  1.3062  0.2104  0.8278
12491SOL    HW248403   0.545   5.922   4.006  2.0206 -3.0364 -2.2313
12492SOL     OW48404   0.009   1.670   3.588  0.3418  0.0629  0.1153
12492SOL    HW148405  -0.001   1.616   3.671 -0.1139 -1.6832 -1.0605
12492SOL    HW248406  -0.016   1.615   3.509  0.0748  1.9320 -1.1340
12493SOL     OW48407   0.507   5.875   1.905  0.6499  0.2003 -0.2550
12493SOL    HW148408   0.591   5.831   1.937  0.4919 -1.1383 -1.6110
12493SOL    HW248409   0.436   5.805   1.893 -1.3557  1.5554  2.9066
12494SOL     OW48410   2.099   7.824   6.747 -0.6121 -0.1393  0.1141
12494SOL    HW148411   2.160   7.753   6.781 -0.9319 -0.2377  0.4863
12494SOL    HW248412   2.009   7.785   6.728 -1.0284  0.3312  1.0914
12495SOL     OW48413   8.964   6.059   1.571  0.1708 -0.4445 -0.4990
12495SOL    HW148414   9.047   6.069   1.515  0.4751  0.0866  0.0302
12495SOL    HW248415   8.886   6.097   1.522  0.3175 -0.5632 -0.8287
12496SOL     OW48416   6.746   2.055   4.020  0.3670  0.3724  0.1547
12496SOL    HW148417   6.689   2.121   3.970 -0.5673 -1.1490 -0.8329
12496SOL    HW248418   6.690   1.977   4.047  1.8198 -0.7792 -0.1335
12497SOL     OW48419   2.945   2.179   3.987  0.1017  0.0772  0.2405
12497SOL    HW148420   2.846   2.179   3.971  0.0282  0.7263  0.7027
12497SOL    HW248421   2.982   2.269   3.964  0.4262  0.1523  1.0618
12498SOL     OW48422   4.993   8.418   2.751 -0.2211 -0.3007  0.0069
12498SOL    HW148423   4.956   8.500   2.796  0.7712  0.1410  0.0238
12498SOL    HW248424   4.994   8.342   2.816 -2.2721 -0.6668 -0.3455
12499SOL     OW48425   7.429   9.771   2.231 -0.3917  0.8218 -0.3226
12499SOL    HW148426   7.389   9.698   2.286  0.8712  0.9100  0.7604
12499SOL    HW248427   7.358   9.837   2.207 -1.1730  0.2371  0.3250
12500SOL     OW48428   2.858   1.353   2.287 -0.3289  0.1864  0.7393
12500SOL    HW148429   2.906   1.433   2.325 -2.0735  1.8139 -0.3744
12500SOL    HW248430   2.769   1.382   2.252 -1.0764 -2.3270  0.5019
12501SOL     OW48431   2.277   1.552   2.792 -0.5912 -0.2376 -0.1025
12501SOL    HW148432   2.259   1.627   2.855 -1.0347 -1.1208  0.8415
12501SOL    HW248433   2.374   1.528   2.796 -0.5634 -0.1019  0.0340
12502SOL     OW48434   3.253   3.355   3.827  0.2178  0.8123  0.1748
12502SOL    HW148435   3.277   3.412   3.748 -0.4626  0.5171 -0.2515
12502SOL    HW248436   3.283   3.261   3.810 -2.4324  0.1196 -0.9883
12503SOL     OW48437   7.437   0.828   0.100 -0.0316 -0.3584  0.4760
12503SOL    HW148438   7.534   0.825   0.126  0.2228  0.1780 -0.3910
12503SOL    HW248439   7.426   0.886   0.020 -0.8413 -1.8350 -0.5000
12504SOL     OW48440   5.763   8.124   4.075  0.5253  0.0584 -0.1786
12504SOL    HW148441   5.740   8.079   4.162  1.4586  0.0255  0.0506
12504SOL    HW248442   5.685   8.117   4.013 -0.4520  0.8275  0.9514
12505SOL     OW48443   8.690   3.991   4.165  0.2501 -0.3554  0.1861
12505SOL    HW148444   8.675   4.069   4.104  2.5589 -0.5792 -0.6906
12505SOL    HW248445   8.603   3.968   4.210 -0.9756  1.2562 -1.2529
12506SOL     OW48446   8.179   4.812   0.434 -0.0734  0.2215  0.4149
12506SOL    HW148447   8.233   4.881   0.386  0.0712  1.8967  2.8846
12506SOL    HW248448   8.151   4.848   0.523 -1.2957 -2.3624  1.1181
12507SOL     OW48449   3.649   5.178   2.114 -0.3875  0.1425  0.0126
12507SOL    HW148450   3.556   5.141   2.106  0.2194 -1.3452 -0.2879
12507SOL    HW248451   3.690   5.186   2.024 -0.8281  2.4261 -0.0082
12508SOL     OW48452   8.604   5.878   6.306 -0.1716  0.2044  0.2096
12508SOL    HW148453   8.581   5.963   6.354 -0.4271 -0.1940  0.8037
12508SOL    HW248454   8.680   5.894   6.243 -0.5163  0.9764 -0.0073
12509SOL     OW48455   8.181   2.611   2.396 -0.0635  0.7414  0.5073
12509SOL    HW148456   8.217   2.701   2.422  0.5049  0.9349 -0.8692
12509SOL    HW248457   8.084   2.619   2.375 -0.1234  0.9362  0.8565
12510SOL     OW48458   9.623   0.603   0.710 -0.1522  0.3015 -0.0901
12510SOL    HW148459   9.668   0.634   0.794  2.1505  2.7076 -2.1402
12510SOL    HW248460   9.555   0.670   0.681  0.9482  0.7995 -1.5679
12511SOL     OW48461   9.916   9.632   1.549 -0.4446  0.1223  0.1344
12511SOL    HW148462   9.946   9.609   1.642 -0.4791 -1.8490 -0.3352
12511SOL    HW248463   9.860   9.715   1.552 -0.2478  0.2119  1.8368
12512SOL     OW48464   0.649   0.443   3.508  0.3514 -0.3917 -0.5612
12512SOL    HW148465   0.653   0.519   3.443  0.1500  0.6864  0.6487
12512SOL    HW248466   0.727   0.382   3.493  2.5667  2.0203  0.7550
12513SOL     OW48467   8.564   4.803   2.462 -0.0544  0.1485  0.1458
12513SOL    HW148468   8.646   4.749   2.438  0.2037  0.3801  0.5070
12513SOL    HW248469   8.569   4.830   2.558 -1.6143 -1.7044  0.7749
12514SOL     OW48470   5.320   1.833   4.589 -0.3776  0.0798 -0.1899
12514SOL    HW148471   5.321   1.745   4.542  1.5603  0.6714 -1.3393
12514SOL    HW248472   5.362   1.823   4.679  0.9133  0.0153 -0.7713
12515SOL     OW48473   4.876   7.595   2.620  0.5705  0.4467 -0.9866
12515SOL    HW148474   4.780   7.604   2.648  1.5946  2.1929  2.3179
12515SOL    HW248475   4.907   7.501   2.638  0.0854  0.4872  0.1434
12516SOL     OW48476   8.359   0.199   5.412  0.2311 -0.0743  0.2206
12516SOL    HW148477   8.334   0.153   5.327  0.4993 -3.3096  1.8193
12516SOL    HW248478   8.457   0.218   5.413  0.1733  0.2706 -0.2896
12517SOL     OW48479   3.932   2.988   4.518  0.2066 -0.4820  0.2070
12517SOL    HW148480   4.024   2.950   4.505  0.4443  0.1497  0.0306
12517SOL    HW248481   3.919   3.064   4.454 -0.0313  0.1533  1.0096
12518SOL     OW48482   3.655   0.762   0.899  0.0973 -0.5041  0.8123
12518SOL    HW148483   3.656   0.709   0.814  3.7913 -0.1125  0.5018
12518SOL    HW248484   3.666   0.701   0.977 -2.5618 -0.7894  1.0165
12519SOL     OW48485   7.376   0.268   4.274  0.1521  0.3890 -0.1532
12519SOL    HW148486   7.287   0.298   4.308 -0.3853 -0.0220 -1.1840
12519SOL    HW248487   7.364   0.211   4.193  1.3612  0.3782 -0.3420
12520SOL     OW48488   3.561   9.028   3.926 -0.1225  0.6023 -0.2580
12520SOL    HW148489   3.494   9.004   3.997 -1.1326 -1.0483 -1.7447
12520SOL    HW248490   3.653   9.025   3.965 -0.7104  0.3149  1.1394
12521SOL     OW48491   1.112   1.159   1.641  0.3804 -0.4404 -0.0378
12521SOL    HW148492   1.018   1.185   1.621  0.0807 -0.9923  0.6450
12521SOL    HW248493   1.172   1.237   1.623  0.1709 -0.9500 -3.2156
12522SOL     OW48494   7.427   9.192   3.978 -0.2020  0.2920  0.1177
12522SOL    HW148495   7.418   9.238   3.889 -0.7032 -1.6791 -0.9085
12522SOL    HW248496   7.335   9.170   4.013  0.0228  0.1292  0.6059
12523SOL     OW48497   6.536   0.089   3.779 -0.0045  0.3709  0.0128
12523SOL    HW148498   6.457   0.027   3.781  0.0057  0.3931  1.6117
12523SOL    HW248499   6.530   0.153   3.856  0.8873  1.2384 -0.6270
12524SOL     OW48500   9.488   4.556   3.218 -0.0705  0.7449 -0.1428
12524SOL    HW148501   9.452   4.472   3.259 -0.0718  0.4762 -0.6853
12524SOL    HW248502   9.467   4.556   3.120 -1.2036  1.9768  0.0958
12525SOL     OW48503   9.489   8.106   1.823  0.0419 -0.2137  0.9700
12525SOL    HW148504   9.436   8.054   1.755  1.1185 -1.1953  0.8638
12525SOL    HW248505   9.490   8.056   1.909  0.8820 -0.2470  0.9405
12526SOL     OW48506   4.153   4.757   2.664 -0.2591  0.2090 -0.0538
12526SOL    HW148507   4.169   4.659   2.676 -2.0514  0.0517  1.1383
12526SOL    HW248508   4.096   4.773   2.584  3.0919  0.5730 -2.4838
12527SOL     OW48509   1.953   4.251   4.630  0.4275 -0.4841 -1.0078
12527SOL    HW148510   1.870   4.266   4.683  0.9223  0.3380 -0.4543
12527SOL    HW248511   1.930   4.204   4.545 -0.3557 -1.9456 -0.0076
12528SOL     OW48512   8.180   5.001   1.850 -0.1243  0.0935  0.4020
12528SOL    HW148513   8.224   4.993   1.761 -1.0358  3.1143 -0.3703
12528SOL    HW248514   8.251   5.014   1.920  0.5159 -1.0343 -0.0132
12529SOL     OW48515   7.854   0.892   1.104  0.2440 -0.4329  0.3781
12529SOL    HW148516   7.840   0.927   1.197 -0.3924  0.0545  0.0935
12529SOL    HW248517   7.842   0.793   1.104  0.3506 -0.4472  0.8348
12530SOL     OW48518   8.380   1.302   3.919  0.1167 -0.6645  0.0742
12530SOL    HW148519   8.435   1.338   3.844  1.9309  0.6746  1.9798
12530SOL    HW248520   8.433   1.305   4.004 -2.7979  0.4822  1.9471
12531SOL     OW48521   3.639   5.627   5.423 -0.1766 -0.1554 -0.1687
12531SOL    HW148522   3.693   5.707   5.398 -0.2344 -0.0088  0.1699
12531SOL    HW248523   3.639   5.562   5.348  0.7500 -0.3056 -0.0454
12532SOL     OW48524   4.618   5.487   1.559  0.0960  0.1928  0.1166
12532SOL    HW148525   4.714   5.461   1.559 -0.2523 -1.2039 -1.0919
12532SOL    HW248526   4.607   5.578   1.600  1.8940  0.2738  0.4356
12533SOL     OW48527   8.249   5.868   0.116  1.0176  0.6043 -0.0784
12533SOL    HW148528   8.268   5.777   0.080 -1.6106 -0.1804  0.4295
12533SOL    HW248529   8.276   5.873   0.212 -1.1984 -0.4930  0.6330
12534SOL     OW48530   3.064   8.297   1.794  0.2264  0.1905 -0.8038
12534SOL    HW148531   3.084   8.255   1.706  0.2423 -1.4739 -0.0258
12534SOL    HW248532   3.139   8.357   1.820  1.8612 -1.9916 -0.3168
12535SOL     OW48533   8.778   0.947   1.907  0.8932  0.1378  0.2731
12535SOL    HW148534   8.866   0.976   1.945  1.3655 -1.8007  0.7331
12535SOL    HW248535   8.752   0.859   1.947 -0.8818  0.3146 -0.4482
12536SOL     OW48536   0.279   6.325   1.065 -0.0613 -0.6337 -0.5598
12536SOL    HW148537   0.232   6.298   0.981 -1.3226  0.0310 -0.0855
12536SOL    HW248538   0.353   6.389   1.042 -0.3610 -0.4977 -1.1738
12537SOL     OW48539   7.578   2.698   1.304  0.3615  0.6159 -0.7524
12537SOL    HW148540   7.540   2.777   1.351  0.1101  0.7671 -1.2097
12537SOL    HW248541   7.648   2.655   1.362 -0.8194  0.0589  0.2915
12538SOL     OW48542   0.258   7.161   5.700 -1.4416 -0.1944  0.1113
12538SOL    HW148543   0.228   7.248   5.661  1.3337  0.3035 -1.0413
12538SOL    HW248544   0.286   7.099   5.627  2.4482  0.2206  1.0904
12539SOL     OW48545   3.395   5.952   0.008 -0.4819 -0.5106 -1.0768
12539SOL    HW148546   3.472   6.015  -0.005 -0.2441 -1.3318 -3.9618
12539SOL    HW248547   3.315   6.003   0.040  1.1014  0.4164  1.5018
12540SOL     OW48548   7.493   8.199   3.641  0.0501  0.1940  0.0513
12540SOL    HW148549   7.468   8.113   3.596  1.1459  0.0663 -0.3471
12540SOL    HW248550   7.563   8.246   3.587  0.1202  0.8878  0.7323
12541SOL     OW48551   1.936   1.774   4.442 -0.0719  0.2464  0.3437
12541SOL    HW148552   1.973   1.729   4.361  0.5151 -0.5823  1.0584
12541SOL    HW248553   1.976   1.865   4.452  0.5821 -0.0311  0.2370
12542SOL     OW48554   4.730   7.721   1.223  0.3609 -0.1655  0.0726
12542SOL    HW148555   4.681   7.801   1.187 -0.0844 -1.1469 -1.5280
12542SOL    HW248556   4.761   7.740   1.316  0.4787  1.9732 -0.3809
12543SOL     OW48557   1.508   5.278   3.370 -0.1346  0.2523  0.2630
12543SOL    HW148558   1.474   5.327   3.289 -0.1895  1.5702  1.0692
12543SOL    HW248559   1.583   5.330   3.410 -1.3246  0.5638  2.1382
12544SOL     OW48560   3.623   6.513   1.032  0.3401 -0.4686  0.1346
12544SOL    HW148561   3.571   6.428   1.027 -0.4890  0.0032  0.5996
12544SOL    HW248562   3.712   6.495   1.073  0.2736 -1.1549 -0.0093
12545SOL     OW48563   8.888   3.847   2.526  0.2063  0.4740  0.8617
12545SOL    HW148564   8.907   3.749   2.534 -2.1642 -0.0269  0.5602
12545SOL    HW248565   8.897   3.875   2.431 -0.3842  0.2698  0.7443
12546SOL     OW48566   2.341   8.284   1.288 -0.6100  0.4463 -0.1261
12546SOL    HW148567   2.295   8.362   1.245 -0.4719 -0.2441 -1.5675
12546SOL    HW248568   2.440   8.291   1.272 -0.3614  1.0690  1.5598
12547SOL     OW48569   7.120   2.344   0.685  0.4072  0.1633  0.3569
12547SOL    HW148570   7.216   2.347   0.713  0.4225  0.7515  0.2453
12547SOL    HW248571   7.087   2.250   0.690  0.2449  0.3192  2.9372
12548SOL     OW48572   1.762   1.011   1.918  0.1654 -0.2818  0.1543
12548SOL    HW148573   1.786   1.036   2.012  1.8741 -0.8375 -0.1249
12548SOL    HW248574   1.826   0.942   1.884  1.2271  1.8509 -2.3498
12549SOL     OW48575   5.340   3.528   6.228  0.0638 -0.5068 -0.0860
12549SOL    HW148576   5.286   3.456   6.272  0.2867 -0.6967 -0.1232
12549SOL    HW248577   5.435   3.520   6.255  0.4725 -1.5207 -1.7100
12550SOL     OW48578   4.155   4.542   4.566  0.1772 -0.6636 -0.0072
12550SOL    HW148579   4.075   4.528   4.507  0.7262 -0.7120 -0.7555
12550SOL    HW248580   4.125   4.560   4.659 -0.7611  1.2950 -0.6637
12551SOL     OW48581   9.499   7.441   3.649  0.1816  0.4019  0.6131
12551SOL    HW148582   9.466   7.386   3.572  0.8658  0.8811 -0.0276
12551SOL    HW248583   9.571   7.390   3.697  0.2225  0.3828  0.5325
12552SOL     OW48584   0.406   7.094   4.465 -0.6150 -0.0246 -0.5416
12552SOL    HW148585   0.432   7.167   4.401  0.9799 -1.1896 -1.2460
12552SOL    HW248586   0.329   7.125   4.521 -0.8635  1.6786 -1.7898
12553SOL     OW48587   5.263   9.286   3.924  0.3500  0.0552 -0.1485
12553SOL    HW148588   5.334   9.270   3.855 -0.4213 -0.5857 -0.8137
12553SOL    HW248589   5.303   9.285   4.015  1.1014 -0.8562 -0.4888
12554SOL     OW48590   9.779   1.998   2.996 -0.5878  0.5397 -0.1969
12554SOL    HW148591   9.738   2.002   2.905  0.7942  2.6441 -0.7664
12554SOL    HW248592   9.796   2.091   3.029 -2.1484 -0.1543  2.7345
12555SOL     OW48593   1.682   1.093   4.670  0.1312 -0.0582  0.2448
12555SOL    HW148594   1.747   1.127   4.738 -0.0845  1.5218 -0.3121
12555SOL    HW248595   1.635   1.170   4.627 -1.9674 -1.1422  0.4767
12556SOL     OW48596   0.410   5.383   1.565  0.0509 -0.2075  0.0689
12556SOL    HW148597   0.396   5.419   1.657 -1.4108  0.4882 -0.4155
12556SOL    HW248598   0.377   5.288   1.561 -0.0052 -0.1945  0.2228
12557SOL     OW48599   9.366   0.729   3.794 -0.1251  0.3302 -0.6556
12557SOL    HW148600   9.314   0.644   3.793 -1.9419  1.4269 -1.6445
12557SOL    HW248601   9.353   0.778   3.707  1.8385  1.0728 -0.5702
12558SOL     OW48602   9.964   5.056   1.533  0.1679  0.1808 -0.2667
12558SOL    HW148603  10.052   5.071   1.489  0.8919 -0.3665  0.9563
12558SOL    HW248604   9.964   4.965   1.576 -1.2137 -0.0690 -0.7877
12559SOL     OW48605   4.849   4.331   3.347  0.2371 -0.3034 -0.4119
12559SOL    HW148606   4.916   4.398   3.380 -0.2238  0.1527 -0.3982
12559SOL    HW248607   4.895   4.245   3.327  0.9713  0.2564 -1.1709
12560SOL     OW48608   3.177   6.116   0.049  0.3237  0.0187 -0.5955
12560SOL    HW148609   3.179   6.208   0.011  0.8837 -0.2524 -1.2382
12560SOL    HW248610   3.094   6.069   0.019  0.3697  0.0815 -0.8220
12561SOL     OW48611   4.222   5.231   0.751  0.4646  0.0559  0.0996
12561SOL    HW148612   4.249   5.305   0.813  0.8287  0.2659 -0.3072
12561SOL    HW248613   4.297   5.211   0.688  0.8251 -1.4910  0.9899
12562SOL     OW48614   9.414   3.632   3.492 -0.1010  0.3366  0.1084
12562SOL    HW148615   9.403   3.578   3.576  0.9898  0.5758  0.4224
12562SOL    HW248616   9.324   3.656   3.456 -0.5887  0.3028  1.2602
12563SOL     OW48617   3.503   9.703   2.623  0.2255 -0.1039 -0.2739
12563SOL    HW148618   3.560   9.702   2.541  0.2149  0.9773 -0.3078
12563SOL    HW248619   3.441   9.782   2.620 -0.5727 -0.6969  0.2340
12564SOL     OW48620   4.743   6.510   2.984  0.4838 -0.6625 -0.6721
12564SOL    HW148621   4.720   6.420   2.948  3.1544 -1.3264 -0.7799
12564SOL    HW248622   4.742   6.577   2.910 -1.0839 -0.6521 -0.6651
12565SOL     OW48623   9.623   3.373   2.459  0.0575 -0.2922  0.4689
12565SOL    HW148624   9.699   3.416   2.410 -1.0777  1.9492  0.6254
12565SOL    HW248625   9.538   3.387   2.408 -0.7626  0.0185  1.9035
12566SOL     OW48626   7.402   9.598   4.667  0.3030 -0.0160 -0.9358
12566SOL    HW148627   7.456   9.670   4.712  0.3003  0.0051 -0.9662
12566SOL    HW248628   7.412   9.606   4.568  0.3380 -0.0859 -0.9375
12567SOL     OW48629   3.834   9.498   1.477  0.3733 -1.0007 -0.0642
12567SOL    HW148630   3.889   9.427   1.433  2.3867 -0.1238  0.9941
12567SOL    HW248631   3.834   9.483   1.576  0.4622  0.2527  0.1219
12568SOL     OW48632   0.860   2.172   4.673 -0.0814  0.0194  0.4968
12568SOL    HW148633   0.951   2.140   4.646  0.1678 -0.1372  1.4953
12568SOL    HW248634   0.851   2.269   4.651  0.8533  0.3879  1.7158
12569SOL     OW48635   8.313   6.190   3.808  0.1082  0.0842 -0.0365
12569SOL    HW148636   8.385   6.152   3.749 -0.1339 -1.1217  0.4293
12569SOL    HW248637   8.355   6.244   3.881  0.5050 -0.0295 -0.1801
12570SOL     OW48638   0.205   5.838   0.210  0.0683 -0.7872 -0.8237
12570SOL    HW148639   0.279   5.881   0.263 -0.0184 -1.0222 -0.5056
12570SOL    HW248640   0.125   5.898   0.209  0.0333 -0.8270 -0.5902
12571SOL     OW48641   5.487   7.595   5.382  0.1462  0.7122  0.3490
12571SOL    HW148642   5.492   7.537   5.464  1.3827  1.3874  0.7668
12571SOL    HW248643   5.506   7.689   5.407  0.5121  0.9310 -0.7207
12572SOL     OW48644   9.735   1.480   0.838  0.4296  0.3277 -0.0150
12572SOL    HW148645   9.709   1.570   0.873 -3.0178 -0.0731 -1.3150
12572SOL    HW248646   9.687   1.409   0.889  2.0516 -0.7315  0.0782
12573SOL     OW48647   5.055   3.122   4.146 -0.8409 -0.5551  0.0617
12573SOL    HW148648   5.038   3.025   4.166  0.8437 -0.6111  1.4072
12573SOL    HW248649   5.066   3.172   4.233 -1.1017  0.7151 -0.6306
12574SOL     OW48650   1.115   8.276   0.283 -0.1803  0.4562  0.0063
12574SOL    HW148651   1.021   8.258   0.312 -0.1269 -1.0398 -0.7351
12574SOL    HW248652   1.179   8.239   0.350 -0.0934 -1.0261 -0.8675
12575SOL     OW48653   9.536   3.815   0.793  0.1630 -0.1698  0.1879
12575SOL    HW148654   9.600   3.880   0.752  0.2924 -0.5670 -0.2489
12575SOL    HW248655   9.442   3.839   0.767  0.3083 -0.9600 -1.1208
12576SOL     OW48656   4.043   4.490   1.121 -0.0094 -0.5629  0.2837
12576SOL    HW148657   4.110   4.437   1.172  0.8037  0.5337  0.3911
12576SOL    HW248658   3.957   4.439   1.114  0.6318 -1.7151  0.6887
12577SOL     OW48659   4.496   2.422   3.756 -0.1275  0.6482  0.0497
12577SOL    HW148660   4.448   2.473   3.828 -1.4821 -0.4899 -0.0563
12577SOL    HW248661   4.585   2.393   3.791 -0.0692  1.5616  0.6980
12578SOL     OW48662   8.032   1.659   4.701  0.1152  0.2159 -0.1457
12578SOL    HW148663   8.076   1.581   4.658 -1.4873 -1.4901  1.2014
12578SOL    HW248664   7.935   1.661   4.675 -0.6276 -0.2014  2.4036
12579SOL     OW48665   1.279   5.633   3.556  0.0821  0.5165 -0.2673
12579SOL    HW148666   1.373   5.664   3.540 -0.6293  2.6988 -0.4571
12579SOL    HW248667   1.217   5.687   3.499 -1.0677 -2.7736 -2.2146
12580SOL     OW48668   9.012   6.923   0.217  0.1528 -0.2571 -0.3199
12580SOL    HW148669   9.088   6.860   0.233  0.1245 -0.2519 -0.1676
12580SOL    HW248670   8.930   6.871   0.194  0.9335 -0.1599 -3.5245
12581SOL     OW48671   8.209   9.801   1.432  0.3619 -0.7147  0.5129
12581SOL    HW148672   8.130   9.849   1.472  0.2672 -1.7146  1.5535
12581SOL    HW248673   8.215   9.710   1.472  1.2151 -1.1505 -0.6205
12582SOL     OW48674   7.326   9.637   4.999 -0.1198  0.2471  0.3173
12582SOL    HW148675   7.345   9.542   5.024 -1.5346 -0.1736 -0.1245
12582SOL    HW248676   7.325   9.646   4.900 -0.4481  0.6184  0.3519
12583SOL     OW48677   4.077   9.870   2.638 -0.2749 -0.2344 -0.3177
12583SOL    HW148678   3.998   9.913   2.682 -1.3255 -0.2791 -2.1547
12583SOL    HW248679   4.061   9.772   2.628  0.0149 -0.2464 -0.6909
12584SOL     OW48680   8.669   6.431   0.901 -0.3279 -0.7132 -0.7191
12584SOL    HW148681   8.701   6.350   0.949  3.3042  1.6551  1.0838
12584SOL    HW248682   8.604   6.480   0.958 -0.3856 -0.8881 -0.6343
12585SOL     OW48683   6.193   8.502   3.181 -0.3687 -0.2375 -0.0691
12585SOL    HW148684   6.223   8.485   3.275 -1.7046  1.8130  0.7719
12585SOL    HW248685   6.270   8.494   3.118  0.6016 -1.2812  1.2405
12586SOL     OW48686   9.804   8.196   3.693  0.1591  0.2597 -0.0109
12586SOL    HW148687   9.887   8.145   3.717  2.0391  2.9319 -0.6813
12586SOL    HW248688   9.740   8.193   3.770  1.4047 -0.7274  1.0131
12587SOL     OW48689   0.696   4.484   3.204 -0.3915  0.1947  0.0895
12587SOL    HW148690   0.621   4.419   3.188 -1.9413  1.7192  0.9872
12587SOL    HW248691   0.708   4.541   3.123  0.5605 -0.7849 -0.4703
12588SOL     OW48692   2.976   0.524   3.044  0.0172  0.8767 -0.5161
12588SOL    HW148693   2.937   0.568   2.963  0.2752  2.5806  0.2429
12588SOL    HW248694   3.075   0.527   3.040  0.0381  0.3055 -0.4787
12589SOL     OW48695   3.022   4.118   3.874  0.0350 -0.4860 -0.0060
12589SOL    HW148696   3.061   4.206   3.901 -0.9077 -0.3992  1.0969
12589SOL    HW248697   3.095   4.049   3.874  0.5236  0.0237  0.3671
12590SOL     OW48698   0.479   0.435   0.890  0.3572 -0.1093  0.0825
12590SOL    HW148699   0.423   0.370   0.837 -0.2554  0.2135  0.3277
12590SOL    HW248700   0.473   0.526   0.849 -2.4779  0.7983  2.3368
12591SOL     OW48701   0.368   6.798   1.262  0.1478  0.0049  0.1648
12591SOL    HW148702   0.354   6.826   1.357  0.9581  1.7551 -0.2023
12591SOL    HW248703   0.279   6.782   1.219 -0.1955 -2.0099  1.5322
12592SOL     OW48704   5.935   9.985   4.421 -0.0193  0.0022 -0.1548
12592SOL    HW148705   5.989   9.902   4.431 -0.8177 -0.4136  0.8335
12592SOL    HW248706   5.853   9.965   4.366  0.2277  0.3440 -0.6507
12593SOL     OW48707   3.419   5.055   6.716 -0.1354  0.0303  0.3528
12593SOL    HW148708   3.478   5.125   6.756 -1.0559  1.9658 -1.5931
12593SOL    HW248709   3.378   5.090   6.632 -1.1275 -2.6307 -0.3192
12594SOL     OW48710   5.247   1.300   2.187 -0.0445  0.1656  0.0278
12594SOL    HW148711   5.292   1.269   2.103  0.6984 -1.2423  0.9317
12594SOL    HW248712   5.157   1.337   2.164 -0.0525 -0.6371 -1.3342
12595SOL     OW48713   1.280   9.846   2.086  0.4413 -0.5084  0.0579
12595SOL    HW148714   1.318   9.834   2.177  0.3574 -0.7644  0.0585
12595SOL    HW248715   1.274   9.757   2.040 -1.0301 -0.6074  0.4049
12596SOL     OW48716   4.957   1.780   1.611 -0.0718 -0.8525  0.5911
12596SOL    HW148717   4.883   1.792   1.678 -2.0026  0.0634 -1.6293
12596SOL    HW248718   5.016   1.861   1.612 -0.6954 -0.3897  0.4771
12597SOL     OW48719   2.415   1.872   2.857  0.1205 -0.2669 -0.5982
12597SOL    HW148720   2.333   1.816   2.874 -0.2303 -0.3776 -2.5051
12597SOL    HW248721   2.387   1.964   2.831  0.5898 -0.3188 -1.3059
12598SOL     OW48722   3.843   6.094   3.609  0.3813  0.6761 -0.3558
12598SOL    HW148723   3.849   6.086   3.510 -1.8026  2.4038 -0.6598
12598SOL    HW248724   3.913   6.158   3.642 -0.3433  1.8335 -1.0440
12599SOL     OW48725   1.760   9.929   2.295  0.7328 -0.3993 -0.2299
12599SOL    HW148726   1.666   9.963   2.308  0.8802  0.3087 -0.9250
12599SOL    HW248727   1.763   9.832   2.316 -0.0893 -0.3573  0.1283
12600SOL     OW48728   1.403   4.797   4.956 -0.1221 -0.7560 -0.1418
12600SOL    HW148729   1.303   4.805   4.952 -0.0522 -0.4583 -1.4884
12600SOL    HW248730   1.433   4.724   4.893  0.6122  0.0842 -0.7731
12601SOL     OW48731   8.517   2.524   2.719 -0.2085  0.1033  0.1593
12601SOL    HW148732   8.447   2.575   2.770 -1.0092 -0.9419  0.1198
12601SOL    HW248733   8.504   2.539   2.621 -1.6681 -1.6901  0.0421
12602SOL     OW48734   1.332   0.178   3.428 -0.1117  0.8314  0.2877
12602SOL    HW148735   1.276   0.254   3.394 -1.1159  1.0992  2.4708
12602SOL    HW248736   1.428   0.204   3.425 -0.3283  1.5891 -0.4832
12603SOL     OW48737   7.775   8.689   3.462 -0.2881  0.2453  0.0930
12603SOL    HW148738   7.786   8.788   3.461  2.2905 -0.0192 -0.7574
12603SOL    HW248739   7.704   8.663   3.396 -0.9909  1.5079  0.3341
12604SOL     OW48740   2.653   5.172   3.390 -0.9781 -0.2321 -0.4197
12604SOL    HW148741   2.667   5.249   3.328 -2.4854 -0.0108 -0.5093
12604SOL    HW248742   2.556   5.168   3.416 -0.7849 -1.6951  0.0950
12605SOL     OW48743   1.689   8.393   3.508 -0.2201 -0.0884 -0.0383
12605SOL    HW148744   1.667   8.477   3.557 -1.0174  0.7448 -1.7845
12605SOL    HW248745   1.751   8.413   3.433 -1.3204 -0.8613 -1.1759
12606SOL     OW48746   4.359   0.355   1.804 -0.1091  0.2918  0.4673
12606SOL    HW148747   4.327   0.425   1.868 -0.6863 -0.0107  0.5208
12606SOL    HW248748   4.398   0.399   1.723  0.3827  0.6737  0.9143
12607SOL     OW48749   6.667   0.422   3.024 -0.5445 -0.2614 -0.3517
12607SOL    HW148750   6.645   0.333   3.064 -2.1704  0.7726  1.1030
12607SOL    HW248751   6.741   0.411   2.958 -0.7275 -2.6936 -0.1989
12608SOL     OW48752   7.494   1.224   1.567  0.0656  0.3026  0.5888
12608SOL    HW148753   7.399   1.255   1.559 -0.1064 -0.4533 -0.4601
12608SOL    HW248754   7.542   1.281   1.633 -0.9778  1.0325  0.7373
12609SOL     OW48755   1.401   5.953   4.447  1.3098  0.0289  0.7541
12609SOL    HW148756   1.420   5.941   4.350  2.7771  0.2300  1.0053
12609SOL    HW248757   1.409   5.865   4.494 -2.7239 -0.7514  0.1864
12610SOL     OW48758   2.753   5.187   1.527 -0.4461  0.0395  0.0298
12610SOL    HW148759   2.709   5.103   1.560  1.1893 -1.0264 -0.4517
12610SOL    HW248760   2.819   5.164   1.455  0.7717  1.6313  0.6161
12611SOL     OW48761   4.522   4.299   3.577 -0.3482  0.4282 -0.1485
12611SOL    HW148762   4.488   4.292   3.671 -0.9035 -0.0512 -0.3810
12611SOL    HW248763   4.621   4.289   3.577 -0.1905  1.8240  0.5336
12612SOL     OW48764   6.484   0.787   2.379  0.2166 -1.0042 -0.1689
12612SOL    HW148765   6.522   0.773   2.471  0.5465 -0.1450 -0.1675
12612SOL    HW248766   6.513   0.713   2.319  2.2756 -0.1466 -0.2854
12613SOL     OW48767   6.665   9.035   1.940  0.0130  0.4611 -0.6942
12613SOL    HW148768   6.697   9.051   2.033  0.4746  0.4459 -0.8488
12613SOL    HW248769   6.742   9.042   1.877 -0.5720  2.1244 -1.2690
12614SOL     OW48770   7.817   2.702   2.184 -0.1579 -0.3353 -0.1478
12614SOL    HW148771   7.745   2.751   2.232 -1.6345 -0.7099 -1.9051
12614SOL    HW248772   7.855   2.761   2.112  1.5977  0.0051  1.0249
12615SOL     OW48773   0.470   3.257   5.037  0.0237 -0.6206 -0.0299
12615SOL    HW148774   0.398   3.270   4.970  1.2194  0.9644 -1.0516
12615SOL    HW248775   0.499   3.161   5.038 -2.3339 -1.3643  0.6831
12616SOL     OW48776   9.519   5.505   2.767 -0.4102 -0.5182 -0.1241
12616SOL    HW148777   9.546   5.518   2.862  1.0431 -2.0982 -0.2973
12616SOL    HW248778   9.573   5.565   2.709  1.2488 -2.1124 -0.2649
12617SOL     OW48779   2.874   5.060   2.405 -0.2876 -0.4225  0.0767
12617SOL    HW148780   2.883   5.094   2.311 -2.1176 -0.5682 -0.1620
12617SOL    HW248781   2.907   5.130   2.468  0.4691 -0.1155 -0.6358
12618SOL     OW48782   2.117   4.086   4.244 -0.3073 -0.2432  0.1801
12618SOL    HW148783   2.193   4.103   4.181 -0.1709  0.2883  0.4940
12618SOL    HW248784   2.144   4.109   4.337 -0.1988 -1.9122  0.5801
12619SOL     OW48785   8.599   6.845   3.793  0.3226 -0.2852  0.0769
12619SOL    HW148786   8.509   6.875   3.762 -0.2301 -2.1041 -0.1207
12619SOL    HW248787   8.657   6.825   3.714  0.2343 -1.0519  0.2027
12620SOL     OW48788   0.083   6.901   6.337 -0.0661  0.6119 -0.0279
12620SOL    HW148789   0.172   6.930   6.302  0.9223 -1.6923  0.5065
12620SOL    HW248790   0.084   6.803   6.355 -3.4491  0.1136 -2.1551
12621SOL     OW48791   3.177   3.869   3.859 -0.5138 -0.2590 -0.0480
12621SOL    HW148792   3.217   3.802   3.797 -0.1149 -0.3341  0.2910
12621SOL    HW248793   3.217   3.859   3.950  0.2714  1.0823 -0.2390
12622SOL     OW48794   1.488   6.051   6.119  0.1521 -0.3465 -0.8021
12622SOL    HW148795   1.518   6.113   6.192  0.3515  0.3807 -1.4934
12622SOL    HW248796   1.509   6.092   6.030 -2.7312  0.0812 -1.3132
12623SOL     OW48797   4.192   7.551   2.838 -0.1669  0.1459 -0.1049
12623SOL    HW148798   4.159   7.541   2.932 -1.1851  0.4914 -0.4144
12623SOL    HW248799   4.124   7.514   2.775  0.1469  0.6532 -0.7465
12624SOL     OW48800   8.358   5.150   2.031 -0.4834  0.4399  0.1505
12624SOL    HW148801   8.447   5.169   1.990 -0.9479  0.0282 -1.0656
12624SOL    HW248802   8.367   5.149   2.131  0.3305  3.0234  0.1287
12625SOL     OW48803   0.394   2.575   4.196  0.0991 -0.2623 -0.5515
12625SOL    HW148804   0.481   2.529   4.218 -0.4855 -1.6622 -1.0977
12625SOL    HW248805   0.357   2.537   4.112 -0.7036  0.8373 -0.6999
12626SOL     OW48806   3.522   4.843   6.116 -0.2810  0.4934  0.1198
12626SOL    HW148807   3.481   4.867   6.204 -0.5254  1.2199 -0.1905
12626SOL    HW248808   3.621   4.833   6.127 -0.2935  0.7364  0.4414
12627SOL     OW48809   0.456   7.337   6.664 -0.6734 -0.1414 -0.1273
12627SOL    HW148810   0.373   7.384   6.635 -0.0364  0.8952 -0.2967
12627SOL    HW248811   0.536   7.395   6.645 -0.0597 -0.3865  1.6534
12628SOL     OW48812   7.093   7.935   1.950 -0.1069 -0.1001  0.6592
12628SOL    HW148813   7.177   7.985   1.973  0.6060 -1.6941  1.6486
12628SOL    HW248814   7.116   7.859   1.888 -0.5731 -1.4517  2.1239
12629SOL     OW48815   9.878   7.801   4.868  0.1699  0.2448  0.2344
12629SOL    HW148816   9.783   7.810   4.896 -0.4253 -1.3374 -1.1830
12629SOL    HW248817   9.895   7.708   4.837  2.1095  0.5911  0.1936
12630SOL     OW48818   9.980   3.796   5.286 -0.1039  0.0194  0.2361
12630SOL    HW148819   9.911   3.725   5.268 -1.4536  1.7423 -1.5772
12630SOL    HW248820   9.935   3.880   5.314  1.2102  1.3336 -1.4984
12631SOL     OW48821   1.561   9.531   1.363  0.3635 -0.2335 -0.1324
12631SOL    HW148822   1.599   9.571   1.446  0.7222 -0.5119 -0.1630
12631SOL    HW248823   1.463   9.512   1.377  0.5002 -0.5966  0.3434
12632SOL     OW48824   5.846   1.811   0.945  0.0718 -0.0043 -0.5494
12632SOL    HW148825   5.945   1.818   0.934  0.0146 -0.2467 -1.2024
12632SOL    HW248826   5.822   1.716   0.962 -0.1159 -0.0440 -1.0367
12633SOL     OW48827   0.379   6.190   2.540 -0.4748  0.8856 -0.0188
12633SOL    HW148828   0.315   6.214   2.468 -0.5010  1.7928  0.2951
12633SOL    HW248829   0.348   6.229   2.627  0.3537  1.1134  0.1861
12634SOL     OW48830   5.439   1.687   2.727 -1.2232 -0.1987 -0.0479
12634SOL    HW148831   5.353   1.735   2.743 -1.4825 -1.0913  1.3337
12634SOL    HW248832   5.419   1.596   2.690 -0.7890  0.2154 -1.3366
12635SOL     OW48833   3.100   5.612   5.473  0.2491 -0.1178 -0.1163
12635SOL    HW148834   3.180   5.670   5.489 -1.3343  1.3072  3.0333
12635SOL    HW248835   3.086   5.552   5.552 -2.7700  0.8821  0.1635
12636SOL     OW48836   8.389   7.378   3.109  0.7038 -0.1052 -0.7913
12636SOL    HW148837   8.367   7.442   3.035 -0.1309 -1.0245 -1.3476
12636SOL    HW248838   8.333   7.400   3.189  0.4191 -0.1415 -0.9810
12637SOL     OW48839   0.986   9.488   3.856 -0.5041 -0.1886  0.1571
12637SOL    HW148840   1.044   9.564   3.827 -0.9077 -0.0021 -0.1687
12637SOL    HW248841   0.910   9.523   3.911 -0.0208 -0.4891  1.0228
12638SOL     OW48842   1.861   4.235   2.591  0.3964  0.2103  0.1204
12638SOL    HW148843   1.771   4.234   2.635  0.3211 -0.4369 -0.0582
12638SOL    HW248844   1.921   4.298   2.641  0.6678 -1.4046  1.8913
12639SOL     OW48845   5.517   7.273   2.457  0.0040  0.1875 -0.5287
12639SOL    HW148846   5.456   7.226   2.394 -1.1007  0.3710  0.4065
12639SOL    HW248847   5.540   7.363   2.421 -0.7565  0.3547 -0.5845
12640SOL     OW48848   1.123   0.156   3.107 -0.4044  0.2776 -0.6893
12640SOL    HW148849   1.148   0.216   3.184  0.7656 -0.2154 -0.6795
12640SOL    HW248850   1.050   0.094   3.136 -0.3494  0.4628 -0.1401
12641SOL     OW48851   8.505   6.200   0.817  0.2549  0.4955  0.2397
12641SOL    HW148852   8.601   6.213   0.841  1.0495 -0.8895 -2.0097
12641SOL    HW248853   8.478   6.266   0.748 -0.0434  0.0600 -0.0643
12642SOL     OW48854   3.024   8.986   2.512 -0.2747 -0.1794  0.1952
12642SOL    HW148855   2.935   8.969   2.554  0.5309 -0.1928  1.9353
12642SOL    HW248856   3.037   9.084   2.498 -0.4628 -0.1560  0.1806
12643SOL     OW48857   8.115   0.121   1.721  0.6037 -0.2436  0.0087
12643SOL    HW148858   8.201   0.095   1.677  0.2670 -0.3996 -0.5704
12643SOL    HW248859   8.042   0.060   1.690  0.2656 -0.0429  0.4090
12644SOL     OW48860   9.429   0.204   0.751 -0.2639  0.2591  0.4866
12644SOL    HW148861   9.455   0.237   0.660 -1.6304 -0.4912 -0.1952
12644SOL    HW248862   9.465   0.112   0.765  0.0702  0.4332  0.7536
12645SOL     OW48863   9.805   7.989   0.607 -0.1267  0.1666  0.1606
12645SOL    HW148864   9.723   8.044   0.617  0.6339  0.9077  3.1080
12645SOL    HW248865   9.795   7.905   0.660 -0.0348 -1.0568 -1.7188
12646SOL     OW48866   0.308   0.785   1.081 -0.1710  0.5472  0.2722
12646SOL    HW148867   0.213   0.816   1.086 -0.5754 -0.7663  0.9007
12646SOL    HW248868   0.317   0.697   1.127  0.6609 -1.0084 -2.7715
12647SOL     OW48869   0.374   3.401   3.073 -0.1694  0.7922 -0.2024
12647SOL    HW148870   0.452   3.381   3.014  0.0488  1.4393 -0.1380
12647SOL    HW248871   0.294   3.352   3.039  0.3902 -0.3245  0.0592
12648SOL     OW48872   3.672   3.342   1.365 -0.4610 -0.2083  0.1746
12648SOL    HW148873   3.768   3.360   1.385 -0.1437 -0.5328 -1.0078
12648SOL    HW248874   3.664   3.256   1.315 -1.2529  0.3249 -0.6390
12649SOL     OW48875   2.052   6.688   1.346  0.3558  0.6070  0.1562
12649SOL    HW148876   1.983   6.669   1.417  0.1604 -0.7111 -0.3658
12649SOL    HW248877   2.051   6.614   1.279  0.9957  1.5233 -0.8750
12650SOL     OW48878   9.736   7.787   3.942 -0.3725 -0.1072 -0.5606
12650SOL    HW148879   9.671   7.851   3.983  0.1816  0.2483 -0.2431
12650SOL    HW248880   9.699   7.755   3.854 -0.7277  0.5104 -0.6411
12651SOL     OW48881   3.365   4.803   1.166  0.0599  0.2703 -0.3834
12651SOL    HW148882   3.416   4.773   1.085 -0.1090 -0.3062 -0.2749
12651SOL    HW248883   3.353   4.726   1.228 -1.1773  0.3326 -0.5324
12652SOL     OW48884   3.826   5.200   3.519 -0.1442 -0.8303  0.4279
12652SOL    HW148885   3.807   5.158   3.608 -2.0850  2.0953  1.4718
12652SOL    HW248886   3.745   5.251   3.489  2.0768  2.1482 -0.7658
12653SOL     OW48887   3.042   2.478   3.557 -0.4275 -0.7904 -0.1463
12653SOL    HW148888   3.129   2.493   3.605 -1.4937  0.7482  1.3526
12653SOL    HW248889   3.046   2.391   3.508  1.7736 -0.9765  0.3102
12654SOL     OW48890   9.907   7.041   0.127  0.1056 -0.0958 -0.0142
12654SOL    HW148891   9.999   7.047   0.088  0.1153 -1.2338 -0.1821
12654SOL    HW248892   9.896   7.109   0.198  1.4186 -0.6025  0.6778
12655SOL     OW48893   4.612   3.313   1.946  0.4220  0.0094  0.0451
12655SOL    HW148894   4.691   3.252   1.951  0.1307 -0.3243  0.7371
12655SOL    HW248895   4.580   3.321   1.851  2.7567  2.0508 -0.6248
12656SOL     OW48896   0.987   8.893   4.574 -0.4387 -0.0577  0.0479
12656SOL    HW148897   0.935   8.846   4.646 -0.9515 -0.7775 -0.7885
12656SOL    HW248898   1.078   8.853   4.566 -0.9208 -1.0018 -0.7539
12657SOL     OW48899   4.310   6.307   0.680  0.3408 -0.1397  0.0050
12657SOL    HW148900   4.377   6.267   0.617 -0.8680 -1.5886 -0.4093
12657SOL    HW248901   4.233   6.243   0.691 -0.8236  1.3528  0.6905
12658SOL     OW48902   2.152   7.240   5.944 -0.0119  0.5622  0.2588
12658SOL    HW148903   2.131   7.338   5.936  0.4621  0.6014 -0.5313
12658SOL    HW248904   2.091   7.187   5.885 -0.0614  0.4045  0.4501
12659SOL     OW48905   1.088   0.522   1.150 -0.9342 -0.4073 -0.3666
12659SOL    HW148906   1.108   0.588   1.078 -1.6263 -1.4969 -1.5912
12659SOL    HW248907   1.094   0.566   1.239  2.5453  0.3570 -0.9031
12660SOL     OW48908   3.973   9.606   2.692 -0.3481  0.2823  0.1429
12660SOL    HW148909   4.003   9.519   2.731  0.4227  0.6001  0.2676
12660SOL    HW248910   3.919   9.588   2.610 -0.2438 -0.3159  0.1993
12661SOL     OW48911   7.922   8.671   3.181 -0.3339 -0.4189 -0.4615
12661SOL    HW148912   7.999   8.658   3.244  1.5821  0.7216 -2.4882
12661SOL    HW248913   7.874   8.755   3.206  1.5191  1.0117 -1.5428
12662SOL     OW48914   9.012   3.127   3.180 -0.1926 -0.2058  0.5129
12662SOL    HW148915   9.064   3.211   3.196 -0.9606  0.2401  0.7018
12662SOL    HW248916   9.052   3.077   3.103 -0.6724  1.1303 -0.6374
12663SOL     OW48917   9.892   8.290   2.360 -0.2000  0.4252 -0.8074
12663SOL    HW148918   9.976   8.342   2.379 -1.3861  2.2847 -0.5139
12663SOL    HW248919   9.861   8.309   2.267 -0.7884  0.4649 -0.6066
12664SOL     OW48920   3.255   4.795   1.940  0.2080  0.0588  0.0918
12664SOL    HW148921   3.262   4.738   2.021 -0.6254 -1.3066 -0.7818
12664SOL    HW248922   3.205   4.879   1.963  2.3844  0.9660  1.6343
12665SOL     OW48923   0.836   3.381   0.447  0.3552  0.2279  0.3982
12665SOL    HW148924   0.743   3.344   0.453  0.8025 -0.9689  0.0529
12665SOL    HW248925   0.889   3.351   0.527  0.8386 -0.2290 -0.0903
12666SOL     OW48926   3.629   0.951   1.964 -0.2899  0.0427  0.4239
12666SOL    HW148927   3.534   0.971   1.988 -0.1067  1.2511  0.1818
12666SOL    HW248928   3.687   0.967   2.044 -0.2201 -0.1771  0.4180
12667SOL     OW48929   8.494   9.341   5.412 -0.2222 -0.1830 -0.0981
12667SOL    HW148930   8.429   9.296   5.351 -1.1477 -1.4376  1.7377
12667SOL    HW248931   8.452   9.424   5.449 -0.0631  0.0268 -0.3974
12668SOL     OW48932   9.678   2.036   4.221 -0.1855  0.3783 -0.3050
12668SOL    HW148933   9.642   2.118   4.266 -0.3269 -0.5508  1.3050
12668SOL    HW248934   9.701   1.968   4.290 -0.4318 -1.0895 -1.6558
12669SOL     OW48935   2.893   9.553   2.682 -0.5215 -0.1399  0.0077
12669SOL    HW148936   2.857   9.576   2.591  1.5700  3.3049 -0.0045
12669SOL    HW248937   2.975   9.497   2.672  0.6152  1.5575 -0.3021
12670SOL     OW48938   8.574   0.334   3.440 -0.0370 -0.0895  0.0626
12670SOL    HW148939   8.622   0.312   3.525  1.7048  3.0605 -0.0205
12670SOL    HW248940   8.604   0.272   3.367  0.1720 -1.3197  1.1838
12671SOL     OW48941   4.782   3.774   0.703 -0.0607 -0.0936 -0.0408
12671SOL    HW148942   4.798   3.872   0.687  1.7851 -0.7290 -2.3079
12671SOL    HW248943   4.717   3.739   0.635  0.5953 -0.8174 -0.2952
12672SOL     OW48944   8.121   2.286   5.528 -0.2053 -0.3946  0.5442
12672SOL    HW148945   8.076   2.373   5.508  0.8865  0.2114  0.6617
12672SOL    HW248946   8.071   2.237   5.599  0.0264  0.8437  1.5750
12673SOL     OW48947   8.509   9.913   3.370 -0.0356 -0.4658 -0.4863
12673SOL    HW148948   8.521   9.877   3.463 -1.4591 -0.7461 -0.3837
12673SOL    HW248949   8.584   9.975   3.348 -0.5181  0.8718  1.4732
12674SOL     OW48950   8.000   7.014   2.391 -0.1630  0.1285  0.0335
12674SOL    HW148951   7.939   6.936   2.401  0.1143 -0.2814 -1.4127
12674SOL    HW248952   7.949   7.098   2.411 -0.6683 -0.3633  0.8186
12675SOL     OW48953   4.546   8.655   3.194  0.0035 -0.1574  0.2445
12675SOL    HW148954   4.449   8.645   3.170 -0.4023  1.5653  1.0917
12675SOL    HW248955   4.579   8.744   3.162  0.5802  0.3795  2.2595
12676SOL     OW48956   9.100   7.783   0.525  0.5839 -0.7151 -0.6437
12676SOL    HW148957   9.189   7.809   0.564 -0.2426 -1.0978  1.5819
12676SOL    HW248958   9.081   7.840   0.446  2.5675 -0.2582 -0.8374
12677SOL     OW48959   0.621   8.641   0.427 -0.3742 -0.7479 -0.3419
12677SOL    HW148960   0.578   8.675   0.511  0.8414  1.2469 -0.4881
12677SOL    HW248961   0.550   8.604   0.366 -1.5023 -0.4169  0.7441
12678SOL     OW48962   2.047   4.407   4.846  0.4029 -0.7609  0.2665
12678SOL    HW148963   2.023   4.363   4.759 -0.2461 -0.7914  0.4599
12678SOL    HW248964   2.019   4.348   4.922  0.3139 -0.4019  0.5094
12679SOL     OW48965   6.709   9.365   4.671  0.2083 -0.3860 -0.5205
12679SOL    HW148966   6.658   9.384   4.586 -0.4474  1.2744  0.2170
12679SOL    HW248967   6.651   9.315   4.734 -0.4528  1.2950  0.2264
12680SOL     OW48968   2.362   4.688   4.310  0.2034  0.0148 -0.1371
12680SOL    HW148969   2.293   4.673   4.381 -1.1652  0.9048 -1.2365
12680SOL    HW248970   2.398   4.600   4.279 -1.4269 -0.5621 -0.4797
12681SOL     OW48971   8.976   5.872   6.675 -0.3553  0.2533 -0.6425
12681SOL    HW148972   8.990   5.920   6.762 -1.2460 -0.4814 -0.0751
12681SOL    HW248973   8.949   5.937   6.605 -1.2643  0.6262  0.0478
12682SOL     OW48974   2.825   8.110   2.826  0.4324  0.1104  0.3073
12682SOL    HW148975   2.781   8.028   2.861  0.0659  0.0664 -0.2659
12682SOL    HW248976   2.760   8.186   2.826  0.9459  0.5690  1.4425
12683SOL     OW48977   5.600   8.172   2.558  0.8018 -0.0392  0.1397
12683SOL    HW148978   5.538   8.158   2.636  1.1724 -3.6303 -0.1386
12683SOL    HW248979   5.674   8.233   2.586  0.6743 -0.8820  2.4910
12684SOL     OW48980   7.892   9.007   2.812  0.1079  0.0291 -0.0631
12684SOL    HW148981   7.793   8.994   2.804  0.1462 -0.0895 -0.3481
12684SOL    HW248982   7.931   9.024   2.721  0.7622 -2.7404 -0.3553
12685SOL     OW48983   3.143   8.415   4.292  0.0772  0.3210 -0.0988
12685SOL    HW148984   3.148   8.514   4.281  1.3580  0.3284  0.4429
12685SOL    HW248985   3.093   8.376   4.215 -1.1736  1.4594  0.1134
12686SOL     OW48986   5.616   7.477   2.309  0.3793 -0.1285  0.3595
12686SOL    HW148987   5.560   7.483   2.226 -1.2385  0.0027  1.4611
12686SOL    HW248988   5.708   7.510   2.288  0.4052 -1.4636 -1.7566
12687SOL     OW48989   5.625   3.697   6.531 -0.2463  0.3187  0.1138
12687SOL    HW148990   5.595   3.678   6.624  0.8187 -0.1069  0.3799
12687SOL    HW248991   5.677   3.783   6.530 -1.8726  1.3158 -0.4278
12688SOL     OW48992   9.144   1.378   2.064  0.1249 -0.1283  0.3179
12688SOL    HW148993   9.125   1.442   2.138  2.2003 -0.1599  0.9085
12688SOL    HW248994   9.199   1.302   2.099  1.7919  0.2539 -1.3991
12689SOL     OW48995   3.858   0.911   2.527 -0.2615 -0.1555  0.1838
12689SOL    HW148996   3.814   0.865   2.605 -1.2638 -0.4934 -0.5758
12689SOL    HW248997   3.896   0.842   2.466 -0.2253  0.0815 -0.0573
12690SOL     OW48998   7.085   0.649   0.628 -0.4909 -0.1529 -0.8402
12690SOL    HW148999   6.998   0.603   0.612  0.1527 -1.6412 -0.0454
12690SOL    HW249000   7.068   0.743   0.659 -1.8132 -0.7865  0.3709
12691SOL     OW49001   2.296   8.192   3.503  0.5663 -0.6609  0.1027
12691SOL    HW149002   2.329   8.177   3.410  0.3854 -0.6775  0.0414
12691SOL    HW249003   2.222   8.129   3.524  1.3988 -1.4642  0.6751
12692SOL     OW49004   4.513   3.536   1.633 -0.0855 -0.4669  0.4954
12692SOL    HW149005   4.483   3.619   1.679  2.2365  1.0310 -0.6065
12692SOL    HW249006   4.433   3.482   1.606 -1.5836  0.8793  2.1469
12693SOL     OW49007   6.998   1.886   4.308 -0.5064 -0.0701 -0.0518
12693SOL    HW149008   6.945   1.952   4.360 -1.6690  0.2840 -1.6471
12693SOL    HW249009   6.997   1.798   4.355 -1.6801  0.2058  0.4547
12694SOL     OW49010   1.469   3.091   2.854 -0.1442  0.0912  0.0870
12694SOL    HW149011   1.432   3.079   2.946  1.2510  2.2898  0.9677
12694SOL    HW249012   1.452   3.008   2.800  0.3994 -1.8584  2.7863
12695SOL     OW49013   1.384   4.847   4.154 -0.5720  0.1086  0.0144
12695SOL    HW149014   1.473   4.824   4.115 -0.0099  0.1793  1.2279
12695SOL    HW249015   1.355   4.936   4.118 -0.8036 -0.5531 -1.4537
12696SOL     OW49016   9.827   2.603   3.304  0.2652  0.6926 -0.0438
12696SOL    HW149017   9.925   2.609   3.323  0.1181  1.8199  0.4474
12696SOL    HW249018   9.789   2.523   3.349  0.7912  0.7859  0.5753
12697SOL     OW49019   5.590   9.813   1.825  0.1722 -0.1860 -0.9121
12697SOL    HW149020   5.615   9.820   1.922 -0.6986  0.3798 -0.7217
12697SOL    HW249021   5.528   9.736   1.811 -1.9668  1.4264 -0.5263
12698SOL     OW49022   2.127   9.049   1.322  0.4660 -0.3074  0.3434
12698SOL    HW149023   2.132   9.149   1.323  0.5426 -0.3099  0.2374
12698SOL    HW249024   2.215   9.012   1.291  0.0247 -0.3780 -0.8427
12699SOL     OW49025   2.514   3.519   4.641  0.2352 -0.4260  0.2425
12699SOL    HW149026   2.467   3.518   4.553 -1.2117 -2.0456  0.9829
12699SOL    HW249027   2.547   3.611   4.661 -1.7748  0.5444 -0.7772
12700SOL     OW49028   0.886   2.594   2.753  0.1897 -0.1510  0.6142
12700SOL    HW149029   0.932   2.506   2.745 -0.2145 -0.2880 -0.2404
12700SOL    HW249030   0.887   2.640   2.664 -2.3678 -0.6755  0.2823
12701SOL     OW49031   4.498   9.904   2.425 -0.1843  0.1612 -0.4955
12701SOL    HW149032   4.576   9.881   2.367  0.5117 -0.1803  0.5611
12701SOL    HW249033   4.444   9.822   2.442  0.5291 -0.0756  0.6737
12702SOL     OW49034   1.573   7.599   0.762  0.4803 -0.2782  0.2112
12702SOL    HW149035   1.621   7.680   0.797  0.4815 -0.9391  1.7494
12702SOL    HW249036   1.536   7.619   0.671  0.1027  1.5897  0.7617
12703SOL     OW49037   8.105   0.608   4.910 -0.3938 -0.2034  0.1371
12703SOL    HW149038   8.012   0.594   4.944 -0.2987  0.3208  0.6081
12703SOL    HW249039   8.121   0.706   4.896  0.2401 -0.2581  0.4911
12704SOL     OW49040   8.803   4.697   3.916  0.8328  0.3676 -0.1167
12704SOL    HW149041   8.772   4.664   4.005 -1.8502  1.1515 -0.6838
12704SOL    HW249042   8.799   4.623   3.849 -1.0477  0.7369 -0.4439
12705SOL     OW49043   8.655   4.798   0.192  0.0276 -0.1092  0.5735
12705SOL    HW149044   8.613   4.767   0.277 -2.6844 -0.2081 -0.7581
12705SOL    HW249045   8.703   4.884   0.209 -1.1469  0.2827  2.0288
12706SOL     OW49046   3.475   6.218   5.358 -0.2151  0.1703 -0.4172
12706SOL    HW149047   3.405   6.261   5.415 -0.0622  0.7659 -0.6678
12706SOL    HW249048   3.450   6.124   5.338 -0.7754  0.2784 -0.2174
12707SOL     OW49049   2.528   6.822   6.400 -0.5281  0.0029  0.0787
12707SOL    HW149050   2.508   6.735   6.354 -2.3276  0.0083  0.8112
12707SOL    HW249051   2.478   6.896   6.354  0.4967  0.5593 -0.1492
12708SOL     OW49052   1.589   6.764   4.259  0.0133 -0.5918  0.2242
12708SOL    HW149053   1.621   6.699   4.328 -0.6216 -1.2874 -0.1253
12708SOL    HW249054   1.496   6.739   4.231 -0.0063  0.1190 -0.3524
12709SOL     OW49055   1.626   4.244   2.765  0.5351  0.0716 -0.1921
12709SOL    HW149056   1.647   4.279   2.856 -0.4374 -1.4337  0.6383
12709SOL    HW249057   1.591   4.317   2.708  1.8676  1.1984  0.3987
12710SOL     OW49058   7.238   6.781   3.709 -0.2375 -0.2277  0.4671
12710SOL    HW149059   7.259   6.866   3.660  2.2589 -0.2128  1.5256
12710SOL    HW249060   7.298   6.772   3.788 -1.0396 -2.5910  0.8327
12711SOL     OW49061   4.665   1.295   2.089  0.6080  0.0876 -0.0001
12711SOL    HW149062   4.714   1.331   2.010  0.8584 -1.2196 -0.4562
12711SOL    HW249063   4.585   1.244   2.058 -1.2065  2.4093  0.7491
12712SOL     OW49064   0.463   1.180   3.208  0.7078 -0.2086 -0.4169
12712SOL    HW149065   0.467   1.102   3.145  1.2737 -0.4962 -0.0295
12712SOL    HW249066   0.373   1.182   3.253  0.5462 -0.3984 -0.7315
12713SOL     OW49067   4.492   8.543   5.012  0.3046 -0.3069  0.2556
12713SOL    HW149068   4.403   8.516   4.976  0.7747 -1.3207 -0.1662
12713SOL    HW249069   4.480   8.585   5.102 -0.5281 -1.2427  0.5943
12714SOL     OW49070   0.370   8.115   4.053 -0.0331 -0.2439  0.1545
12714SOL    HW149071   0.322   8.030   4.032 -1.9930  1.0739 -0.9172
12714SOL    HW249072   0.382   8.167   3.968  2.9009 -0.3178  0.4842
12715SOL     OW49073   4.301   7.628   3.442  0.0313  0.3963  0.5539
12715SOL    HW149074   4.390   7.662   3.412  0.1524 -0.4151 -0.0133
12715SOL    HW249075   4.240   7.705   3.461  0.0746  0.9284 -1.3825
12716SOL     OW49076   6.031   9.300   3.208  0.1037 -0.0277 -0.2815
12716SOL    HW149077   5.986   9.240   3.142 -1.0473  0.5758 -0.0540
12716SOL    HW249078   5.967   9.369   3.240  0.7009 -0.1744  1.3111
12717SOL     OW49079   3.642   3.758   0.836 -0.3183 -0.5197 -0.5262
12717SOL    HW149080   3.550   3.735   0.805 -0.4329 -1.1675  0.2597
12717SOL    HW249081   3.636   3.822   0.913 -0.0935 -0.1237 -0.8374
12718SOL     OW49082   8.653   9.034   1.050  0.1859 -0.1792  0.6785
12718SOL    HW149083   8.570   8.989   1.085 -0.2559  0.1284  0.0337
12718SOL    HW249084   8.652   9.130   1.077  0.3773 -0.1945  0.7434
12719SOL     OW49085   1.199   9.201   4.768 -0.0816  0.0148 -0.4120
12719SOL    HW149086   1.138   9.266   4.725 -0.9729 -0.9659 -0.6580
12719SOL    HW249087   1.247   9.245   4.844 -1.6921  0.5795  0.2947
12720SOL     OW49088   9.763   3.989   5.321 -0.0875 -0.1647  0.0989
12720SOL    HW149089   9.683   3.930   5.310  0.2586 -0.3917 -1.2256
12720SOL    HW249090   9.736   4.085   5.311 -0.1234 -0.2635 -0.7451
12721SOL     OW49091   1.510   6.177   3.489 -0.5545 -0.0597  0.6497
12721SOL    HW149092   1.539   6.272   3.498 -1.0174  0.2211 -0.7496
12721SOL    HW249093   1.580   6.118   3.530 -0.0420  0.8471  1.1123
12722SOL     OW49094   1.473   2.863   0.287  0.0765 -0.7055 -0.1650
12722SOL    HW149095   1.504   2.888   0.196  0.3312  1.9606  0.6310
12722SOL    HW249096   1.540   2.800   0.328  1.6789  0.6947 -0.5673
12723SOL     OW49097   2.088   3.924   5.051 -0.4541 -0.2008  0.0874
12723SOL    HW149098   2.078   3.991   4.978  0.7311  0.9887  0.9911
12723SOL    HW249099   2.093   3.832   5.012 -2.9202  0.1357 -1.1079
12724SOL     OW49100   9.664   2.570   2.320 -0.2604 -0.3927 -0.0261
12724SOL    HW149101   9.686   2.667   2.315  0.1314 -0.5295 -1.1568
12724SOL    HW249102   9.579   2.552   2.271 -0.2021 -0.6569 -0.0296
12725SOL     OW49103   5.400   8.241   1.877  0.3886 -0.0147 -0.2937
12725SOL    HW149104   5.376   8.172   1.808  1.0307 -0.7741  0.2425
12725SOL    HW249105   5.374   8.208   1.968 -1.0860  1.2701 -0.2255
12726SOL     OW49106   4.240   7.472   2.015 -1.0253 -0.4543 -0.3738
12726SOL    HW149107   4.334   7.462   1.983 -0.6756  0.1663  0.4477
12726SOL    HW249108   4.232   7.555   2.070 -2.3016  0.0766 -1.3393
12727SOL     OW49109   7.778   4.064   0.567 -0.1282  0.1801 -0.8803
12727SOL    HW149110   7.827   4.022   0.643 -0.4596  0.8333 -0.3022
12727SOL    HW249111   7.706   4.003   0.535 -0.0162 -0.0783 -0.6391
12728SOL     OW49112   0.462   4.241   3.588 -0.6797 -0.2200  0.2455
12728SOL    HW149113   0.447   4.143   3.577 -0.6455 -0.0347 -1.5140
12728SOL    HW249114   0.545   4.268   3.540 -1.0341  0.7757  0.1769
12729SOL     OW49115   8.981   1.394   2.771  1.0667 -0.2627 -0.1616
12729SOL    HW149116   8.997   1.316   2.711  0.8596  0.1303 -0.7297
12729SOL    HW249117   9.029   1.379   2.858 -0.3830 -1.8289  0.4157
12730SOL     OW49118   8.021   2.238   1.879  0.0364 -0.5709 -0.4508
12730SOL    HW149119   7.975   2.297   1.945  0.8955 -0.9650  0.5150
12730SOL    HW249120   7.977   2.246   1.790 -1.4120 -0.3750  0.2805
12731SOL     OW49121   2.984   6.569   0.532 -0.0400  0.2368  0.4094
12731SOL    HW149122   2.963   6.584   0.629 -1.7002  2.5093 -0.2490
12731SOL    HW249123   3.055   6.500   0.523 -0.2181 -0.3588  3.2291
12732SOL     OW49124   2.108   0.129   2.657  0.2743  0.8169  0.0602
12732SOL    HW149125   2.146   0.099   2.570  0.8401 -0.2125  0.6616
12732SOL    HW249126   2.027   0.074   2.679 -0.1463  1.3856 -0.0330
12733SOL     OW49127   9.799   3.192   2.192 -0.1546 -0.2535 -0.4047
12733SOL    HW149128   9.706   3.157   2.206  0.4099 -0.9884  1.6510
12733SOL    HW249129   9.798   3.292   2.193 -0.9500 -0.2603 -0.5760
12734SOL     OW49130   9.405   3.355   1.485  0.0314  0.0371  0.0335
12734SOL    HW149131   9.346   3.435   1.495 -0.4446 -0.3219  0.1268
12734SOL    HW249132   9.350   3.272   1.493  0.4319 -0.2941 -0.6124
12735SOL     OW49133   3.883   0.490   3.295  0.0312  0.1197 -0.1193
12735SOL    HW149134   3.882   0.414   3.360 -1.1824  0.2433  0.0260
12735SOL    HW249135   3.906   0.575   3.343  2.7975 -0.3678 -0.5428
12736SOL     OW49136   2.108   1.718   1.770  0.2838  0.1160 -0.0080
12736SOL    HW149137   2.018   1.714   1.726  1.0752 -2.2954 -1.5613
12736SOL    HW249138   2.140   1.625   1.789  1.8323  0.9929  1.8490
12737SOL     OW49139   4.573   3.334   0.210 -0.4127 -0.4222 -0.6124
12737SOL    HW149140   4.655   3.366   0.162  0.3376  0.2241  1.0836
12737SOL    HW249141   4.593   3.250   0.259  0.0354  1.2156  2.0884
12738SOL     OW49142   6.916   4.340   1.133  0.5245  0.5219  0.4012
12738SOL    HW149143   6.957   4.425   1.167 -1.2200  1.6063 -0.1192
12738SOL    HW249144   6.846   4.362   1.065  1.0687 -1.4234 -0.8205
12739SOL     OW49145   7.491   8.267   1.809 -0.2067  0.3292 -0.3593
12739SOL    HW149146   7.398   8.303   1.809 -0.9838 -1.5550  1.2224
12739SOL    HW249147   7.543   8.306   1.733 -2.3224  1.2879 -1.3387
12740SOL     OW49148   2.167   7.077   6.159  0.4250 -0.2217 -0.6797
12740SOL    HW149149   2.257   7.074   6.202  0.0493  0.7996  0.2139
12740SOL    HW249150   2.174   7.121   6.070  0.5934  1.1605 -0.0000
12741SOL     OW49151   8.584   8.225   0.397  0.3298 -0.1981 -0.4094
12741SOL    HW149152   8.506   8.202   0.340  1.6354  0.1218 -2.3720
12741SOL    HW249153   8.666   8.177   0.364  0.6251 -1.9742  2.7207
12742SOL     OW49154   4.399   1.106   3.088  0.1175 -0.5574  0.2501
12742SOL    HW149155   4.443   1.136   3.003  0.9682  0.1728  0.9289
12742SOL    HW249156   4.427   1.012   3.109  2.7076  0.4438  1.5190
12743SOL     OW49157   5.837   8.265   4.925  0.3299  0.0552 -0.5735
12743SOL    HW149158   5.858   8.252   5.022 -3.9213  0.9824  0.5449
12743SOL    HW249159   5.890   8.199   4.871  2.0742 -1.0975  2.3973
12744SOL     OW49160   4.597   8.366   4.710 -0.0403  0.0278  0.1722
12744SOL    HW149161   4.687   8.408   4.724 -0.0167 -0.2645  0.9448
12744SOL    HW249162   4.597   8.274   4.750 -0.4690 -0.2355 -0.4366
12745SOL     OW49163   8.459   4.278   2.559 -0.2037 -0.0632  1.0077
12745SOL    HW149164   8.554   4.288   2.590 -0.4092 -0.3349  1.7218
12745SOL    HW249165   8.426   4.365   2.523  0.0883  0.2041  1.3855
12746SOL     OW49166   0.718   5.983   6.156 -0.0163 -0.5936 -0.7751
12746SOL    HW149167   0.790   6.044   6.187 -0.1021  0.8074 -3.1715
12746SOL    HW249168   0.753   5.890   6.148  0.3899 -0.7039  1.9495
12747SOL     OW49169   0.762   1.389   2.456 -0.4343 -0.5727  1.0191
12747SOL    HW149170   0.779   1.291   2.440 -0.5446 -0.4190 -0.0886
12747SOL    HW249171   0.676   1.415   2.414 -0.6773 -0.1054  1.7905
12748SOL     OW49172   9.890   4.101   3.262 -0.2668 -0.0044 -0.4753
12748SOL    HW149173   9.951   4.129   3.336 -1.0783  1.4998 -0.3612
12748SOL    HW249174   9.878   4.001   3.265 -1.0179  0.1303  1.9757
12749SOL     OW49175   4.733   1.207   0.679 -0.3812 -0.1726 -0.2684
12749SOL    HW149176   4.774   1.216   0.770  0.4363 -1.8078 -0.4716
12749SOL    HW249177   4.775   1.131   0.630 -1.3129  0.2487 -1.7634
12750SOL     OW49178   0.745   0.781   1.467 -0.2450  0.3048  0.4165
12750SOL    HW149179   0.797   0.833   1.399 -0.9015  1.6182  0.9040
12750SOL    HW249180   0.648   0.805   1.461 -0.7762 -1.9086 -0.2891
12751SOL     OW49181   7.964   9.942   1.516 -0.1065  0.1962  0.8284
12751SOL    HW149182   7.897   9.900   1.578 -1.0799  0.7283  0.1413
12751SOL    HW249183   7.916   9.987   1.441  1.0680 -0.5131 -0.3672
12752SOL     OW49184   0.180   1.305   2.828  0.0329  0.7044 -0.1806
12752SOL    HW149185   0.125   1.248   2.889 -0.8007 -0.2368 -1.7891
12752SOL    HW249186   0.277   1.296   2.853 -0.4940  2.5504  2.8061
12753SOL     OW49187   0.097   1.946   3.579  0.5812 -0.2530 -0.0567
12753SOL    HW149188   0.011   1.902   3.607  0.5843  0.5340  1.2241
12753SOL    HW249189   0.124   1.912   3.489 -1.0095 -0.6058 -0.4154
12754SOL     OW49190   9.082   9.634   2.405 -0.2184 -0.0862 -0.6132
12754SOL    HW149191   9.023   9.663   2.329 -0.9523 -0.3394 -0.1417
12754SOL    HW249192   9.144   9.709   2.429 -1.2325  0.6458 -0.2477
12755SOL     OW49193   8.154   1.936   0.847  0.2918 -0.1073  0.2729
12755SOL    HW149194   8.146   2.022   0.898  1.6447  0.4639 -0.4580
12755SOL    HW249195   8.063   1.907   0.817 -0.1129  1.3856  0.0084
12756SOL     OW49196   3.445   6.022   4.685 -0.0302  0.1649  0.2504
12756SOL    HW149197   3.385   5.943   4.697 -0.1284  0.2404  0.2566
12756SOL    HW249198   3.503   6.032   4.765  0.3000 -0.1720  0.0506
12757SOL     OW49199   3.573   5.341   4.918  0.1938 -0.6705  0.0504
12757SOL    HW149200   3.506   5.268   4.910  1.4031 -1.9020  0.9791
12757SOL    HW249201   3.647   5.326   4.853 -0.1371  0.3843 -0.5845
12758SOL     OW49202   8.644   4.011   3.157 -0.0315  0.3595 -0.0997
12758SOL    HW149203   8.719   4.026   3.092 -0.9405 -0.3066 -1.3306
12758SOL    HW249204   8.596   4.097   3.173 -0.1573  0.4141 -0.7581
12759SOL     OW49205   9.865   5.409   3.665 -0.7880 -0.8388 -0.7718
12759SOL    HW149206   9.818   5.326   3.634 -0.1360 -1.7467  0.6272
12759SOL    HW249207   9.941   5.384   3.724  0.3710  0.7089 -1.5712
12760SOL     OW49208   8.593   7.645   1.755 -0.1480  0.0444  0.5541
12760SOL    HW149209   8.495   7.641   1.736 -0.0204  0.2163 -0.1718
12760SOL    HW249210   8.641   7.586   1.691  0.2506  0.2228  0.6885
12761SOL     OW49211   1.099   3.089   0.232 -0.4559  0.0574  0.1437
12761SOL    HW149212   1.145   3.070   0.145  0.2464  1.0408  0.2947
12761SOL    HW249213   1.047   3.175   0.223 -1.3882 -0.4818  0.3122
12762SOL     OW49214   9.011   6.641   2.486  0.2179 -0.2258 -0.3032
12762SOL    HW149215   8.960   6.561   2.520  0.7151  0.3636  1.9266
12762SOL    HW249216   9.011   6.712   2.556 -1.5819  2.4088 -2.8728
12763SOL     OW49217   2.146   4.682   4.017 -0.2234  0.1680  0.1895
12763SOL    HW149218   2.165   4.776   4.047 -0.3247 -0.1939  1.4129
12763SOL    HW249219   2.182   4.669   3.925 -0.2428  1.4233 -0.0013
12764SOL     OW49220   9.664   2.839   2.980 -0.3161  0.6095 -0.5617
12764SOL    HW149221   9.696   2.754   2.938  0.5275  0.5732  0.1115
12764SOL    HW249222   9.722   2.915   2.950 -0.3198  0.7410 -0.2453
12765SOL     OW49223   0.599   8.430   4.347 -0.5380 -1.2696  0.0862
12765SOL    HW149224   0.649   8.466   4.269 -0.5178  0.7521  0.9997
12765SOL    HW249225   0.663   8.392   4.413 -0.4464 -1.5937 -0.1895
12766SOL     OW49226   2.965   9.159   4.351 -0.1345 -0.0881 -0.2771
12766SOL    HW149227   3.053   9.207   4.347  0.7904 -1.7969 -0.7592
12766SOL    HW249228   2.897   9.219   4.392  0.7121  2.0757 -1.9008
12767SOL     OW49229   4.043   5.325   0.432  0.3114  0.2578  0.3890
12767SOL    HW149230   4.034   5.238   0.480  0.7063  1.6656  3.1147
12767SOL    HW249231   4.132   5.330   0.387  0.1238 -0.9042 -0.1094
12768SOL     OW49232   6.293   1.411   4.950 -0.5306 -0.4339 -0.7372
12768SOL    HW149233   6.268   1.322   4.988  1.2213 -1.0980 -1.1251
12768SOL    HW249234   6.213   1.471   4.952 -1.8321 -2.1342 -0.8573
12769SOL     OW49235   4.159   0.884   1.014  0.4285  0.0761  0.7193
12769SOL    HW149236   4.162   0.981   1.040  1.0683  1.0140 -2.6289
12769SOL    HW249237   4.105   0.833   1.082 -1.7214  3.1342  1.4199
12770SOL     OW49238   7.837   9.734   5.177 -0.2825 -0.2285  0.3133
12770SOL    HW149239   7.851   9.808   5.243  0.0631  0.3061 -0.3634
12770SOL    HW249240   7.788   9.659   5.222 -2.0406  1.0390  0.5718
12771SOL     OW49241   3.403   5.281   2.815 -0.0547 -0.1505 -0.6642
12771SOL    HW149242   3.496   5.245   2.807  0.5113  1.2048 -0.2797
12771SOL    HW249243   3.346   5.217   2.867  0.9511 -0.4501  0.0758
12772SOL     OW49244   1.100   3.800   1.804 -0.5395  0.2878 -0.5360
12772SOL    HW149245   1.103   3.733   1.878 -2.0794 -0.0614 -0.7842
12772SOL    HW249246   1.034   3.772   1.735 -2.1624  2.6687 -0.0234
12773SOL     OW49247   3.002   3.993   2.688  0.3066  0.4238  0.7673
12773SOL    HW149248   2.933   4.024   2.623  0.8458 -1.7835 -0.9429
12773SOL    HW249249   3.063   4.068   2.711 -0.2316  1.3825 -0.8505
12774SOL     OW49250   7.277   9.232   2.865  0.2061  0.0483  0.0078
12774SOL    HW149251   7.366   9.266   2.892  1.4630 -1.4493 -2.0303
12774SOL    HW249252   7.206   9.299   2.888  2.0462  1.9855  0.1440
12775SOL     OW49253   9.917   5.309   3.001 -0.7959  0.1797  0.3408
12775SOL    HW149254   9.870   5.388   2.962  0.6439  1.0989  0.4549
12775SOL    HW249255   9.983   5.339   3.070  0.9814 -0.9557 -0.8094
12776SOL     OW49256   3.130   3.796   2.972  0.1303 -0.2012  0.5697
12776SOL    HW149257   3.036   3.819   2.944  0.4563 -1.1076 -1.3407
12776SOL    HW249258   3.173   3.876   3.014 -1.1892  0.4829  0.6529
12777SOL     OW49259   4.364   8.858   2.335  0.7240 -0.0279  0.1513
12777SOL    HW149260   4.306   8.825   2.261  3.4412  0.4906 -2.2977
12777SOL    HW249261   4.399   8.780   2.388 -0.2684 -0.4764  0.1427
12778SOL     OW49262   1.533   9.347   2.665  0.1643  0.2370  0.0891
12778SOL    HW149263   1.492   9.363   2.576 -2.4004  0.6896  1.3114
12778SOL    HW249264   1.545   9.435   2.712  0.8366 -0.0625  0.4906
12779SOL     OW49265   9.611   5.068   0.516 -0.8551 -0.2560  0.0041
12779SOL    HW149266   9.699   5.114   0.523 -1.0863  0.1889 -0.0070
12779SOL    HW249267   9.618   4.992   0.452 -0.6323  0.1331 -0.4311
12780SOL     OW49268   8.479   9.043   4.123 -0.2502  0.2246 -0.1705
12780SOL    HW149269   8.482   8.951   4.083  0.0141 -0.2107  0.8449
12780SOL    HW249270   8.505   9.110   4.053  1.6630 -0.6626 -0.3520
12781SOL     OW49271   8.660   0.042   1.356 -0.0385 -0.2389 -0.0548
12781SOL    HW149272   8.576  -0.006   1.381 -1.5307  0.3068 -3.7537
12781SOL    HW249273   8.638   0.138   1.335  1.6045  0.0419 -0.5454
12782SOL     OW49274   7.714   2.258   4.291  0.6323  0.0565 -0.1861
12782SOL    HW149275   7.675   2.174   4.330  1.8732 -0.4796 -0.0825
12782SOL    HW249276   7.812   2.247   4.279  0.7526  1.3744 -0.5152
12783SOL     OW49277   9.911   5.439   2.520  0.1084  0.2527 -0.6751
12783SOL    HW149278   9.908   5.415   2.423 -0.7571 -1.8271 -0.1560
12783SOL    HW249279   9.844   5.512   2.538 -0.1553  0.2266 -1.5193
12784SOL     OW49280   7.255   6.591   4.705  0.2575  0.5256  0.2184
12784SOL    HW149281   7.234   6.609   4.609 -1.3943  0.9492  0.6470
12784SOL    HW249282   7.260   6.492   4.720 -0.3500  0.4371 -0.1350
12785SOL     OW49283   9.925   1.199   0.588 -0.1055  0.0097 -0.1183
12785SOL    HW149284   9.850   1.263   0.571 -0.0857  0.1850  0.4218
12785SOL    HW249285   9.987   1.198   0.510  0.1920  1.0701  0.0988
12786SOL     OW49286   3.337   2.578   1.692 -0.0953  0.2471  0.0966
12786SOL    HW149287   3.378   2.573   1.601  1.3551  1.0061  0.7011
12786SOL    HW249288   3.312   2.672   1.714 -2.2504 -0.2026 -0.2800
12787SOL     OW49289   0.360   9.021   0.770 -0.2315  0.4282 -0.4850
12787SOL    HW149290   0.327   8.937   0.811  0.0291  1.8624  2.8047
12787SOL    HW249291   0.303   9.045   0.691 -1.9143 -1.4178  0.1533
12788SOL     OW49292   8.898   6.129   6.181 -0.2986  0.5665 -0.9010
12788SOL    HW149293   8.864   6.219   6.156 -0.3335  0.4099 -1.4281
12788SOL    HW249294   8.840   6.058   6.140 -1.0212  0.3036  0.5524
12789SOL     OW49295   1.940   2.766   4.611  0.5133  0.5527 -0.3404
12789SOL    HW149296   1.928   2.731   4.518  2.5681  0.6141 -0.6583
12789SOL    HW249297   2.016   2.832   4.611 -0.3054  1.5042  1.1380
12790SOL     OW49298   6.029   8.188   4.124 -0.1733  0.3974 -0.1784
12790SOL    HW149299   5.934   8.164   4.104  0.1018 -0.7802 -0.1257
12790SOL    HW249300   6.049   8.168   4.220 -0.2195  1.8104  0.1304
12791SOL     OW49301   1.080   5.411   4.842  0.1685  0.1356  0.3566
12791SOL    HW149302   1.119   5.463   4.918  0.7630  0.5221 -0.2100
12791SOL    HW249303   1.029   5.472   4.782  0.5083 -0.0023 -0.0744
12792SOL     OW49304   1.818   9.407   2.794  0.2575 -0.1655  0.2450
12792SOL    HW149305   1.867   9.376   2.875 -1.7042 -0.3818  1.3963
12792SOL    HW249306   1.782   9.328   2.744 -0.7323  0.0622  0.5895
12793SOL     OW49307   9.962   9.062   2.126  0.2801 -0.8268  0.4597
12793SOL    HW149308  10.044   9.105   2.087 -0.8749 -0.1358 -1.2840
12793SOL    HW249309   9.986   9.017   2.211  2.5208 -0.7942 -0.1087
12794SOL     OW49310   3.231   6.188   0.330 -0.2847  0.5518 -0.4505
12794SOL    HW149311   3.245   6.112   0.266 -0.0240  1.5137 -1.5368
12794SOL    HW249312   3.169   6.255   0.289  1.9951  2.4785 -0.8115
12795SOL     OW49313   9.203   2.450   2.054 -0.0800 -0.1680 -0.3006
12795SOL    HW149314   9.219   2.466   1.957 -1.0389 -2.0954 -0.7960
12795SOL    HW249315   9.107   2.425   2.069 -0.0866  0.7050  1.2160
12796SOL     OW49316   9.526   6.661   5.951 -0.3621  0.0098  0.2611
12796SOL    HW149317   9.562   6.567   5.950  0.3535  0.2351  2.3396
12796SOL    HW249318   9.434   6.661   5.990 -0.0950  0.2576  0.8937
12797SOL     OW49319   8.516   2.194   4.821  0.6200  0.4243 -0.4335
12797SOL    HW149320   8.572   2.202   4.905 -0.3312 -1.1269  0.3644
12797SOL    HW249321   8.543   2.112   4.771  1.0518  1.2478 -1.5866
12798SOL     OW49322   1.293   3.599   2.099  0.0916  0.2021  0.3871
12798SOL    HW149323   1.326   3.675   2.043 -1.5369  1.4102  1.0455
12798SOL    HW249324   1.366   3.571   2.162  0.3557  1.9237  0.8761
12799SOL     OW49325   2.823   4.380   4.997  0.3854  0.2984 -0.1069
12799SOL    HW149326   2.739   4.394   4.945  1.2529 -0.4589 -1.7151
12799SOL    HW249327   2.902   4.400   4.940  1.3873 -1.5288  0.5916
12800SOL     OW49328   3.889   3.339   1.946  0.3587 -0.4449 -0.0523
12800SOL    HW149329   3.843   3.279   2.012  1.3118 -0.1379  0.9158
12800SOL    HW249330   3.986   3.348   1.971  0.5903  0.1973 -1.1307
12801SOL     OW49331   0.031   8.167   0.614 -0.3647 -0.7157 -0.2657
12801SOL    HW149332  -0.065   8.143   0.623 -0.4163 -0.4109  0.0212
12801SOL    HW249333   0.066   8.134   0.526 -0.1303 -2.8311  0.5803
12802SOL     OW49334   9.483   2.830   1.167  0.2572  0.2724  0.1234
12802SOL    HW149335   9.525   2.912   1.129 -0.7265  0.5391 -0.4086
12802SOL    HW249336   9.404   2.804   1.111  0.6818 -1.1530  0.1767
12803SOL     OW49337   2.039   8.630   0.791 -0.0747 -0.8950  0.1254
12803SOL    HW149338   2.072   8.539   0.817  0.6291 -0.4622  0.7510
12803SOL    HW249339   2.033   8.688   0.872  3.3405  0.8522 -0.7809
12804SOL     OW49340   0.260   0.135   2.076  0.4926 -0.5454  0.0689
12804SOL    HW149341   0.216   0.048   2.054 -2.6941  0.3687  2.3240
12804SOL    HW249342   0.242   0.157   2.172 -1.3207  3.9274 -1.1622
12805SOL     OW49343   3.612   6.143   6.706  0.2095 -0.4638 -0.5444
12805SOL    HW149344   3.555   6.203   6.764  0.2708 -0.7778 -0.1609
12805SOL    HW249345   3.605   6.174   6.611 -0.0274 -0.0506 -0.3975
12806SOL     OW49346   0.197   6.558   2.332  0.1160 -0.2245 -0.2748
12806SOL    HW149347   0.133   6.535   2.404 -2.9642  0.2566 -2.7606
12806SOL    HW249348   0.209   6.657   2.327  0.7135 -0.2854 -0.1148
12807SOL     OW49349   8.576   2.661   4.123  0.3093 -0.0257  0.5067
12807SOL    HW149350   8.609   2.741   4.073  2.5137 -2.5636 -2.3402
12807SOL    HW249351   8.487   2.633   4.088  1.0944 -0.8054 -0.9151
12808SOL     OW49352   7.467   9.368   3.440  0.3751  0.0685 -0.4189
12808SOL    HW149353   7.532   9.367   3.365  2.2971 -1.2342  1.1868
12808SOL    HW249354   7.463   9.277   3.482 -1.5849  0.4430  0.2728
12809SOL     OW49355   2.428   0.937   1.693  0.2438  0.3788  0.2682
12809SOL    HW149356   2.363   0.875   1.649  0.3507  0.1791  0.3888
12809SOL    HW249357   2.422   1.028   1.651 -0.1681  0.3812  0.3340
12810SOL     OW49358   7.941   6.387   4.723  0.0138  0.1810 -0.1240
12810SOL    HW149359   7.957   6.471   4.775 -2.0219  0.7235 -0.3270
12810SOL    HW249360   7.869   6.402   4.656  0.3569 -1.4438 -0.8883
12811SOL     OW49361   4.328   9.513   2.067  0.7280 -0.5455  0.4069
12811SOL    HW149362   4.306   9.512   2.165 -1.9230 -1.5666 -0.1410
12811SOL    HW249363   4.264   9.574   2.020  1.9289 -0.1434 -0.7326
12812SOL     OW49364   3.533   3.129   2.956 -0.2616  0.4745  0.7329
12812SOL    HW149365   3.626   3.150   2.926 -0.8917  0.6654 -1.1517
12812SOL    HW249366   3.482   3.214   2.971 -1.2895  0.3870 -2.0238
12813SOL     OW49367   0.592   5.653   3.860 -0.7553 -0.3092  0.1889
12813SOL    HW149368   0.548   5.739   3.832 -1.3503 -0.8621 -0.5843
12813SOL    HW249369   0.577   5.639   3.958 -2.0645 -0.3335  0.0014
12814SOL     OW49370   9.941   3.447   3.731  0.5312  0.4212  0.0791
12814SOL    HW149371   9.888   3.393   3.665 -0.5936  1.0012  0.4964
12814SOL    HW249372   9.887   3.525   3.760  2.3152  2.0123 -0.8189
12815SOL     OW49373   5.536   8.175   2.984 -0.2772 -0.4854 -0.0039
12815SOL    HW149374   5.504   8.125   2.903 -1.1635  0.8859 -0.5210
12815SOL    HW249375   5.635   8.181   2.983 -0.3588  0.9656 -1.8966
12816SOL     OW49376   4.656   8.978   4.341  0.2273  0.7763 -0.2222
12816SOL    HW149377   4.574   8.938   4.300 -0.2752  2.1934 -0.6448
12816SOL    HW249378   4.670   8.939   4.432  1.5826 -2.6808 -1.8332
12817SOL     OW49379   9.901   3.550   2.673 -0.2755  0.8064  0.4437
12817SOL    HW149380   9.836   3.622   2.649 -0.5278  0.5858  0.4667
12817SOL    HW249381   9.872   3.505   2.758 -1.7438 -1.2856 -1.0980
12818SOL     OW49382   9.091   0.748   0.657  0.6688 -0.0897  0.1483
12818SOL    HW149383   9.077   0.684   0.733  1.6640 -1.1097 -0.5244
12818SOL    HW249384   9.045   0.834   0.679  2.3496  0.2353  2.6906
12819SOL     OW49385   9.265   6.148   2.523  1.0050 -0.3239 -0.1770
12819SOL    HW149386   9.325   6.123   2.599  0.4257 -0.9024  0.0874
12819SOL    HW249387   9.319   6.192   2.451  1.1386  2.9814  1.8107
12820SOL     OW49388   0.397   8.494   4.622  0.3309  0.0906 -0.0346
12820SOL    HW149389   0.357   8.532   4.705 -0.6936 -0.4331 -0.2851
12820SOL    HW249390   0.497   8.497   4.629  0.2618 -0.7959  1.6028
12821SOL     OW49391   1.735   7.986   6.072  0.1467  0.0701  0.3516
12821SOL    HW149392   1.673   7.922   6.027  0.7573 -0.1359 -0.1987
12821SOL    HW249393   1.815   7.937   6.107  0.1514  0.3784  0.7815
12822SOL     OW49394   2.887   0.039   1.218 -0.0522  0.1184  0.8343
12822SOL    HW149395   2.884  -0.058   1.245 -0.8610  0.2488  1.2417
12822SOL    HW249396   2.870   0.046   1.120  0.7694 -0.2078  0.6670
12823SOL     OW49397   4.552   3.721   0.522  0.4776  0.4678 -0.2521
12823SOL    HW149398   4.477   3.787   0.517 -0.0966 -0.1118  0.5358
12823SOL    HW249399   4.536   3.658   0.599  1.7245  0.2818 -0.1348
12824SOL     OW49400   4.180   6.577   2.536 -0.0977 -0.1492  0.3647
12824SOL    HW149401   4.090   6.587   2.579  0.3829  2.7939  0.7663
12824SOL    HW249402   4.169   6.579   2.437 -0.5329 -0.5638  0.3968
12825SOL     OW49403   8.089   3.710   1.846  0.4669 -0.2740 -0.7138
12825SOL    HW149404   8.069   3.808   1.859 -0.4952 -0.4675 -0.6411
12825SOL    HW249405   8.171   3.686   1.897  0.1808  0.3038  0.0473
12826SOL     OW49406   1.216   6.815   5.279  0.5813  0.5194 -0.8739
12826SOL    HW149407   1.316   6.812   5.279  0.5422 -2.7852 -1.7267
12826SOL    HW249408   1.186   6.891   5.221  2.6055  0.8365 -1.5691
12827SOL     OW49409   3.177   3.163   2.619  0.4872 -0.2759  0.0344
12827SOL    HW149410   3.195   3.064   2.620  0.5565 -0.2628  0.1146
12827SOL    HW249411   3.220   3.205   2.698  0.1703 -0.2306  0.1833
12828SOL     OW49412   0.332   8.934   1.491  0.4316 -0.2649  0.1625
12828SOL    HW149413   0.344   9.019   1.440  0.2312 -0.8713 -0.9272
12828SOL    HW249414   0.384   8.938   1.576 -2.0583  2.1970  1.6970
12829SOL     OW49415   0.844   6.814   3.039 -0.4350  0.1556 -0.2539
12829SOL    HW149416   0.909   6.749   2.999 -1.4809 -0.2424 -1.3274
12829SOL    HW249417   0.853   6.812   3.139  1.4983  0.4267 -0.3897
12830SOL     OW49418   8.271   4.993   4.763 -0.1609 -0.0857  0.2080
12830SOL    HW149419   8.204   5.062   4.789  0.2038  0.2865  0.1563
12830SOL    HW249420   8.314   5.019   4.677  0.0610 -0.3183  0.2470
12831SOL     OW49421   1.651   5.230   4.777  0.0764 -0.1547 -0.5434
12831SOL    HW149422   1.576   5.194   4.833  0.1683  0.1347 -0.2323
12831SOL    HW249423   1.697   5.303   4.827  1.9824 -1.8346  0.2106
12832SOL     OW49424   9.178   5.880   1.966 -0.1420  0.1940  0.2013
12832SOL    HW149425   9.155   5.931   2.049  1.0582  0.9168  0.0953
12832SOL    HW249426   9.174   5.782   1.985  1.1331  0.3631  1.3935
12833SOL     OW49427   4.485   3.769   2.275 -0.2183  0.4674 -0.4034
12833SOL    HW149428   4.528   3.700   2.217 -0.5240 -0.3808  0.3603
12833SOL    HW249429   4.546   3.790   2.352 -0.2892  0.7783 -0.4320
12834SOL     OW49430   9.486   6.772   2.503 -0.1768 -0.4023  0.1999
12834SOL    HW149431   9.410   6.746   2.444 -0.6756 -2.2661  1.5962
12834SOL    HW249432   9.477   6.724   2.591  4.5477 -3.5538 -0.8670
12835SOL     OW49433   2.115   3.581   2.407 -0.6220  0.4425 -0.0902
12835SOL    HW149434   2.099   3.570   2.309 -1.5734 -2.5120  0.3438
12835SOL    HW249435   2.028   3.592   2.454 -0.2390  0.8447  0.5245
12836SOL     OW49436   7.135   9.837   1.885 -0.0266 -0.0807 -0.0887
12836SOL    HW149437   7.044   9.806   1.912 -1.2130  3.2375 -0.0786
12836SOL    HW249438   7.128   9.925   1.838  3.3202  1.0190  1.3068
12837SOL     OW49439   8.810   8.431   2.026  0.2526 -0.6669  0.1977
12837SOL    HW149440   8.744   8.375   2.077 -0.8779  0.3937 -0.0874
12837SOL    HW249441   8.866   8.371   1.968 -0.8214 -1.5313  0.0380
12838SOL     OW49442   9.140   8.709   1.024 -0.5772 -0.3770  0.9313
12838SOL    HW149443   9.082   8.785   0.995 -0.1112 -0.2536  0.2995
12838SOL    HW249444   9.133   8.697   1.123 -0.4486  0.6709  1.0741
12839SOL     OW49445   2.982   6.096   3.881  0.4585  0.0614  0.5729
12839SOL    HW149446   2.988   6.038   3.962  1.4521 -1.1180 -0.3257
12839SOL    HW249447   3.057   6.074   3.819 -1.7398 -0.8960 -1.8559
12840SOL     OW49448   6.943   4.621   0.852  0.0958  0.0190 -0.3317
12840SOL    HW149449   6.932   4.645   0.756 -2.2431 -0.6905 -0.2612
12840SOL    HW249450   7.038   4.593   0.868  0.5597  0.3314 -2.3832
12841SOL     OW49451   2.135   2.416   3.802  0.2034  0.2556  0.1301
12841SOL    HW149452   2.118   2.470   3.884 -1.3341 -0.9259  0.6236
12841SOL    HW249453   2.094   2.462   3.722  1.4282  1.2492  0.0699
12842SOL     OW49454   1.045   0.358   2.323  0.7433 -0.0227  0.3841
12842SOL    HW149455   1.105   0.421   2.274  1.0662 -0.1808  0.5697
12842SOL    HW249456   1.004   0.404   2.402 -0.0804  0.3440 -0.2524
12843SOL     OW49457   3.598   3.196   3.600  0.1608 -0.3701 -0.7745
12843SOL    HW149458   3.504   3.174   3.628 -0.1895  1.2532 -0.5950
12843SOL    HW249459   3.632   3.125   3.539 -0.3279 -2.1674  1.0130
12844SOL     OW49460   8.999   4.573   1.969 -0.4292 -0.0107 -0.4634
12844SOL    HW149461   9.004   4.622   1.882 -0.7841  2.1064  0.6797
12844SOL    HW249462   9.050   4.487   1.962  0.5747  0.7206 -2.3791
12845SOL     OW49463   5.600   3.658   0.065 -0.0085  0.0363 -0.0022
12845SOL    HW149464   5.635   3.744   0.102 -0.2519  0.6063 -1.0786
12845SOL    HW249465   5.522   3.628   0.119  0.5591  0.0891  0.8483
12846SOL     OW49466   2.669   4.563   6.385  0.2673 -0.1254 -0.3275
12846SOL    HW149467   2.673   4.463   6.386  1.0388 -0.1340  2.4637
12846SOL    HW249468   2.755   4.599   6.422  0.3730  1.6103 -2.2075
12847SOL     OW49469   7.920   2.754   1.914 -0.0304 -0.3546 -0.2967
12847SOL    HW149470   8.000   2.757   1.853 -0.2684  2.5767 -0.5479
12847SOL    HW249471   7.839   2.729   1.861  0.6784 -3.5237 -0.0080
12848SOL     OW49472   3.185   4.900   4.902  0.2620  0.5746 -0.4353
12848SOL    HW149473   3.097   4.888   4.948  0.2942 -0.0078 -0.5200
12848SOL    HW249474   3.259   4.877   4.965  0.2953 -0.5463 -0.8716
12849SOL     OW49475   5.729   0.222   2.415 -0.5816 -0.6264  0.0589
12849SOL    HW149476   5.757   0.132   2.382  1.9876  0.7706 -1.7217
12849SOL    HW249477   5.790   0.251   2.488 -1.3567 -0.2895  0.5744
12850SOL     OW49478   9.137   3.994   1.331 -0.3321 -0.7196  0.3737
12850SOL    HW149479   9.085   3.909   1.322  1.2054 -1.5438 -0.9874
12850SOL    HW249480   9.150   4.015   1.428 -2.3032 -1.0425  0.7230
12851SOL     OW49481   5.517   8.547   2.730 -0.1028  0.6187  0.9714
12851SOL    HW149482   5.589   8.486   2.765 -0.1421 -1.6096 -2.5748
12851SOL    HW249483   5.559   8.625   2.685 -0.0011  1.0489  1.7897
12852SOL     OW49484   6.925   7.442   5.097  0.4673  0.0853  0.4907
12852SOL    HW149485   6.990   7.398   5.036 -0.1111 -0.0774 -0.0101
12852SOL    HW249486   6.938   7.407   5.190  0.7141 -0.3583  0.2918
12853SOL     OW49487   2.796   3.582   0.503  0.2589 -0.1675 -0.3528
12853SOL    HW149488   2.843   3.578   0.415  2.4120  0.4191  0.7256
12853SOL    HW249489   2.829   3.508   0.561 -2.0644 -1.3105 -0.4468
12854SOL     OW49490   8.263   2.382   3.854 -0.0368 -0.0110  0.3802
12854SOL    HW149491   8.322   2.403   3.776  1.3779  2.1877  1.9738
12854SOL    HW249492   8.237   2.286   3.851  0.4343 -0.0862 -2.4900
12855SOL     OW49493   2.908   7.923   1.569 -0.0770  0.9967 -0.0215
12855SOL    HW149494   2.841   7.849   1.569  0.3339  0.6085 -0.5833
12855SOL    HW249495   2.979   7.904   1.637 -0.6716  1.5327  0.7465
12856SOL     OW49496   9.937   7.369   5.445 -0.4004  0.5717 -0.1130
12856SOL    HW149497   9.897   7.278   5.452 -0.6716  0.5556 -1.6347
12856SOL    HW249498  10.031   7.368   5.480  0.3038 -0.7739 -1.9485
12857SOL     OW49499   3.824   6.692   0.798  1.0465  0.1422 -0.1955
12857SOL    HW149500   3.922   6.678   0.785  0.8500 -1.9794  0.3658
12857SOL    HW249501   3.779   6.603   0.805 -0.7809  1.1082  0.5480
12858SOL     OW49502   0.138   5.373   1.387  0.0810 -0.3104  0.5987
12858SOL    HW149503   0.171   5.427   1.309  1.3375  0.5481  1.7235
12858SOL    HW249504   0.041   5.353   1.373  0.4439 -0.7771 -1.5402
12859SOL     OW49505   1.923   0.361   4.545 -0.0455 -0.2532 -0.6058
12859SOL    HW149506   1.962   0.295   4.480  0.4539 -0.0270 -0.5445
12859SOL    HW249507   1.989   0.435   4.560 -0.9184  0.6733 -1.2823
12860SOL     OW49508   8.575   5.736   3.500  0.0038 -0.0978  0.3324
12860SOL    HW149509   8.644   5.668   3.477  0.6855  0.4773  0.6674
12860SOL    HW249510   8.507   5.695   3.560  0.7730 -0.3018  1.0673
12861SOL     OW49511   7.272   0.349   0.607 -0.1352  0.3195 -0.1562
12861SOL    HW149512   7.183   0.324   0.645  0.8586  0.6280  2.4834
12861SOL    HW249513   7.287   0.447   0.622  1.1585  0.0231  0.5092
12862SOL     OW49514   7.243   9.046   3.633 -0.0126  0.4169 -0.2712
12862SOL    HW149515   7.241   9.142   3.662  1.2847  0.7692 -1.2747
12862SOL    HW249516   7.184   9.034   3.553 -0.5313  0.2812  0.1322
12863SOL     OW49517   9.010   7.244   2.326  0.6422 -0.2002  0.2498
12863SOL    HW149518   9.007   7.232   2.425  1.8758 -2.0235  0.0892
12863SOL    HW249519   8.928   7.293   2.295 -0.2135 -0.4862  2.0456
12864SOL     OW49520   5.637   7.003   2.050 -0.2090 -0.2211  0.4407
12864SOL    HW149521   5.634   7.044   1.959 -0.1394 -0.5896  0.2741
12864SOL    HW249522   5.706   7.051   2.105  0.7458 -0.9038 -0.1421
12865SOL     OW49523   0.693   4.007   1.590  0.1020 -0.1767 -0.2650
12865SOL    HW149524   0.594   4.024   1.594  0.1230  0.1865 -1.0707
12865SOL    HW249525   0.734   4.071   1.525  0.5637 -1.6599 -1.4460
12866SOL     OW49526   6.973   7.862   3.086  0.3419  0.4670  0.2936
12866SOL    HW149527   6.979   7.933   3.156 -1.4434  0.6548  0.2709
12866SOL    HW249528   6.877   7.836   3.072  0.8025 -0.5941 -1.0507
12867SOL     OW49529   2.430   0.050   1.275  0.6910  0.0302  0.1086
12867SOL    HW149530   2.349  -0.008   1.263  1.4766 -1.0953  0.1090
12867SOL    HW249531   2.511   0.002   1.239  1.2432  1.4370 -0.5486
12868SOL     OW49532   5.074   0.926   1.902  0.5441  0.8576 -0.2843
12868SOL    HW149533   5.112   0.863   1.970 -0.1188 -0.8389 -1.4334
12868SOL    HW249534   5.141   0.940   1.829  0.8948  1.9240  0.2376
12869SOL     OW49535   4.271   0.665   0.852 -0.0024  0.6871  0.3185
12869SOL    HW149536   4.324   0.607   0.914 -2.2505 -3.1840 -1.1600
12869SOL    HW249537   4.208   0.723   0.905  1.4641  0.9373  1.8068
12870SOL     OW49538   1.545   3.126   1.158 -0.2141 -0.1561 -0.5821
12870SOL    HW149539   1.611   3.105   1.085  2.0082  1.0507  1.0253
12870SOL    HW249540   1.565   3.068   1.237 -2.2330 -1.0258 -0.6875
12871SOL     OW49541   8.185   0.339   3.527  0.1970 -0.0294  0.2693
12871SOL    HW149542   8.248   0.295   3.591  0.0540 -1.6670 -0.6635
12871SOL    HW249543   8.118   0.393   3.577 -0.6763 -2.2812  1.6211
12872SOL     OW49544   3.737   1.665   4.044  0.5056  0.3634  0.0957
12872SOL    HW149545   3.736   1.733   3.970  1.9745  0.4165  0.1146
12872SOL    HW249546   3.649   1.666   4.091  0.0110  1.2390 -0.8361
12873SOL     OW49547   4.314   4.035   4.170 -0.1370 -0.0109  0.1033
12873SOL    HW149548   4.236   3.989   4.127  0.0228 -0.4246  0.2514
12873SOL    HW249549   4.304   4.134   4.159 -0.1520 -0.1076 -0.7971
12874SOL     OW49550   9.659   0.516   3.292  0.2767 -0.1359 -0.3650
12874SOL    HW149551   9.602   0.566   3.358  0.9581  1.4896 -0.9871
12874SOL    HW249552   9.751   0.555   3.291  1.4064 -2.6550  0.5427
12875SOL     OW49553   0.791   3.780   3.204 -0.2371 -0.1076 -0.1633
12875SOL    HW149554   0.805   3.689   3.245 -0.3559 -0.5135 -1.0165
12875SOL    HW249555   0.720   3.775   3.135 -0.9787  0.8723  0.5148
12876SOL     OW49556   0.315   5.421   2.687 -0.0189  0.4195 -0.0816
12876SOL    HW149557   0.379   5.361   2.639 -1.2588 -1.4392  0.5237
12876SOL    HW249558   0.226   5.376   2.694 -0.2381  1.1721  2.7829
12877SOL     OW49559   3.141   6.673   0.177 -0.1462  0.7721  0.2894
12877SOL    HW149560   3.235   6.676   0.209 -0.3741  0.0917  1.0274
12877SOL    HW249561   3.108   6.766   0.161  1.1435  0.9475 -1.4529
12878SOL     OW49562   8.943   7.359   6.554  0.2139 -0.4159  0.4024
12878SOL    HW149563   8.924   7.275   6.502 -0.7873  1.3741 -2.2637
12878SOL    HW249564   9.025   7.402   6.518  0.5444 -0.0862  1.5458
12879SOL     OW49565   5.779   9.616   3.000 -0.2902  0.0802 -0.1610
12879SOL    HW149566   5.812   9.630   2.907  0.7076  0.5094  0.2539
12879SOL    HW249567   5.747   9.704   3.037  1.2657  0.3290  0.6375
12880SOL     OW49568   9.751   7.518   0.550  0.3272  0.5541  0.1305
12880SOL    HW149569   9.832   7.527   0.494  1.0848 -2.2294  0.6958
12880SOL    HW249570   9.717   7.424   0.546 -1.5431  1.1072  1.6951
12881SOL     OW49571   1.439   2.948   4.181 -0.6787  0.3258 -0.0822
12881SOL    HW149572   1.437   3.047   4.169 -0.4559  0.3236 -0.1287
12881SOL    HW249573   1.405   2.903   4.099  1.2523  0.2925 -0.8712
12882SOL     OW49574   3.530   2.899   2.354 -0.5177  0.3078  0.2739
12882SOL    HW149575   3.582   2.968   2.404  0.0456  0.0661  0.0280
12882SOL    HW249576   3.578   2.876   2.270 -0.3076 -0.9750  0.7415
12883SOL     OW49577   1.815   1.932   2.462  0.1194 -0.3771  0.0534
12883SOL    HW149578   1.871   1.855   2.493 -0.3670 -0.9174 -0.3942
12883SOL    HW249579   1.809   1.931   2.362 -1.2875 -0.7435  0.1406
12884SOL     OW49580   1.232   4.443   5.023  0.1549  0.0439 -0.1269
12884SOL    HW149581   1.165   4.385   5.069 -1.1821  1.0501 -0.7895
12884SOL    HW249582   1.268   4.510   5.089  0.5205 -0.5017  0.2312
12885SOL     OW49583   4.342   6.547   0.793  0.0962  0.0514 -0.9808
12885SOL    HW149584   4.414   6.553   0.863  1.8182  0.7856 -2.7550
12885SOL    HW249585   4.335   6.453   0.761 -1.2484 -0.4481  0.7094
12886SOL     OW49586   0.165   2.761   3.001  0.1191  0.3801 -0.0292
12886SOL    HW149587   0.140   2.666   3.018 -2.4804  1.2015  1.0557
12886SOL    HW249588   0.176   2.808   3.089  3.1127  0.6831 -0.5261
12887SOL     OW49589   3.916   7.908   3.795 -0.0502  0.2707  0.1338
12887SOL    HW149590   3.839   7.869   3.743  2.3068 -1.0287 -2.5057
12887SOL    HW249591   3.972   7.963   3.734  0.2320  2.5753  2.4260
12888SOL     OW49592   6.609   9.291   2.794 -0.5901  0.1432 -0.3504
12888SOL    HW149593   6.659   9.206   2.776  1.6122  1.2109  0.5897
12888SOL    HW249594   6.521   9.288   2.746  0.6314 -1.4812 -2.5861
12889SOL     OW49595   0.093   1.992   2.279  0.0015 -0.9283  0.5353
12889SOL    HW149596   0.054   2.074   2.322 -0.9292 -1.4033  0.6254
12889SOL    HW249597   0.109   2.010   2.181 -3.0603 -1.5668 -0.1440
12890SOL     OW49598   5.414   7.601   4.252 -0.0685  0.0190 -0.2907
12890SOL    HW149599   5.351   7.542   4.302  0.8588  0.1919  1.1135
12890SOL    HW249600   5.466   7.546   4.187  0.2193 -0.5877  0.4418
12891SOL     OW49601   3.813   7.354   3.990 -0.0340 -0.5076  0.0575
12891SOL    HW149602   3.821   7.426   3.920  2.9191 -1.5089 -0.6705
12891SOL    HW249603   3.854   7.386   4.076  1.6423 -1.4405 -0.3804
12892SOL     OW49604   2.771   4.114   5.096  0.3617  0.0625 -0.4570
12892SOL    HW149605   2.671   4.116   5.091  0.4009  0.9846 -0.9464
12892SOL    HW249606   2.808   4.204   5.070  1.3013 -0.1661  0.0592
12893SOL     OW49607   0.287   6.017   4.180 -0.2100  0.2303  0.2657
12893SOL    HW149608   0.258   5.933   4.226 -0.1015  0.2226  0.3189
12893SOL    HW249609   0.338   5.993   4.097  2.2770  0.2257  1.7659
12894SOL     OW49610   3.580   1.397   4.362 -0.0734  0.5635 -0.1371
12894SOL    HW149611   3.661   1.369   4.310 -0.1308  1.6634 -0.8335
12894SOL    HW249612   3.526   1.317   4.386  1.4639 -0.2329  0.7456
12895SOL     OW49613   8.879   2.212   1.402  0.1883  0.2268 -0.0376
12895SOL    HW149614   8.832   2.194   1.315  0.6503  0.7496 -0.3991
12895SOL    HW249615   8.920   2.303   1.399  1.8763 -0.5196 -0.0220
12896SOL     OW49616   1.633   1.335   3.880  0.1501 -0.4177  0.4079
12896SOL    HW149617   1.594   1.275   3.950  0.0710  0.7608  1.3990
12896SOL    HW249618   1.701   1.395   3.922 -1.0731  1.4330 -0.1883
12897SOL     OW49619   2.477   2.235   3.637 -0.2254 -0.3561  0.5440
12897SOL    HW149620   2.527   2.149   3.645  0.5215  0.1371  1.2755
12897SOL    HW249621   2.498   2.278   3.550 -1.6863 -1.5782 -0.4447
12898SOL     OW49622   7.770   8.564   5.530  0.3916  0.0600 -0.2844
12898SOL    HW149623   7.675   8.552   5.559  0.6824 -2.1561 -0.1473
12898SOL    HW249624   7.795   8.661   5.538 -1.1500  0.3351  1.8407
12899SOL     OW49625   1.041   8.531   3.980 -0.3059  0.6413 -0.3841
12899SOL    HW149626   1.099   8.612   3.987 -1.7906  1.7242 -0.3086
12899SOL    HW249627   1.071   8.475   3.903  2.2212  0.0187  0.9732
12900SOL     OW49628   9.998   6.672   1.720  0.0861 -0.1119  0.3761
12900SOL    HW149629  10.079   6.634   1.674 -0.8836 -1.2676 -0.4172
12900SOL    HW249630   9.928   6.692   1.652 -0.2746  0.9717  1.0568
12901SOL     OW49631   6.117   0.799   4.158  0.0844  0.4521 -0.4585
12901SOL    HW149632   6.197   0.857   4.144 -0.6789  1.5093 -0.5419
12901SOL    HW249633   6.037   0.842   4.116 -0.9627  0.5020  1.5046
12902SOL     OW49634   2.768   1.745   1.932 -0.0529 -0.7670  0.1204
12902SOL    HW149635   2.831   1.710   2.002  2.2694  0.6767 -1.1956
12902SOL    HW249636   2.745   1.840   1.952  0.1693 -0.5210 -0.7709
12903SOL     OW49637   1.785   5.560   2.909 -0.3074  0.2533 -0.2561
12903SOL    HW149638   1.771   5.472   2.863 -0.9906  0.7705 -1.0466
12903SOL    HW249639   1.848   5.547   2.986  4.2762  0.0430 -3.7599
12904SOL     OW49640   9.453   0.135   4.654  0.1695 -0.1233  0.3977
12904SOL    HW149641   9.467   0.036   4.668 -0.8353 -0.1344  1.3940
12904SOL    HW249642   9.520   0.169   4.588  0.6257 -1.4457  0.1627
12905SOL     OW49643   9.866   9.364   1.505 -0.0586 -0.2173  0.2595
12905SOL    HW149644   9.897   9.459   1.506 -0.0786 -0.1383 -2.2275
12905SOL    HW249645   9.766   9.360   1.512 -0.0532 -0.0544  0.4211
12906SOL     OW49646   8.332   2.561   0.378 -0.0240 -0.5716  0.4366
12906SOL    HW149647   8.381   2.475   0.363  0.0851 -0.6878  1.4064
12906SOL    HW249648   8.256   2.567   0.314  1.3724 -0.2799 -1.2217
12907SOL     OW49649   1.765   7.715   5.881  0.3044  0.2043  0.2860
12907SOL    HW149650   1.672   7.752   5.875  0.8150  1.3728 -0.5799
12907SOL    HW249651   1.774   7.637   5.819  0.3055  0.9570 -0.6618
12908SOL     OW49652   8.579   8.939   5.277 -0.1080  0.3782  0.3805
12908SOL    HW149653   8.635   8.998   5.336 -0.8027  1.9651 -0.5233
12908SOL    HW249654   8.482   8.956   5.295 -0.3511 -1.8587  1.4397
12909SOL     OW49655   9.375   6.243   4.511  0.3304  0.1068  0.2944
12909SOL    HW149656   9.446   6.265   4.579  1.6262 -2.1186 -0.2885
12909SOL    HW249657   9.388   6.300   4.430  2.9838 -1.8994 -0.7707
12910SOL     OW49658   2.040   0.209   4.046  0.0125 -0.3714 -0.3507
12910SOL    HW149659   1.952   0.173   4.016 -0.4777  0.0901  0.5102
12910SOL    HW249660   2.026   0.299   4.089  0.7285 -0.8956  1.0062
12911SOL     OW49661   9.599   6.232   4.228  0.1005  0.2980 -0.3913
12911SOL    HW149662   9.639   6.286   4.154  0.9851 -0.8840 -0.7803
12911SOL    HW249663   9.539   6.162   4.190 -0.0463  0.1807  0.0501
12912SOL     OW49664   9.903   2.471   0.651 -0.4036 -0.0495 -0.4455
12912SOL    HW149665   9.972   2.414   0.696 -0.9651 -0.7431 -0.4412
12912SOL    HW249666   9.903   2.562   0.691  1.4940  0.3987 -1.4238
12913SOL     OW49667   1.283   6.268   5.562 -0.3968  0.4676  0.6739
12913SOL    HW149668   1.292   6.348   5.622 -1.3497  0.5678  0.7005
12913SOL    HW249669   1.309   6.186   5.611 -0.5748  0.6247  1.0331
12914SOL     OW49670   2.019   8.220   3.167  0.3571 -0.3471  0.3380
12914SOL    HW149671   2.014   8.220   3.067  1.9459 -1.1691  0.2432
12914SOL    HW249672   2.023   8.125   3.199  0.0854 -0.0739  1.1798
12915SOL     OW49673   8.632   5.093   5.350 -0.0016  0.3781 -0.7432
12915SOL    HW149674   8.724   5.112   5.315 -0.3608  0.1945 -1.8213
12915SOL    HW249675   8.601   5.005   5.315 -0.4869  0.3209 -0.1709
12916SOL     OW49676   7.856   2.219   0.321  0.1218  0.0925 -0.1118
12916SOL    HW149677   7.934   2.160   0.341  0.7112  0.1327 -2.1990
12916SOL    HW249678   7.790   2.170   0.264 -0.8410  0.4440  0.6830
12917SOL     OW49679   9.592   6.719   1.846 -0.0786 -0.0058 -0.0318
12917SOL    HW149680   9.642   6.643   1.805  0.3277  0.6928 -0.8542
12917SOL    HW249681   9.597   6.713   1.945  1.6027  0.0240 -0.1020
12918SOL     OW49682   2.155   6.265   3.477 -0.1673  0.4275 -0.0227
12918SOL    HW149683   2.200   6.348   3.443  1.4345 -0.9929 -1.4251
12918SOL    HW249684   2.224   6.198   3.504 -1.4587 -0.6110  0.7565
12919SOL     OW49685   0.057   3.790   1.985  0.2982 -0.1036 -0.4326
12919SOL    HW149686   0.153   3.800   2.012  0.2549 -0.1806 -0.2469
12919SOL    HW249687   0.004   3.867   2.021  0.2486 -0.1831 -0.3334
12920SOL     OW49688   9.416   9.164   3.858 -0.1919  0.3594 -0.1793
12920SOL    HW149689   9.515   9.159   3.845 -0.0612  1.6993  0.2410
12920SOL    HW249690   9.393   9.134   3.951 -0.2309 -0.3654 -0.4179
12921SOL     OW49691   6.847   9.247   4.243  0.4832 -0.5718  0.2452
12921SOL    HW149692   6.921   9.184   4.265  0.0327 -2.3967 -3.1539
12921SOL    HW249693   6.766   9.195   4.217 -0.9274  1.4247  0.5867
12922SOL     OW49694   7.094   9.101   3.421  0.4945 -0.4556  0.4135
12922SOL    HW149695   7.130   9.188   3.386  1.5476 -1.5953 -1.4625
12922SOL    HW249696   6.996   9.108   3.435  0.8437  1.5937  2.0645
12923SOL     OW49697   5.225   1.244   1.895  0.0882  0.6493 -0.4765
12923SOL    HW149698   5.288   1.301   1.843 -0.4804  2.3892  0.6778
12923SOL    HW249699   5.165   1.303   1.950 -0.6422 -1.0644  0.5952
12924SOL     OW49700   9.283   6.314   3.234 -0.1587 -0.5496  0.0007
12924SOL    HW149701   9.244   6.251   3.167 -2.0177  0.6896 -0.1162
12924SOL    HW249702   9.305   6.401   3.191  1.3200 -0.7106  0.4060
12925SOL     OW49703   9.712   4.103   1.116  0.5811 -0.2179  0.0277
12925SOL    HW149704   9.691   4.006   1.129  0.4851 -0.6592 -3.0322
12925SOL    HW249705   9.801   4.123   1.157 -0.0136 -1.2395  1.9154
12926SOL     OW49706   1.926   3.175   3.436  0.4723 -0.1008 -0.1523
12926SOL    HW149707   1.863   3.230   3.491  0.2033  1.0095 -1.5496
12926SOL    HW249708   1.993   3.132   3.496  0.5827  1.6108  0.9832
12927SOL     OW49709   4.967   1.669   3.172 -0.3809 -0.0366  0.1462
12927SOL    HW149710   4.897   1.738   3.154  0.0138  0.4356  0.4032
12927SOL    HW249711   5.054   1.700   3.134 -0.0698 -0.1124  0.7967
12928SOL     OW49712   5.604   7.605   1.884 -0.1122  0.1771 -0.1597
12928SOL    HW149713   5.541   7.542   1.928  0.2541  0.5249  0.8772
12928SOL    HW249714   5.674   7.634   1.949  1.0411 -0.0929 -1.2589
12929SOL     OW49715   8.090   0.655   4.623  0.0361 -0.2319 -0.0646
12929SOL    HW149716   8.182   0.686   4.600  0.0576 -1.2677 -1.4329
12929SOL    HW249717   8.095   0.583   4.693  0.2920 -0.5888 -0.4504
12930SOL     OW49718   0.651   0.905   2.214 -0.4264 -0.0400 -0.2863
12930SOL    HW149719   0.652   0.872   2.119 -1.5689  1.0253 -0.6905
12930SOL    HW249720   0.562   0.946   2.234  0.9724  2.9362  0.0933
12931SOL     OW49721   0.196   7.611   2.267 -0.3788  0.4069 -0.3033
12931SOL    HW149722   0.210   7.594   2.169  0.1162  0.1073 -0.1743
12931SOL    HW249723   0.275   7.660   2.304  0.1341 -0.8724  0.3053
12932SOL     OW49724   3.908   1.780   2.244  0.2125 -0.4268  0.3142
12932SOL    HW149725   3.844   1.825   2.306 -0.2324 -1.5206  0.6534
12932SOL    HW249726   3.858   1.742   2.166  0.6917  0.3887 -0.4061
12933SOL     OW49727   0.386   0.998   2.311 -0.2904  0.4263  0.1101
12933SOL    HW149728   0.360   0.915   2.262  0.9999 -0.4777  0.9080
12933SOL    HW249729   0.314   1.066   2.302 -1.4274 -0.8228 -0.4707
12934SOL     OW49730   0.157   9.919   3.433  0.7447  0.0987 -0.2563
12934SOL    HW149731   0.164   9.835   3.378  0.2941  0.8609 -1.4913
12934SOL    HW249732   0.248   9.952   3.455  0.9304 -0.8228  0.4183
12935SOL     OW49733   0.297   7.684   5.481 -0.5855 -0.2133  0.0688
12935SOL    HW149734   0.329   7.690   5.576 -1.5053  2.6782  0.2402
12935SOL    HW249735   0.238   7.762   5.461 -2.4151 -2.1126 -2.1628
12936SOL     OW49736   1.994   3.235   0.604  0.9251  0.2775  0.3423
12936SOL    HW149737   2.032   3.312   0.553  0.4706  0.7871  0.7591
12936SOL    HW249738   1.958   3.268   0.692 -0.5109 -0.1734 -0.0562
12937SOL     OW49739   7.375   9.568   3.237  0.0168  0.1636 -0.5598
12937SOL    HW149740   7.439   9.641   3.213  0.2238  0.2862  0.3766
12937SOL    HW249741   7.424   9.493   3.280 -0.3087 -0.2055 -0.8321
12938SOL     OW49742   9.395   2.847   1.423 -0.0841  0.0072  0.6955
12938SOL    HW149743   9.455   2.878   1.497  0.0643 -2.6988  1.7340
12938SOL    HW249744   9.441   2.858   1.336 -0.6020  4.1268  0.8202
12939SOL     OW49745   4.303   9.162   3.534  0.3378  0.2699  0.2637
12939SOL    HW149746   4.208   9.136   3.522  0.6491 -1.3705  1.1866
12939SOL    HW249747   4.309   9.261   3.549 -1.2154  0.3662  0.2902
12940SOL     OW49748   9.990   9.613   2.157  0.0349 -0.0312 -0.0091
12940SOL    HW149749  10.088   9.599   2.177 -0.2704  0.4617  1.9173
12940SOL    HW249750   9.947   9.524   2.140  0.4814 -0.4169  0.8221
12941SOL     OW49751   0.099   0.523   0.638 -0.3116 -0.1587 -0.4758
12941SOL    HW149752   0.198   0.506   0.641 -0.0844  1.0184 -0.9675
12941SOL    HW249753   0.057   0.467   0.566  0.1588  0.1211 -0.9704
12942SOL     OW49754   2.110   1.133   4.713  0.0477 -0.7112 -0.5903
12942SOL    HW149755   2.201   1.126   4.671 -0.3317  1.6027 -1.8188
12942SOL    HW249756   2.049   1.065   4.671  0.2978  0.0179 -2.1687
12943SOL     OW49757   0.449   7.594   5.040 -0.3426  0.4202 -0.9082
12943SOL    HW149758   0.465   7.574   5.137  0.0149  3.4031 -0.3127
12943SOL    HW249759   0.528   7.563   4.987 -0.5079 -1.1650 -0.2513
12944SOL     OW49760   9.188   0.137   1.571  0.2584 -0.4848 -0.7890
12944SOL    HW149761   9.110   0.187   1.608  1.3483 -0.0863  1.0696
12944SOL    HW249762   9.225   0.076   1.642  1.7210 -0.5421 -1.5689
12945SOL     OW49763   4.608   9.805   1.356 -0.2724 -0.3628  0.3927
12945SOL    HW149764   4.514   9.841   1.360 -0.4699 -0.4135 -2.3032
12945SOL    HW249765   4.650   9.832   1.269  1.5446 -1.9451  0.7372
12946SOL     OW49766   0.474   7.659   4.107 -0.2406 -0.1335 -0.0585
12946SOL    HW149767   0.564   7.697   4.087  0.1728 -0.2687  1.4785
12946SOL    HW249768   0.461   7.654   4.206 -1.5804 -0.9703 -0.2601
12947SOL     OW49769   3.130   5.294   3.298 -0.3578  0.2635 -1.0426
12947SOL    HW149770   3.104   5.385   3.332 -0.2399  0.4328 -1.4022
12947SOL    HW249771   3.076   5.271   3.217 -0.3283  0.0471 -1.0016
12948SOL     OW49772   2.128   4.192   3.817  0.1972  0.7894  0.7342
12948SOL    HW149773   2.089   4.181   3.908  0.3750 -0.6127  0.6488
12948SOL    HW249774   2.076   4.262   3.767 -1.2522  0.0335  1.1505
12949SOL     OW49775   3.243   2.471   4.053  0.7458  0.0502  1.1620
12949SOL    HW149776   3.236   2.532   4.131  2.0673 -0.6324  1.8197
12949SOL    HW249777   3.262   2.378   4.084 -0.7143 -0.6161  0.1473
12950SOL     OW49778   7.142   8.218   3.551 -0.3626  0.0952 -0.3547
12950SOL    HW149779   7.216   8.186   3.492 -1.1683 -0.6397 -0.9655
12950SOL    HW249780   7.112   8.144   3.611 -2.3310 -0.3863 -1.8705
12951SOL     OW49781   1.063   6.072   0.329  0.0438  0.4242 -0.4658
12951SOL    HW149782   1.047   6.141   0.400 -0.1285  0.0825 -0.1694
12951SOL    HW249783   1.005   6.091   0.250 -1.6445 -0.6469  0.4905
12952SOL     OW49784   3.342   2.890   3.954 -0.2019 -0.5723  0.1567
12952SOL    HW149785   3.338   2.921   4.049 -0.2925 -1.2977  0.3894
12952SOL    HW249786   3.285   2.809   3.943 -1.4340  0.4238 -0.8725
12953SOL     OW49787   9.032   0.118   2.570  0.4965 -0.1616 -0.0974
12953SOL    HW149788   9.085   0.165   2.500 -1.4354 -0.2187 -1.6250
12953SOL    HW249789   8.935   0.143   2.562  0.3763  0.7669  3.3071
12954SOL     OW49790   3.686   9.789   1.197 -0.2169 -0.2506  0.2519
12954SOL    HW149791   3.772   9.754   1.158  0.4484  0.4655  1.0702
12954SOL    HW249792   3.615   9.719   1.187 -0.1298 -0.0409 -2.4419
12955SOL     OW49793   0.656   3.628   5.119 -0.2617  0.7114  0.3397
12955SOL    HW149794   0.612   3.655   5.034  0.9274 -0.4212 -0.6811
12955SOL    HW249795   0.756   3.626   5.105 -0.1428 -1.1434  1.2241
12956SOL     OW49796   9.585   7.010   5.831  0.4930 -0.8882 -0.0333
12956SOL    HW149797   9.526   7.068   5.887  0.9329 -0.5348  0.0715
12956SOL    HW249798   9.545   6.918   5.824 -0.8495 -0.2350 -1.2554
12957SOL     OW49799   0.708   6.689   0.351 -0.1728 -0.2335 -0.6992
12957SOL    HW149800   0.751   6.704   0.262 -1.9879  0.0843 -1.5454
12957SOL    HW249801   0.665   6.774   0.382  0.4751 -0.3353  0.5100
12958SOL     OW49802   3.583   4.922   0.818  0.3225 -0.8153  0.6516
12958SOL    HW149803   3.585   4.838   0.872  1.1847 -1.4578 -0.3568
12958SOL    HW249804   3.606   5.000   0.876 -0.3200 -1.2897  1.5549
12959SOL     OW49805   3.965   6.264   3.185  0.1845 -0.3028 -0.6184
12959SOL    HW149806   3.951   6.245   3.087  1.9874 -0.1066 -0.9367
12959SOL    HW249807   4.041   6.327   3.196 -0.6920  0.5151  0.8777
12960SOL     OW49808   0.398   5.414   2.375  0.3025  0.1300  0.1646
12960SOL    HW149809   0.493   5.382   2.364 -0.5632 -2.2886 -0.5378
12960SOL    HW249810   0.336   5.336   2.376 -1.4395  1.4202  3.9435
12961SOL     OW49811   3.786   9.753   0.668 -0.1863  0.5681  0.2954
12961SOL    HW149812   3.717   9.824   0.682 -0.5586  0.6898 -2.0211
12961SOL    HW249813   3.764   9.700   0.586  2.0452  0.1028 -0.0395
12962SOL     OW49814   7.180   9.018   2.743  0.3831 -0.2369  0.0067
12962SOL    HW149815   7.125   9.018   2.659 -0.2905 -0.5369  0.4491
12962SOL    HW249816   7.212   9.111   2.762 -1.9697  0.3918  1.0581
12963SOL     OW49817   9.636   4.569   1.223  0.7456  0.2988  0.2968
12963SOL    HW149818   9.622   4.628   1.144  1.0928  0.8539  0.6467
12963SOL    HW249819   9.567   4.497   1.223  0.5595  0.4748 -0.3451
12964SOL     OW49820   0.621   9.235   3.700 -0.6093  0.1913  0.2324
12964SOL    HW149821   0.657   9.208   3.789 -1.9613  0.8858  1.0020
12964SOL    HW249822   0.687   9.294   3.654  0.7565 -1.3889  0.1153
12965SOL     OW49823   7.002   1.223   5.195 -0.2592  0.6900  0.5671
12965SOL    HW149824   7.025   1.154   5.127  0.5243  1.4987 -0.0004
12965SOL    HW249825   6.919   1.271   5.169 -0.5280  0.2957  0.7077
12966SOL     OW49826   3.034   0.090   2.364  0.1144  0.0316  0.3376
12966SOL    HW149827   2.976   0.115   2.442 -1.0425  0.5846 -0.6862
12966SOL    HW249828   2.993   0.014   2.315  0.8902 -0.3722  0.3087
12967SOL     OW49829   8.883   9.049   5.205 -0.0982 -0.3685  0.0112
12967SOL    HW149830   8.903   9.018   5.298  1.9837  0.3878 -0.1712
12967SOL    HW249831   8.967   9.052   5.151 -1.3040 -0.9705 -1.9735
12968SOL     OW49832   2.044   4.380   6.253  0.0211 -0.0633  0.4465
12968SOL    HW149833   2.018   4.285   6.236 -0.0831  0.1097 -0.3995
12968SOL    HW249834   2.060   4.426   6.166  1.2134  0.3807  0.8943
12969SOL     OW49835   8.951   3.881   2.802  0.3736  0.2179  0.5574
12969SOL    HW149836   8.948   3.868   2.703  3.3526 -0.4393  0.4998
12969SOL    HW249837   8.940   3.793   2.848 -2.7861  0.7506  0.8976
12970SOL     OW49838   9.689   1.192   4.449 -0.1932  0.0857  0.2936
12970SOL    HW149839   9.733   1.110   4.485 -0.9146 -0.1531  0.6355
12970SOL    HW249840   9.742   1.272   4.474 -0.2481 -0.1536  1.1823
12971SOL     OW49841   4.535   4.174   0.329 -0.0816  0.2169  0.5401
12971SOL    HW149842   4.543   4.185   0.428  2.8560  2.0223  0.1595
12971SOL    HW249843   4.439   4.162   0.304 -0.8714 -0.0211  3.5772
12972SOL     OW49844   2.531   7.171   3.252 -0.0595 -0.2164  0.3427
12972SOL    HW149845   2.440   7.197   3.218 -0.4029 -1.0014  0.6612
12972SOL    HW249846   2.533   7.073   3.270  0.6853 -0.1046  0.8700
12973SOL     OW49847   0.415   4.726   2.161 -0.0868 -0.3740 -0.5839
12973SOL    HW149848   0.321   4.753   2.141 -0.5885 -1.9615 -0.4563
12973SOL    HW249849   0.423   4.702   2.258  1.2433  2.8809  0.1757
12974SOL     OW49850   0.999   9.348   3.426  0.3495 -0.3447  0.1559
12974SOL    HW149851   0.900   9.353   3.415  0.3438 -0.2433  0.2573
12974SOL    HW249852   1.021   9.300   3.511  0.3871 -0.3925  0.1196
12975SOL     OW49853   7.830   0.583   0.256  0.7674  0.2099  0.3888
12975SOL    HW149854   7.891   0.507   0.236 -0.0972 -0.5915  0.7891
12975SOL    HW249855   7.842   0.612   0.351  0.9302  0.4241  0.3039
12976SOL     OW49856   7.169   9.546   3.968  0.0063 -0.2784 -0.1301
12976SOL    HW149857   7.112   9.604   3.910 -0.5062  1.5631  2.1556
12976SOL    HW249858   7.114   9.506   4.041  1.5087  1.1715  1.8596
12977SOL     OW49859   4.581   0.818   4.649 -0.0884  0.3732 -0.5057
12977SOL    HW149860   4.483   0.810   4.632 -0.2408  0.0003  0.5048
12977SOL    HW249861   4.597   0.886   4.721  0.1663 -1.6112  1.3911
12978SOL     OW49862   1.966   4.052   0.646 -0.6695  0.3806 -0.2981
12978SOL    HW149863   1.885   4.001   0.677 -0.5838  1.1732  1.2701
12978SOL    HW249864   2.045   3.992   0.645 -1.0594 -0.1330 -0.8318
12979SOL     OW49865   2.709   5.512   0.205 -0.7588 -0.5665 -0.1406
12979SOL    HW149866   2.654   5.442   0.160  0.2759 -0.4621 -1.6052
12979SOL    HW249867   2.685   5.516   0.302  0.5044 -4.3423  0.4176
12980SOL     OW49868   2.462   5.173   1.332 -0.4044  0.3065  0.4460
12980SOL    HW149869   2.374   5.216   1.312 -0.3124  0.3398  0.1033
12980SOL    HW249870   2.534   5.244   1.332  0.0171 -0.0833 -1.8686
12981SOL     OW49871   3.899   5.164   3.118  0.3313  0.0171  0.4721
12981SOL    HW149872   3.973   5.136   3.056  0.1647  1.0643 -0.2041
12981SOL    HW249873   3.812   5.158   3.070  0.0739 -0.3088  0.9814
12982SOL     OW49874   7.449   4.650   0.822  0.5921  0.6780 -0.0270
12982SOL    HW149875   7.473   4.712   0.747  2.8304 -1.6025 -1.2850
12982SOL    HW249876   7.509   4.667   0.900  1.2244  0.1137 -0.3823
12983SOL     OW49877   7.012   8.564   1.892 -0.3001 -0.5297 -0.1221
12983SOL    HW149878   6.994   8.592   1.798  0.6077  1.9832  0.4049
12983SOL    HW249879   7.090   8.501   1.893 -2.1028 -2.8613 -1.2963
12984SOL     OW49880   2.397   6.263   1.512 -0.4819 -0.1283  0.2805
12984SOL    HW149881   2.413   6.337   1.578 -1.0430 -0.5715  0.9242
12984SOL    HW249882   2.432   6.290   1.422  0.3704  0.4393  0.7824
12985SOL     OW49883   0.839   8.479   0.181  0.1089 -0.3228  0.0301
12985SOL    HW149884   0.904   8.545   0.144  1.5042  0.1067  3.1139
12985SOL    HW249885   0.845   8.478   0.281 -2.0972 -2.8919  0.2024
12986SOL     OW49886   3.578   8.218   5.116 -0.7396 -0.7079 -0.5179
12986SOL    HW149887   3.530   8.223   5.029 -1.2016  0.3574 -0.2054
12986SOL    HW249888   3.547   8.137   5.166 -1.7709 -0.3585 -0.5752
12987SOL     OW49889   3.280   3.256   0.110 -0.4956 -0.1756 -0.1806
12987SOL    HW149890   3.325   3.343   0.091  1.9861 -1.6335 -1.3315
12987SOL    HW249891   3.201   3.245   0.050  0.1272  0.6076 -1.1674
12988SOL     OW49892   6.801   0.749   0.554 -0.1990  0.0452  0.2048
12988SOL    HW149893   6.865   0.824   0.567  0.6082 -0.3390 -1.3420
12988SOL    HW249894   6.715   0.784   0.517 -0.1608  0.3199  0.3787
12989SOL     OW49895   4.526   2.766   1.615  0.2648 -0.0268  0.4054
12989SOL    HW149896   4.544   2.671   1.642  0.7567  0.6283  2.4744
12989SOL    HW249897   4.517   2.771   1.516  0.2439 -2.2369  0.2631
12990SOL     OW49898   8.560   1.013   5.486  0.1519 -0.6564 -0.3981
12990SOL    HW149899   8.471   1.044   5.453 -0.2222  0.8447  1.9019
12990SOL    HW249900   8.554   0.993   5.584  2.8474  1.6413  0.2991
12991SOL     OW49901   8.638   5.248   6.304  0.2155  0.0061 -0.0949
12991SOL    HW149902   8.694   5.326   6.274  1.3455 -0.3875  0.9672
12991SOL    HW249903   8.618   5.257   6.402 -1.2452 -0.0748 -0.3704
12992SOL     OW49904   2.739   2.450   2.396  0.3094 -0.1466  0.5849
12992SOL    HW149905   2.713   2.355   2.411 -0.5600  0.1657  1.1013
12992SOL    HW249906   2.675   2.493   2.333  0.0391  0.3939  1.2129
12993SOL     OW49907   0.618   8.689   1.620  0.6236 -0.3773  0.4319
12993SOL    HW149908   0.657   8.603   1.654  3.5206  0.8813  0.4917
12993SOL    HW249909   0.578   8.739   1.696 -1.7006 -1.9432  0.2873
12994SOL     OW49910   9.606   8.449   2.260 -0.0178  0.4955  0.8408
12994SOL    HW149911   9.607   8.462   2.359 -1.3621  0.4960  0.8591
12994SOL    HW249912   9.532   8.502   2.220 -0.0638 -0.2353 -0.0635
12995SOL     OW49913   4.173   4.858   4.234  0.2336 -0.0139 -0.4409
12995SOL    HW149914   4.097   4.902   4.188 -0.8440 -0.9511  0.4233
12995SOL    HW249915   4.230   4.811   4.166  0.0358  0.6667 -1.0828
12996SOL     OW49916   9.747   2.343   3.416 -0.6167 -0.3507 -0.1141
12996SOL    HW149917   9.682   2.324   3.342 -0.3675 -0.6876 -0.2500
12996SOL    HW249918   9.827   2.283   3.406  0.6913  1.5261 -1.1573
12997SOL     OW49919   8.923   6.736   6.441 -0.3619 -0.3550 -0.1527
12997SOL    HW149920   8.980   6.797   6.496 -1.1628  0.8630 -0.6183
12997SOL    HW249921   8.959   6.644   6.443  0.7373  0.0897  0.8002
12998SOL     OW49922   8.609   4.183   1.078 -0.9490  0.0612 -0.7211
12998SOL    HW149923   8.662   4.118   1.023 -1.0355  0.1620 -0.9253
12998SOL    HW249924   8.563   4.248   1.017 -0.9858  0.2190 -0.5243
12999SOL     OW49925   3.657   4.214   3.597 -0.4470  0.1810 -0.5213
12999SOL    HW149926   3.735   4.268   3.629  0.3125  0.4764 -2.8136
12999SOL    HW249927   3.660   4.206   3.498 -0.9733 -3.4436 -0.3152
13000SOL     OW49928   9.651   6.391   3.298 -0.0873  0.5768 -0.4270
13000SOL    HW149929   9.646   6.479   3.251 -1.2917  1.2236  0.8769
13000SOL    HW249930   9.613   6.319   3.239  1.8960  0.7061 -1.9300
13001SOL     OW49931   5.203   3.190   0.617  0.0233 -0.1483  0.5226
13001SOL    HW149932   5.293   3.198   0.660 -0.1309 -0.1613  0.8574
13001SOL    HW249933   5.199   3.107   0.562  0.0249 -0.4567  0.9784
13002SOL     OW49934   4.832   2.783   3.839 -0.3394 -0.2993 -0.1697
13002SOL    HW149935   4.748   2.781   3.786  0.6289  0.4928 -1.7652
13002SOL    HW249936   4.850   2.875   3.872  1.3379  0.1474 -2.2272
13003SOL     OW49937   9.721   6.810   6.067  0.1895  0.4521  0.3575
13003SOL    HW149938   9.804   6.797   6.014  1.1586 -0.4509  2.0537
13003SOL    HW249939   9.643   6.773   6.016  0.9850  0.2527 -0.7443
13004SOL     OW49940   7.729   8.141   5.124  0.3631  0.1407  0.1974
13004SOL    HW149941   7.709   8.060   5.069 -0.3720 -0.4283  1.2824
13004SOL    HW249942   7.656   8.154   5.191  1.1071  0.9864  0.8499
13005SOL     OW49943   2.628   9.356   4.946  1.0575 -0.1538 -0.0105
13005SOL    HW149944   2.725   9.355   4.921  0.9194  1.0280 -0.6388
13005SOL    HW249945   2.617   9.397   5.036  1.0280  0.8359 -0.4653
13006SOL     OW49946   1.940   9.527   3.988  0.5082 -0.1802  0.1915
13006SOL    HW149947   1.972   9.577   3.908  0.7304 -2.4385 -1.1754
13006SOL    HW249948   1.892   9.444   3.959  0.1432 -0.7853  2.3938
13007SOL     OW49949   9.244   8.506   2.106  0.7800 -0.2512 -0.1149
13007SOL    HW149950   9.328   8.554   2.081  0.0570  0.8213 -0.4609
13007SOL    HW249951   9.235   8.507   2.206  1.1453 -0.3247 -0.0777
13008SOL     OW49952   6.424   0.328   2.012 -0.1423  0.4968  0.3181
13008SOL    HW149953   6.410   0.230   1.996 -1.5408  0.7378 -0.0645
13008SOL    HW249954   6.341   0.367   2.054  2.1976  0.5427  5.2210
13009SOL     OW49955   0.109   0.039   2.960  0.2309 -0.7755  0.2777
13009SOL    HW149956   0.097  -0.038   3.023 -1.0423 -0.5331  0.3434
13009SOL    HW249957   0.182   0.018   2.895 -0.2317 -2.1193  0.1801
13010SOL     OW49958   6.900   9.692   4.169  0.0474  0.6818  0.2320
13010SOL    HW149959   6.840   9.769   4.191 -0.4815  0.0239  1.0913
13010SOL    HW249960   6.848   9.622   4.120  0.1066  0.0868  1.0226
13011SOL     OW49961   1.431   5.181   1.024 -0.1880  0.3421 -0.3386
13011SOL    HW149962   1.506   5.123   0.992  1.3022  1.7301  0.6038
13011SOL    HW249963   1.459   5.277   1.023 -2.2227  0.9586 -0.7203
13012SOL     OW49964   8.467   8.609   4.173 -0.6111 -0.2003 -0.1836
13012SOL    HW149965   8.382   8.601   4.121 -1.4599  1.2716  0.9053
13012SOL    HW249966   8.520   8.687   4.139  0.0518 -0.8005 -0.5234
13013SOL     OW49967   6.319   0.962   4.121  0.3267 -0.7901  0.3410
13013SOL    HW149968   6.304   1.061   4.122 -0.9870 -0.9779  0.8291
13013SOL    HW249969   6.416   0.943   4.105  0.4858  0.5582 -0.4096
13014SOL     OW49970   6.575   0.018   2.253 -0.0225  0.0445 -0.3632
13014SOL    HW149971   6.578  -0.081   2.267  0.5547 -0.0710 -1.3268
13014SOL    HW249972   6.657   0.060   2.292 -1.0668  0.3427  1.5792
13015SOL     OW49973   8.543   9.275   1.181  0.6336 -0.1978 -0.3190
13015SOL    HW149974   8.526   9.373   1.176  0.8123 -0.1471 -0.0121
13015SOL    HW249975   8.624   9.258   1.237  1.4786 -0.4349 -1.5830
13016SOL     OW49976   0.192   4.497   1.699  0.3452  0.3990 -0.7054
13016SOL    HW149977   0.279   4.518   1.744 -0.0498  2.3981 -0.8413
13016SOL    HW249978   0.201   4.413   1.646  0.8009 -2.1326  3.1838
13017SOL     OW49979   7.144   0.608   0.306 -0.0504 -0.7196 -0.4375
13017SOL    HW149980   7.138   0.685   0.243  1.9748 -1.9174 -2.1675
13017SOL    HW249981   7.194   0.637   0.388 -1.2816  0.3941 -0.0549
13018SOL     OW49982   1.636   5.729   1.343  0.3261 -0.3806  0.3876
13018SOL    HW149983   1.732   5.742   1.370  0.0080 -0.8064  1.7981
13018SOL    HW249984   1.597   5.653   1.396 -0.6968 -0.4384 -0.4322
13019SOL     OW49985   5.031   3.598   3.560 -0.1669 -0.3397  0.1965
13019SOL    HW149986   5.025   3.524   3.626 -0.0326 -0.1474  0.4245
13019SOL    HW249987   5.028   3.561   3.467 -1.5490 -0.5152  0.3040
13020SOL     OW49988   2.923   7.560   4.556 -0.4279 -0.2005 -0.3867
13020SOL    HW149989   2.911   7.639   4.496 -1.3112 -0.2563 -0.3025
13020SOL    HW249990   2.833   7.524   4.580 -0.1588  0.7253  2.1708
13021SOL     OW49991   7.842   8.354   4.912 -0.2709  0.7740  0.3364
13021SOL    HW149992   7.864   8.278   4.973 -1.2677  1.2200  1.2829
13021SOL    HW249993   7.913   8.363   4.843  0.1782 -0.6204  0.5923
13022SOL     OW49994   2.940   4.788   0.738 -0.2818  0.3954 -0.1748
13022SOL    HW149995   2.967   4.802   0.643  0.6207 -0.4293 -0.0502
13022SOL    HW249996   3.014   4.819   0.798 -0.8561  0.9294  0.2638
13023SOL     OW49997   8.361   1.929   2.599 -0.1377 -0.5602 -0.1885
13023SOL    HW149998   8.388   2.024   2.580 -0.1290 -0.5414 -0.0810
13023SOL    HW249999   8.443   1.874   2.618 -0.2968 -0.0565  2.1832
13024SOL     OW50000   1.736   6.159   0.659 -0.0168 -0.0306  0.2495
13024SOL    HW150001   1.685   6.081   0.694 -1.8423  1.2900  0.6294
13024SOL    HW250002   1.680   6.241   0.667  1.3506  1.0951 -1.3931
13025SOL     OW50003   1.762   3.852   5.872 -0.0614  0.1686  0.4644
13025SOL    HW150004   1.758   3.764   5.919 -0.8701  0.2708  0.5916
13025SOL    HW250005   1.748   3.837   5.774 -2.8797  0.4255  0.7981
13026SOL     OW50006   2.355   4.959   5.156 -0.0107  0.1037 -0.3298
13026SOL    HW150007   2.277   4.896   5.155 -0.1462  0.2730 -0.9007
13026SOL    HW250008   2.361   5.005   5.067  2.3780 -1.8868 -1.2655
13027SOL     OW50009   0.019   7.761   3.497  0.5276 -0.4219 -0.1720
13027SOL    HW150010  -0.017   7.844   3.454 -0.9584 -0.7182  0.4644
13027SOL    HW250011   0.013   7.769   3.596 -0.4213 -1.6284 -0.1192
13028SOL     OW50012   2.088   2.622   3.598  0.4472 -0.0814 -0.4091
13028SOL    HW150013   2.152   2.694   3.571  0.4914  0.4414  1.0786
13028SOL    HW250014   2.058   2.573   3.516  1.0886  1.0517 -1.3452
13029SOL     OW50015   2.518   7.091   0.846  0.4601 -0.0417 -0.5627
13029SOL    HW150016   2.511   6.998   0.883  2.5759 -0.8934 -2.1945
13029SOL    HW250017   2.609   7.127   0.866 -1.0786  2.6196  2.0692
13030SOL     OW50018   5.579   1.443   0.972 -0.4682  0.2305  0.3514
13030SOL    HW150019   5.569   1.526   1.026  1.5067  0.9053 -0.2687
13030SOL    HW250020   5.672   1.407   0.983 -0.7748 -0.9389 -0.7301
13031SOL     OW50021   3.302   9.424   3.541  0.0482  0.6210 -0.1007
13031SOL    HW150022   3.359   9.382   3.470  0.2492 -0.7893  0.8731
13031SOL    HW250023   3.210   9.440   3.504  0.8533  2.2193 -1.4429
13032SOL     OW50024   3.024   0.462   1.774 -0.1273 -0.1173  0.0772
13032SOL    HW150025   2.987   0.512   1.851 -1.1457 -1.5386  0.5270
13032SOL    HW250026   3.061   0.374   1.806  0.6855 -0.1251 -0.8486
13033SOL     OW50027   0.213   1.198   2.295  0.1910  0.0065  0.0949
13033SOL    HW150028   0.280   1.250   2.349  1.1747 -1.2005  0.0465
13033SOL    HW250029   0.124   1.202   2.340  0.3538  1.3728  0.3209
13034SOL     OW50030   5.469   3.228   0.687 -0.1864 -0.3002 -0.7992
13034SOL    HW150031   5.527   3.265   0.615 -1.3381 -0.2621 -1.7096
13034SOL    HW250032   5.510   3.250   0.776  1.0835 -0.0992 -1.4134
13035SOL     OW50033   7.677   1.995   3.657  0.2065 -0.3416  0.1657
13035SOL    HW150034   7.578   1.993   3.661  0.1325  2.2721  1.0449
13035SOL    HW250035   7.712   2.053   3.732  2.2974 -0.1368 -0.9312
13036SOL     OW50036   7.300   7.791   4.927 -0.7989 -0.1540  0.3235
13036SOL    HW150037   7.204   7.786   4.952 -1.0922 -0.9466 -0.9426
13036SOL    HW250038   7.314   7.750   4.837  0.9192 -1.1499  1.0205
13037SOL     OW50039   7.887   2.256   1.614 -0.4229 -0.1281 -0.1931
13037SOL    HW150040   7.874   2.258   1.515  0.7459 -1.4700 -0.3862
13037SOL    HW250041   7.823   2.192   1.655  0.1685 -0.7649 -0.2607
13038SOL     OW50042   4.519   0.360   2.217 -0.2118 -0.1172  0.5475
13038SOL    HW150043   4.492   0.336   2.311  2.0676 -2.5856  0.6410
13038SOL    HW250044   4.606   0.410   2.220 -1.1297  1.5634 -0.1716
13039SOL     OW50045   1.663   2.573   3.692  0.7822 -0.6039  0.3108
13039SOL    HW150046   1.702   2.605   3.606  1.7206 -1.0639  0.5521
13039SOL    HW250047   1.629   2.480   3.680  1.5905 -0.9443  0.6269
13040SOL     OW50048   1.399   9.691   3.925 -0.1470 -0.4304 -0.7865
13040SOL    HW150049   1.416   9.593   3.925 -0.5171 -0.4994  0.2463
13040SOL    HW250050   1.349   9.717   4.008  0.6904  0.7648 -0.6402
13041SOL     OW50051   2.798   9.349   1.573  0.2670 -0.2241 -0.2140
13041SOL    HW150052   2.713   9.376   1.618  0.5937 -0.4322  0.5376
13041SOL    HW250053   2.866   9.323   1.642  0.9645  0.0038 -0.8033
13042SOL     OW50054   4.137   2.561   2.313 -0.6788  0.1785  0.1311
13042SOL    HW150055   4.190   2.522   2.238 -1.3377  0.4125 -0.4617
13042SOL    HW250056   4.139   2.498   2.391 -2.4161 -1.4664 -1.0932
13043SOL     OW50057   3.834   5.743   3.034  0.0612  0.5109 -0.2230
13043SOL    HW150058   3.923   5.785   3.018  0.6679 -0.6977 -0.0928
13043SOL    HW250059   3.837   5.689   3.118 -0.8335  0.5633 -0.1519
13044SOL     OW50060   0.723   1.349   1.853  0.6106  0.0743  0.1589
13044SOL    HW150061   0.757   1.257   1.832  1.1109 -0.2304  2.2388
13044SOL    HW250062   0.624   1.347   1.862  0.5850 -0.1795 -0.1631
13045SOL     OW50063   3.851   7.313   4.611  0.3272 -0.6633 -0.1702
13045SOL    HW150064   3.821   7.239   4.551  0.4934 -0.7109 -0.1948
13045SOL    HW250065   3.870   7.395   4.557 -3.2866  0.5288  0.2033
13046SOL     OW50066   1.183   9.228   0.870 -0.3885 -0.4083  0.9112
13046SOL    HW150067   1.144   9.310   0.913  0.8738  0.6886 -0.0005
13046SOL    HW250068   1.207   9.162   0.941  1.3569  1.2400  1.9159
13047SOL     OW50069   3.349   5.081   6.211 -0.2661  0.1318 -0.4926
13047SOL    HW150070   3.349   5.025   6.293 -0.3174 -1.8698 -1.8310
13047SOL    HW250071   3.440   5.078   6.169 -1.2921 -2.1170 -2.6569
13048SOL     OW50072   3.695   8.400   2.344  0.2324  0.3580  0.2286
13048SOL    HW150073   3.784   8.420   2.303  1.3534 -0.7169  2.0681
13048SOL    HW250074   3.674   8.469   2.413 -0.4341  0.6822 -0.2923
13049SOL     OW50075   1.882   5.751   1.457 -0.4306  0.7462  0.1999
13049SOL    HW150076   1.859   5.800   1.542 -0.5677  0.3444  0.3931
13049SOL    HW250077   1.947   5.677   1.478 -1.9298 -0.5688  0.2557
13050SOL     OW50078   2.439   9.502   2.834  0.1394  0.4285 -0.3563
13050SOL    HW150079   2.492   9.557   2.898 -0.9778 -0.7195  1.5925
13050SOL    HW250080   2.342   9.505   2.858  0.0344 -2.2244 -0.3108
13051SOL     OW50081   0.482   6.664   3.844 -0.2091 -0.0513 -0.3210
13051SOL    HW150082   0.560   6.602   3.831 -0.2744 -0.2585  0.2619
13051SOL    HW250083   0.398   6.611   3.845 -0.3485  0.1602 -0.8218
13052SOL     OW50084   8.824   2.043   3.739 -0.0277  0.2485 -0.1435
13052SOL    HW150085   8.791   1.952   3.763 -1.0508  0.8142  0.6566
13052SOL    HW250086   8.840   2.096   3.823  0.1971  0.9250 -0.6046
13053SOL     OW50087   7.803   2.103   2.606 -0.0446  0.1498 -0.2595
13053SOL    HW150088   7.722   2.146   2.568  1.5778  1.1173 -2.7192
13053SOL    HW250089   7.858   2.171   2.655  1.2443  0.3864 -1.9866
13054SOL     OW50090   0.344   2.610   4.914 -0.1472  0.4169  0.0997
13054SOL    HW150091   0.285   2.531   4.898  0.6487  0.0276 -0.9646
13054SOL    HW250092   0.416   2.612   4.845  0.1168  1.8118  0.4085
13055SOL     OW50093   9.301   8.338   4.437  0.1495 -0.5316  0.0099
13055SOL    HW150094   9.313   8.411   4.370 -1.7184 -0.3589 -0.1589
13055SOL    HW250095   9.375   8.342   4.505  0.9703  0.4779 -0.9396
13056SOL     OW50096   0.994   8.258   4.106 -0.3761 -0.2443 -0.3431
13056SOL    HW150097   0.974   8.334   4.045  0.0269 -0.4602 -0.7502
13056SOL    HW250098   1.078   8.278   4.157  1.2220 -1.5435 -2.3871
13057SOL     OW50099   7.659   1.201   6.338 -0.2943  0.1003  0.3603
13057SOL    HW150100   7.734   1.193   6.272  0.2363  1.1090  0.8298
13057SOL    HW250101   7.659   1.293   6.377 -0.7697 -0.4142  1.5761
13058SOL     OW50102   2.402   0.894   2.560 -0.0371 -0.0562 -0.1159
13058SOL    HW150103   2.479   0.887   2.496  1.0865 -1.5612  1.3357
13058SOL    HW250104   2.356   0.805   2.567  0.2317 -0.0774  1.5891
13059SOL     OW50105   4.582   1.979   4.654  0.1050 -0.7967  0.0878
13059SOL    HW150106   4.655   1.917   4.684  0.3714 -0.8456 -0.6506
13059SOL    HW250107   4.497   1.927   4.645 -0.0767 -0.6920  1.1772
13060SOL     OW50108   9.092   4.459   0.275  0.6598  0.2755 -0.1013
13060SOL    HW150109   9.079   4.555   0.249  1.3289  0.6865  1.0059
13060SOL    HW250110   9.155   4.455   0.353 -0.3170 -0.9877  0.6369
13061SOL     OW50111   5.355   7.150   2.277  0.4083  0.8426 -0.0895
13061SOL    HW150112   5.378   7.181   2.185  0.9282  2.5873  0.6062
13061SOL    HW250113   5.267   7.189   2.304  0.1573  0.1623  0.0767
13062SOL     OW50114   7.824   9.304   6.230 -0.4129  0.1002  0.3805
13062SOL    HW150115   7.787   9.395   6.214  0.7257  0.3201 -1.0925
13062SOL    HW250116   7.859   9.299   6.324 -1.3767  0.8412  0.7946
13063SOL     OW50117   3.759   1.945   2.367 -0.1822 -0.0578 -0.3743
13063SOL    HW150118   3.780   2.041   2.350 -0.2936  0.2215  1.0204
13063SOL    HW250119   3.744   1.931   2.465 -4.1013 -0.7163 -1.0050
13064SOL     OW50120   9.559   5.434   4.329  0.5396 -0.0397  0.4176
13064SOL    HW150121   9.609   5.415   4.245  0.7903 -0.8835  0.7514
13064SOL    HW250122   9.560   5.353   4.387 -0.6134  0.1637  0.7342
13065SOL     OW50123   0.274   7.193   5.267 -0.3182  0.3307  0.1745
13065SOL    HW150124   0.269   7.265   5.197  0.8480  0.3904  0.1437
13065SOL    HW250125   0.364   7.194   5.309  0.1000 -1.8517 -0.5961
13066SOL     OW50126   7.241   6.905   3.295  0.3160 -0.2351  0.6989
13066SOL    HW150127   7.244   6.807   3.276  1.7858  0.0961 -0.9474
13066SOL    HW250128   7.149   6.932   3.321 -0.2674 -1.9248  0.3968
13067SOL     OW50129   1.109   4.766   6.652  0.4862  0.1717  0.1882
13067SOL    HW150130   1.117   4.684   6.709 -0.8396  0.0609  0.2285
13067SOL    HW250131   1.074   4.842   6.707 -0.7197  0.0861 -0.4348
13068SOL     OW50132   1.556   8.820   4.019  0.1141 -0.0782 -0.2901
13068SOL    HW150133   1.610   8.842   4.100 -0.3258 -0.9597  0.2572
13068SOL    HW250134   1.606   8.757   3.960 -0.1771 -0.6474  0.0622
13069SOL     OW50135   2.859   7.539   0.713  0.4364 -0.6451 -0.8828
13069SOL    HW150136   2.878   7.637   0.699  1.3862 -0.6981 -0.0203
13069SOL    HW250137   2.857   7.519   0.811 -0.3927 -1.3810 -1.0409
13070SOL     OW50138   3.645   4.784   5.731  0.4445  0.0284 -0.1157
13070SOL    HW150139   3.677   4.690   5.721  0.5963 -0.0429  0.9086
13070SOL    HW250140   3.569   4.786   5.796  1.7750  0.8595  1.4648
13071SOL     OW50141   3.294   6.967   3.986  0.2535  0.3652  0.3631
13071SOL    HW150142   3.353   7.020   4.048  1.3716 -0.0534 -0.3289
13071SOL    HW250143   3.313   6.993   3.892  0.8426 -1.2843  0.0161
13072SOL     OW50144   9.783   5.532   4.165  0.2925  0.2934 -0.3636
13072SOL    HW150145   9.827   5.543   4.076  0.8597 -0.1545 -0.1492
13072SOL    HW250146   9.714   5.602   4.178  0.2168  0.3681 -1.1533
13073SOL     OW50147   1.150   5.992   0.711 -0.2053  0.2502  0.1736
13073SOL    HW150148   1.173   6.070   0.654  0.5884 -0.0700  0.0486
13073SOL    HW250149   1.184   6.007   0.804 -1.5360  0.7902  0.5788
13074SOL     OW50150   1.674   4.009   4.559  0.0353 -0.3287  0.6387
13074SOL    HW150151   1.701   4.033   4.653 -1.7974  0.0648  1.0805
13074SOL    HW250152   1.616   4.081   4.521 -0.0338 -0.9463 -0.4524
13075SOL     OW50153   3.477   3.086   3.370  0.5768 -0.0644 -0.6182
13075SOL    HW150154   3.486   3.038   3.283  3.6955  0.4175 -0.6046
13075SOL    HW250155   3.481   3.185   3.354  0.0305  0.0512 -0.0527
13076SOL     OW50156   2.241   9.989   3.022  0.4215  1.0556  0.3026
13076SOL    HW150157   2.321   9.970   2.966  0.0798  1.8559 -0.4520
13076SOL    HW250158   2.194  10.070   2.988 -1.3380 -0.0530  0.0752
13077SOL     OW50159   3.783   5.008   5.037 -0.0768  0.1299  0.5750
13077SOL    HW150160   3.720   5.084   5.056  1.3458  1.4787  0.0197
13077SOL    HW250161   3.872   5.028   5.080  0.4945 -0.9420 -0.1042
13078SOL     OW50162   7.644   9.942   6.583  0.3077 -0.0956  0.3025
13078SOL    HW150163   7.607   9.881   6.653 -0.8622  0.5724  0.2811
13078SOL    HW250164   7.602  10.032   6.591 -2.7923 -1.0581 -3.6985
13079SOL     OW50165   8.452   1.194   0.610  0.2550  0.6757 -0.3749
13079SOL    HW150166   8.360   1.213   0.574  0.3459  0.5434 -0.6724
13079SOL    HW250167   8.505   1.279   0.611  0.0044  0.8279  0.1520
13080SOL     OW50168   0.538   4.445   0.457 -0.1757  0.0949  0.1840
13080SOL    HW150169   0.563   4.424   0.551 -0.0600  1.1828  0.4055
13080SOL    HW250170   0.443   4.417   0.441 -0.0068 -0.6275  0.4456
13081SOL     OW50171   0.108   8.262   1.716  0.0104  0.2560  0.0999
13081SOL    HW150172   0.145   8.327   1.782  1.5917  0.4601 -0.9495
13081SOL    HW250173   0.179   8.238   1.650 -0.8991 -1.6392 -0.2214
13082SOL     OW50174   6.356   1.847   3.596 -0.1345 -0.3270 -0.5716
13082SOL    HW150175   6.374   1.932   3.548 -0.4735 -0.2667 -0.5924
13082SOL    HW250176   6.389   1.854   3.690  0.3208 -0.3639 -0.7255
13083SOL     OW50177   1.955   4.018   4.001  0.0908  0.7301 -0.3416
13083SOL    HW150178   2.027   4.011   4.070 -0.0975  0.8318 -0.1360
13083SOL    HW250179   1.960   3.939   3.940  0.2453  0.6319 -0.2024
13084SOL     OW50180   3.091   1.915   2.114 -0.5382  0.2914  0.9926
13084SOL    HW150181   3.095   1.970   2.197  1.1580  0.3747  0.8841
13084SOL    HW250182   3.121   1.970   2.036 -2.6109  0.3721  0.2073
13085SOL     OW50183   2.342   3.321   3.013  0.0764 -0.0413  0.0393
13085SOL    HW150184   2.274   3.271   3.065  1.9873 -0.6887  1.9991
13085SOL    HW250185   2.406   3.257   2.970 -0.3447  0.5596 -1.5379
13086SOL     OW50186   5.339   7.771   3.608  0.3227 -0.2896  0.1158
13086SOL    HW150187   5.410   7.717   3.564  0.0729 -0.0763 -0.5687
13086SOL    HW250188   5.363   7.868   3.604  0.4332 -0.2913  0.7070
13087SOL     OW50189   4.218   8.682   4.324 -0.1119 -0.1784 -0.2195
13087SOL    HW150190   4.248   8.588   4.305 -0.3875 -0.0171 -1.4844
13087SOL    HW250191   4.138   8.680   4.385 -0.1964 -0.7632 -0.3482
13088SOL     OW50192   5.228   3.389   0.941 -0.2869  0.0404  0.1055
13088SOL    HW150193   5.205   3.476   0.897  0.6854  2.0737  3.4781
13088SOL    HW250194   5.146   3.332   0.945 -0.8351  0.5494 -2.5498
13089SOL     OW50195   3.527   7.035   2.649 -0.3325 -0.6154 -0.0689
13089SOL    HW150196   3.447   7.001   2.698 -1.1440 -0.2803 -1.1215
13089SOL    HW250197   3.566   7.113   2.698  0.9124 -2.3612  1.8027
13090SOL     OW50198   1.790   1.073   2.194  0.3856 -0.4073  1.0739
13090SOL    HW150199   1.878   1.097   2.234  1.6090 -1.3201 -0.9346
13090SOL    HW250200   1.726   1.149   2.203  1.6156  0.5343  1.9359
13091SOL     OW50201   8.118   0.307   3.930  0.2199 -0.1010  0.8670
13091SOL    HW150202   8.051   0.262   3.990 -0.1129  1.2488  1.5142
13091SOL    HW250203   8.205   0.258   3.935 -0.2426 -0.9048  1.2661
13092SOL     OW50204   2.681   5.753   5.318  0.1537 -0.1299  0.0392
13092SOL    HW150205   2.674   5.769   5.417  0.1158  1.1974 -0.1692
13092SOL    HW250206   2.734   5.670   5.302  1.1294  0.2626  1.1494
13093SOL     OW50207   3.721   7.144   2.206 -0.0674  0.0055  0.3103
13093SOL    HW150208   3.761   7.161   2.116 -0.3734  0.9093  0.3361
13093SOL    HW250209   3.662   7.064   2.203  0.6835 -0.5414 -0.0549
13094SOL     OW50210   3.938   8.875   4.812  0.3792 -0.6159 -0.7167
13094SOL    HW150211   3.934   8.876   4.912 -0.8037  1.7415 -0.7642
13094SOL    HW250212   4.017   8.822   4.783  0.4179 -1.8285  1.4470
13095SOL     OW50213   7.997   9.218   4.217 -0.2932 -0.1033 -0.4091
13095SOL    HW150214   8.051   9.158   4.157 -0.1179 -0.9209  0.5553
13095SOL    HW250215   7.923   9.165   4.258 -1.0639  0.7118 -0.7196
13096SOL     OW50216   0.670   6.979   4.497  0.0929  0.3842  0.3572
13096SOL    HW150217   0.591   7.029   4.462 -0.8868 -1.6637 -0.3901
13096SOL    HW250218   0.753   7.014   4.452 -0.8146 -0.1378 -1.8148
13097SOL     OW50219   7.574   8.928   2.809 -0.1298 -0.5655 -0.0629
13097SOL    HW150220   7.590   8.875   2.892 -0.8426 -0.5423  0.0934
13097SOL    HW250221   7.490   8.896   2.764 -0.1045 -0.1416 -0.4202
13098SOL     OW50222   3.318   9.495   2.666 -0.0011 -0.5819 -0.1693
13098SOL    HW150223   3.334   9.592   2.686  1.5296 -0.4849 -1.6861
13098SOL    HW250224   3.406   9.450   2.649 -0.7966 -1.9267 -0.7860
13099SOL     OW50225   9.624   6.209   3.782  0.1415  0.2409  0.1419
13099SOL    HW150226   9.621   6.291   3.838 -0.6499 -0.4279  1.0955
13099SOL    HW250227   9.692   6.146   3.817  1.8751  1.1311 -1.5262
13100SOL     OW50228   8.141   5.921   0.858 -0.3281 -0.2913 -0.4177
13100SOL    HW150229   8.047   5.910   0.892 -0.5870 -0.6898 -1.2663
13100SOL    HW250230   8.179   6.006   0.895 -0.3387 -1.0760  1.4941
13101SOL     OW50231   1.661   2.555   1.864 -0.2679  0.2262  0.1342
13101SOL    HW150232   1.703   2.500   1.937 -1.3559  1.0121  1.3751
13101SOL    HW250233   1.638   2.496   1.787 -0.2038 -0.8372  0.9142
13102SOL     OW50234   0.685   5.053   4.498  0.0504 -0.2835  0.6749
13102SOL    HW150235   0.762   4.990   4.503  0.3415  0.0480  0.3915
13102SOL    HW250236   0.670   5.095   4.588 -0.4931 -1.1620  1.0007
13103SOL     OW50237   9.621   6.431   4.638  0.5048 -0.2006  0.3292
13103SOL    HW150238   9.547   6.497   4.656  0.6275 -0.5780  2.3240
13103SOL    HW250239   9.630   6.417   4.539 -0.5056  1.6547 -0.0465
13104SOL     OW50240   4.695   4.597   6.536  0.5023  0.2728  0.1012
13104SOL    HW150241   4.677   4.685   6.580  1.1854  0.2269  0.4730
13104SOL    HW250242   4.765   4.548   6.587  0.9170 -0.0157 -0.7381
13105SOL     OW50243   4.215   7.796   1.242  0.5512 -0.4767  0.0372
13105SOL    HW150244   4.297   7.747   1.271 -1.0900 -2.2271  1.9263
13105SOL    HW250245   4.134   7.750   1.280 -1.2245  1.9516 -0.6959
13106SOL     OW50246   4.640   0.401   3.105  0.2404 -0.1690 -0.4916
13106SOL    HW150247   4.635   0.495   3.138 -0.5269  0.2702 -1.7912
13106SOL    HW250248   4.626   0.338   3.181 -0.5359  0.7979  0.1844
13107SOL     OW50249   2.995   3.225   6.745 -0.4177 -0.0004 -0.0962
13107SOL    HW150250   2.942   3.302   6.708 -0.8648  0.0606  0.6547
13107SOL    HW250251   3.012   3.158   6.673  1.4718  1.6119 -1.1914
13108SOL     OW50252   9.983   6.921   1.963  0.2778  0.3419  0.3714
13108SOL    HW150253   9.902   6.968   1.928 -0.1663  0.9868  2.1775
13108SOL    HW250254   9.965   6.823   1.970 -0.9514  0.6627  2.2475
13109SOL     OW50255   0.283   9.551   4.228  0.2030 -0.0374 -0.4167
13109SOL    HW150256   0.338   9.474   4.261  0.2846  0.4635  0.6274
13109SOL    HW250257   0.243   9.528   4.139 -1.1375 -1.9383  0.6345
13110SOL     OW50258   2.167   3.414   0.465  0.0423 -0.5050 -0.3387
13110SOL    HW150259   2.267   3.408   0.465  0.1147  0.6278 -0.7837
13110SOL    HW250260   2.139   3.493   0.519 -0.5442  0.2334 -1.7061
13111SOL     OW50261   1.748   7.734   4.825 -0.3242  0.2006 -0.7583
13111SOL    HW150262   1.806   7.742   4.906 -1.0990  0.9753 -0.2764
13111SOL    HW250263   1.746   7.638   4.795  0.6069  0.0467 -0.3455
13112SOL     OW50264   2.629   4.122   0.408  0.4890 -0.6779  0.4679
13112SOL    HW150265   2.537   4.144   0.378  1.0781  2.5135  0.8196
13112SOL    HW250266   2.630   4.114   0.508  0.5877 -0.6778  0.4672
13113SOL     OW50267   3.418   5.456   2.607  0.1832 -0.3120  0.0099
13113SOL    HW150268   3.401   5.551   2.632 -0.5084 -0.3378 -0.3576
13113SOL    HW250269   3.425   5.400   2.690  2.5825  0.3757  0.3195
13114SOL     OW50270   0.303   8.088   1.880  0.8531  0.0217 -0.1622
13114SOL    HW150271   0.337   8.182   1.876 -0.7154  0.6611  1.2165
13114SOL    HW250272   0.205   8.088   1.858  0.6948 -1.1994  0.5491
13115SOL     OW50273   4.402   9.286   2.449  0.0611 -0.6420 -0.1675
13115SOL    HW150274   4.391   9.271   2.547 -1.4092  0.0247 -0.2121
13115SOL    HW250275   4.340   9.359   2.419  2.0019  0.5971 -1.2286
13116SOL     OW50276   9.677   0.317   2.694 -0.4816 -0.2646 -0.1743
13116SOL    HW150277   9.613   0.331   2.769 -0.8061  1.0079 -0.6740
13116SOL    HW250278   9.722   0.404   2.671  2.0239 -1.2753  0.6800
13117SOL     OW50279   9.562   0.557   3.039 -0.2319  0.4853 -0.0561
13117SOL    HW150280   9.610   0.536   3.124  0.5622 -2.4953 -1.1812
13117SOL    HW250281   9.482   0.613   3.059 -1.4601 -2.2081  3.0109
13118SOL     OW50282   8.363   9.668   3.097 -0.2640 -0.7886 -0.2213
13118SOL    HW150283   8.283   9.687   3.040 -1.9403 -1.3626  1.8621
13118SOL    HW250284   8.349   9.581   3.145  0.2551  0.5718  2.4833
13119SOL     OW50285   3.976   4.082   2.698 -0.8422  0.1626 -0.5758
13119SOL    HW150286   4.054   4.024   2.725 -0.8675  0.7664  0.8462
13119SOL    HW250287   3.951   4.062   2.603  0.5492 -0.5987 -0.8006
13120SOL     OW50288   1.313   6.528   1.892  0.0221  0.1069  0.1999
13120SOL    HW150289   1.413   6.529   1.897  0.1192  0.2317 -1.4563
13120SOL    HW250290   1.276   6.503   1.981  1.4694  2.6213  1.5842
13121SOL     OW50291   4.302   5.449   3.026 -0.5391  0.5408 -0.4055
13121SOL    HW150292   4.355   5.525   2.989  0.8126 -1.7371 -3.4694
13121SOL    HW250293   4.215   5.442   2.977  0.0969 -0.8886 -1.3689
13122SOL     OW50294   4.217   4.410   3.050  0.0023 -0.7524  0.2049
13122SOL    HW150295   4.152   4.465   2.998 -0.5367 -1.1195  0.4889
13122SOL    HW250296   4.285   4.370   2.988 -1.0558 -1.7782 -0.3045
13123SOL     OW50297   1.301   3.959   0.494 -0.7485 -0.7075 -0.0320
13123SOL    HW150298   1.396   3.929   0.501 -0.5943 -0.0012  1.0596
13123SOL    HW250299   1.263   3.974   0.586 -2.1618 -1.7317 -0.4261
13124SOL     OW50300   1.982   8.584   2.701  0.2759 -0.1416 -0.2098
13124SOL    HW150301   2.027   8.605   2.787  2.7611 -0.8457 -1.2846
13124SOL    HW250302   1.920   8.659   2.676  1.1103  1.0124  1.1456
13125SOL     OW50303   0.257   0.976   4.830  0.2752  0.0693 -0.0947
13125SOL    HW150304   0.220   1.064   4.859 -1.2790 -1.0633  1.5216
13125SOL    HW250305   0.353   0.970   4.855 -0.1719  0.4820  1.8136
13126SOL     OW50306   5.917   8.938   3.552  1.1471 -0.0990 -0.4327
13126SOL    HW150307   5.991   8.973   3.494  0.8181  0.1066 -0.7337
13126SOL    HW250308   5.890   9.009   3.618  1.9587 -0.5567  0.4087
13127SOL     OW50309   0.916   3.017   4.418 -0.3960  0.2857 -0.3905
13127SOL    HW150310   0.924   3.065   4.331 -2.6322  0.1872 -0.6929
13127SOL    HW250311   0.912   2.918   4.402 -0.4803  0.2506 -0.1583
13128SOL     OW50312   9.180   2.249   0.886  0.0468  0.3652  0.6001
13128SOL    HW150313   9.256   2.304   0.922 -1.7214  1.2148  3.1523
13128SOL    HW250314   9.147   2.188   0.958 -1.2523 -0.5020 -0.7207
13129SOL     OW50315   1.084   7.609   2.805 -0.7938  0.0466 -0.1350
13129SOL    HW150316   1.022   7.546   2.758 -1.4728 -0.0081  0.8244
13129SOL    HW250317   1.072   7.601   2.904 -0.7157  1.5094  0.0039
13130SOL     OW50318   2.005   0.825   2.992  0.4938  0.5880 -0.1177
13130SOL    HW150319   1.981   0.909   2.942  0.4888 -0.5445 -2.0613
13130SOL    HW250320   1.981   0.836   3.088 -1.1718  2.1675 -0.6801
13131SOL     OW50321   0.063   3.117   5.604 -0.3189 -0.7028 -0.1311
13131SOL    HW150322  -0.011   3.160   5.552 -0.0823 -0.0872  0.0265
13131SOL    HW250323   0.105   3.186   5.663 -0.3234 -1.3043  0.5751
13132SOL     OW50324   0.891   2.904   3.063 -0.9502  0.2076 -0.3055
13132SOL    HW150325   0.851   2.985   3.105  2.1136  1.1605  0.8992
13132SOL    HW250326   0.963   2.931   2.998 -0.7834 -1.4858 -0.8647
13133SOL     OW50327   9.187   5.111   4.909  0.1662  0.0422  0.3717
13133SOL    HW150328   9.264   5.098   4.971 -0.2208  0.4421  0.9454
13133SOL    HW250329   9.123   5.035   4.918  0.3718 -0.1674  0.0718
13134SOL     OW50330   3.306   9.023   2.133 -0.0544 -0.1401  0.4916
13134SOL    HW150331   3.243   9.098   2.153 -0.0140 -0.0236  0.1829
13134SOL    HW250332   3.312   8.962   2.212  0.5015  0.6033  1.0322
13135SOL     OW50333   5.385   2.352   3.146 -0.2126 -0.1717  0.3758
13135SOL    HW150334   5.397   2.304   3.059  1.4011  1.6079 -0.4207
13135SOL    HW250335   5.288   2.350   3.172 -0.6385 -1.1557 -1.1917
13136SOL     OW50336   1.173   3.347   1.261  0.0352  0.3644  0.2420
13136SOL    HW150337   1.121   3.336   1.345 -0.2555  2.5960  0.3785
13136SOL    HW250338   1.231   3.428   1.268  1.8330 -0.7945 -0.7827
13137SOL     OW50339   6.098   1.913   1.777  0.5235  0.1807  0.0370
13137SOL    HW150340   6.101   1.870   1.868 -0.3455 -1.1177 -0.5339
13137SOL    HW250341   6.152   1.858   1.713  0.3202  0.5620 -0.4590
13138SOL     OW50342   8.240   5.749   2.892 -0.3700  0.3144  0.4323
13138SOL    HW150343   8.256   5.827   2.952 -2.5469  2.1049 -1.2471
13138SOL    HW250344   8.255   5.775   2.797 -3.2167 -0.6703 -0.3389
13139SOL     OW50345   8.171   7.655   2.703 -0.0533  0.6885 -0.4514
13139SOL    HW150346   8.233   7.582   2.731 -0.6649  0.3591  0.0679
13139SOL    HW250347   8.097   7.615   2.649  0.2752  1.1011 -1.2093
13140SOL     OW50348   1.965   4.888   4.611 -0.1481 -0.3612  0.3584
13140SOL    HW150349   1.944   4.981   4.580 -1.6775 -0.8910 -0.2718
13140SOL    HW250350   1.921   4.872   4.700 -0.7938 -0.8304 -0.0399
13141SOL     OW50351   3.513   4.924   5.098 -0.4810  0.1293 -0.6863
13141SOL    HW150352   3.530   4.839   5.050  1.0049  0.2974 -0.4775
13141SOL    HW250353   3.416   4.930   5.123 -0.5237 -1.6598 -0.3853
13142SOL     OW50354   7.514   1.807   5.039 -0.2974 -0.4249  1.0740
13142SOL    HW150355   7.587   1.768   4.984 -0.8852 -1.2540  0.8644
13142SOL    HW250356   7.427   1.763   5.015 -1.0657  1.3696  0.4913
13143SOL     OW50357   3.610   7.294   5.354  0.6160  0.2358 -0.3888
13143SOL    HW150358   3.685   7.235   5.382 -0.2707 -1.1061 -0.8000
13143SOL    HW250359   3.535   7.286   5.419  0.7913  1.5286 -0.0102
13144SOL     OW50360   2.730   7.811   5.914  0.5162 -0.2305 -0.2319
13144SOL    HW150361   2.651   7.845   5.864 -0.3506 -1.2629  0.4305
13144SOL    HW250362   2.798   7.776   5.849 -0.5201 -1.3848 -0.7196
13145SOL     OW50363   8.158   0.679   3.353 -0.0344  0.5479 -0.5458
13145SOL    HW150364   8.256   0.692   3.335 -0.1966  1.6151 -0.6994
13145SOL    HW250365   8.121   0.763   3.394 -0.3168 -0.7578  1.9574
13146SOL     OW50366   0.509   6.504   1.041  0.0911  0.3304 -0.5138
13146SOL    HW150367   0.586   6.513   1.105 -0.3505 -1.3508  0.2797
13146SOL    HW250368   0.452   6.586   1.047  0.7441  0.7317  0.3360
13147SOL     OW50369   3.332   2.929   2.613 -0.3953 -0.2089 -0.2192
13147SOL    HW150370   3.418   2.979   2.610  0.2390 -1.1331  1.6148
13147SOL    HW250371   3.332   2.868   2.692 -2.2159 -1.1685 -0.9292
13148SOL     OW50372   1.522   3.365   1.297  0.0443  0.0539 -0.2295
13148SOL    HW150373   1.468   3.443   1.266 -1.2627 -0.4739  0.6479
13148SOL    HW250374   1.519   3.293   1.228  1.1661  0.7182 -0.9941
13149SOL     OW50375   0.893   4.220   1.993  0.0380  0.4584  0.5400
13149SOL    HW150376   0.939   4.144   2.039 -1.6628 -0.6672  0.4408
13149SOL    HW250377   0.955   4.261   1.926  1.8316  0.7840  2.3699
13150SOL     OW50378   9.288   4.965   0.805 -0.3329 -0.4252  1.0408
13150SOL    HW150379   9.387   4.954   0.801 -0.1883  1.2748 -1.3074
13150SOL    HW250380   9.245   4.901   0.741 -0.5723  0.5206  0.2368
13151SOL     OW50381   4.939   4.493   2.457 -0.4105  0.1079  0.2302
13151SOL    HW150382   4.906   4.529   2.544 -0.4154  0.9271 -0.1023
13151SOL    HW250383   4.898   4.546   2.382  0.6063  0.2581 -0.2305
13152SOL     OW50384   2.322   2.138   2.831 -0.2406 -0.3145  0.5659
13152SOL    HW150385   2.354   2.186   2.749 -0.9754 -1.3926 -0.3828
13152SOL    HW250386   2.292   2.204   2.899 -2.0276  0.5827 -1.0302
13153SOL     OW50387   1.352   2.972   3.425 -0.1065  0.4936  0.3475
13153SOL    HW150388   1.367   3.037   3.351 -0.9750  1.7214  1.2419
13153SOL    HW250389   1.287   3.010   3.491 -0.5013 -1.2040  0.9665
13154SOL     OW50390   9.730   3.752   2.663 -0.3585  0.2950 -0.1293
13154SOL    HW150391   9.677   3.793   2.588  0.0941 -0.1929 -0.7127
13154SOL    HW250392   9.677   3.759   2.747 -0.7639  1.0800 -0.4354
13155SOL     OW50393   7.854   9.650   2.262  0.3847  0.0558 -0.1050
13155SOL    HW150394   7.779   9.616   2.320  0.6840  2.5122  1.8080
13155SOL    HW250395   7.822   9.658   2.168 -1.3960 -0.0635  0.4714
13156SOL     OW50396   8.004   8.549   3.523  0.3887 -0.2682  0.0717
13156SOL    HW150397   7.920   8.598   3.499  0.0977 -0.6224  0.3805
13156SOL    HW250398   8.001   8.457   3.484  0.9202 -0.0595 -0.4752
13157SOL     OW50399   5.908   9.160   1.914  0.0438  0.8417  0.0296
13157SOL    HW150400   5.813   9.134   1.896  0.3402 -2.2227  2.3953
13157SOL    HW250401   5.911   9.229   1.986 -0.3796  0.4790  0.3985
13158SOL     OW50402   9.044   0.654   3.257 -0.0725  0.0741 -0.3836
13158SOL    HW150403   9.131   0.648   3.305  0.3738 -0.3009 -1.2251
13158SOL    HW250404   8.976   0.699   3.315  0.7591  0.6282  0.1619
13159SOL     OW50405   6.138   1.580   2.638  0.4140 -0.0048 -0.4321
13159SOL    HW150406   6.138   1.640   2.719  1.5354  1.4881 -1.5069
13159SOL    HW250407   6.167   1.632   2.558 -2.2470 -1.0489 -2.1518
13160SOL     OW50408   9.219   1.318   3.324  0.3854  0.4320  0.0843
13160SOL    HW150409   9.310   1.314   3.282  0.6334  0.0744  0.6398
13160SOL    HW250410   9.169   1.233   3.305  0.8429 -0.1209  1.2518
13161SOL     OW50411   9.898   0.983   1.564 -0.4342  0.3065 -1.0977
13161SOL    HW150412   9.850   0.899   1.592 -1.0669  0.6873 -1.0116
13161SOL    HW250413   9.967   1.006   1.633 -0.9158  0.3760 -0.6288
13162SOL     OW50414   9.890   7.496   2.089  0.1403  0.0380  0.1187
13162SOL    HW150415   9.813   7.434   2.075 -2.1640  2.7698  0.2282
13162SOL    HW250416   9.935   7.514   2.002  0.0935 -0.8391 -0.0915
13163SOL     OW50417   6.153   2.265   3.150 -0.3382 -0.8289  0.1690
13163SOL    HW150418   6.109   2.262   3.240 -1.8366  0.6495 -0.4822
13163SOL    HW250419   6.238   2.317   3.156 -0.4067 -0.7772  0.7313
13164SOL     OW50420   9.718   8.035   0.069  0.2099 -0.3424 -0.3152
13164SOL    HW150421   9.700   7.968   0.141 -0.0887  2.1396  1.9876
13164SOL    HW250422   9.631   8.064   0.028  0.4135 -2.1709 -2.1436
13165SOL     OW50423   4.891   7.560   2.101  0.2918 -0.1892 -0.2859
13165SOL    HW150424   4.849   7.471   2.115  0.0708  0.1275  1.1542
13165SOL    HW250425   4.838   7.612   2.035 -1.9991  0.4399  1.9650
13166SOL     OW50426   0.024   9.909   1.109  0.0286 -0.1987  0.0497
13166SOL    HW150427   0.105   9.966   1.101  0.5576 -0.9569 -0.0377
13166SOL    HW250428   0.039   9.838   1.177 -0.1542 -1.0159 -0.7476
13167SOL     OW50429   8.749   3.760   0.737  0.3250 -0.8897 -0.5360
13167SOL    HW150430   8.778   3.665   0.732  0.7083 -0.7440 -1.0856
13167SOL    HW250431   8.689   3.782   0.661 -0.9343 -1.0808  0.3916
13168SOL     OW50432   8.957   5.697   4.055 -0.4223  0.3010 -0.4416
13168SOL    HW150433   8.959   5.619   3.992 -1.3409  0.2678 -0.4368
13168SOL    HW250434   8.939   5.781   4.003  1.0189  0.5760 -0.5056
13169SOL     OW50435   7.958   7.189   1.781 -0.0550  0.2388  0.3554
13169SOL    HW150436   7.978   7.262   1.715 -0.7706  0.8507  0.8244
13169SOL    HW250437   7.960   7.225   1.874 -0.0493 -0.4176  0.6159
13170SOL     OW50438   9.112   9.472   1.876 -1.0886 -0.1838  0.1657
13170SOL    HW150439   9.037   9.411   1.902 -0.8569 -1.5929 -2.2785
13170SOL    HW250440   9.130   9.463   1.778  0.6164  2.0085  0.2275
13171SOL     OW50441   9.792   4.378   5.916  0.1015 -0.1115 -0.1783
13171SOL    HW150442   9.882   4.401   5.954  1.8551 -4.7056 -1.2902
13171SOL    HW250443   9.799   4.371   5.817 -0.8370 -2.9078 -0.0843
13172SOL     OW50444   4.537   4.199   1.127 -0.1621  0.8850 -0.7622
13172SOL    HW150445   4.612   4.195   1.061 -1.5200  0.3880 -2.3209
13172SOL    HW250446   4.570   4.172   1.218  1.2620 -0.5138 -1.6815
13173SOL     OW50447   3.433   3.350   2.446 -0.0713  0.1879  0.0348
13173SOL    HW150448   3.463   3.445   2.449  0.1199  0.0934  3.5381
13173SOL    HW250449   3.336   3.346   2.422  0.0120  1.2561 -0.4869
13174SOL     OW50450   1.944   7.513   5.747  0.5526 -0.0469 -0.3672
13174SOL    HW150451   2.005   7.549   5.677  0.4702 -0.9505 -0.9018
13174SOL    HW250452   1.987   7.526   5.837  1.4114 -0.4266 -0.7137
13175SOL     OW50453   2.210   3.714   0.179 -0.4813 -0.3362  0.2239
13175SOL    HW150454   2.207   3.713   0.279  1.3917  2.6126  0.3745
13175SOL    HW250455   2.300   3.682   0.148 -0.9373 -0.9158 -0.5215
13176SOL     OW50456   2.766   3.975   2.019  0.2401  0.6580 -0.1480
13176SOL    HW150457   2.792   3.885   1.985 -2.4746 -0.0532 -0.3967
13176SOL    HW250458   2.798   3.985   2.114  0.7920 -0.4280 -0.2119
13177SOL     OW50459   8.060   2.814   1.698 -0.2649 -0.3595  0.2676
13177SOL    HW150460   8.100   2.724   1.677 -1.6043 -1.1755  1.1614
13177SOL    HW250461   8.020   2.852   1.615 -0.3529 -0.9242  0.0493
13178SOL     OW50462   9.099   7.892   5.069 -0.8814 -0.4919 -0.3161
13178SOL    HW150463   9.005   7.925   5.075 -0.4697  1.1481 -2.1456
13178SOL    HW250464   9.105   7.821   4.998 -1.1099 -2.1758  1.2879
13179SOL     OW50465   8.782   4.705   0.948 -0.1319 -0.0926 -0.1001
13179SOL    HW150466   8.865   4.672   0.992  0.5398 -0.7982 -1.8489
13179SOL    HW250467   8.783   4.805   0.945  0.4746 -0.0868  0.2279
13180SOL     OW50468   5.991   4.595   0.214 -0.2160  0.6525 -0.0329
13180SOL    HW150469   5.891   4.583   0.217 -0.0116 -1.0658  0.3376
13180SOL    HW250470   6.027   4.596   0.307  0.2482  0.0300 -0.2021
13181SOL     OW50471   1.355   3.779   3.385  0.3821 -0.2257  0.3358
13181SOL    HW150472   1.429   3.767   3.451 -0.1159 -0.6109  0.8254
13181SOL    HW250473   1.273   3.811   3.432  0.1425 -0.1078 -0.1576
13182SOL     OW50474   2.742   7.214   0.856 -0.1224 -0.0365  0.1898
13182SOL    HW150475   2.686   7.274   0.799 -0.8406 -0.5041  0.3980
13182SOL    HW250476   2.839   7.232   0.839 -0.3124 -0.9723 -2.0463
13183SOL     OW50477   9.386   3.941   5.913 -0.0436  0.1179  0.1325
13183SOL    HW150478   9.469   3.926   5.967 -0.8007 -0.9453  1.0274
13183SOL    HW250479   9.405   3.926   5.816  0.4784 -1.5234  0.4727
13184SOL     OW50480   1.232   0.318   1.446  0.5235  0.0464  0.2095
13184SOL    HW150481   1.184   0.405   1.452 -0.3922 -0.4727  0.4667
13184SOL    HW250482   1.253   0.297   1.350 -1.2786 -0.5368 -0.0702
13185SOL     OW50483   8.405   5.363   1.171 -0.5383  0.2652  0.5290
13185SOL    HW150484   8.350   5.280   1.179 -1.3993  0.5719 -1.8600
13185SOL    HW250485   8.348   5.443   1.193  0.3798  0.2568  3.1832
13186SOL     OW50486   8.118   2.541   1.220 -0.2628  0.0402 -0.1801
13186SOL    HW150487   8.087   2.448   1.202  1.3660 -0.2370 -1.7462
13186SOL    HW250488   8.211   2.552   1.184  0.6974  1.4109  2.5388
13187SOL     OW50489   1.712   4.329   3.353 -0.1466  0.3790 -0.3990
13187SOL    HW150490   1.735   4.247   3.301 -0.5025  0.7713 -1.1773
13187SOL    HW250491   1.662   4.303   3.436  1.5150 -0.3423  0.4031
13188SOL     OW50492   1.903   1.696   1.117 -0.4953 -0.1918  0.2155
13188SOL    HW150493   1.855   1.747   1.046 -0.0797 -2.0492 -1.4648
13188SOL    HW250494   1.969   1.755   1.162 -0.2068  0.8180 -1.4957
13189SOL     OW50495   0.144   3.982   2.235 -0.1097  0.5121 -0.2668
13189SOL    HW150496   0.192   3.903   2.274  0.3797  0.4884 -0.9174
13189SOL    HW250497   0.046   3.971   2.249 -0.0870 -0.4672 -0.8057
13190SOL     OW50498   6.356   8.236   2.085 -0.4164  0.5166 -0.0316
13190SOL    HW150499   6.391   8.206   1.997 -0.4339  1.3118 -0.3063
13190SOL    HW250500   6.431   8.268   2.142 -0.1580 -1.6540  0.9133
13191SOL     OW50501   6.536   0.766   0.829  0.0561  0.6768 -0.1875
13191SOL    HW150502   6.610   0.833   0.819  0.6945 -0.0137 -0.1474
13191SOL    HW250503   6.560   0.700   0.901 -0.3373  0.1033 -0.5773
13192SOL     OW50504   9.482   1.578   4.250  0.2050  0.2107  0.4441
13192SOL    HW150505   9.406   1.626   4.207 -1.1883 -2.1870  0.1195
13192SOL    HW250506   9.564   1.587   4.194 -1.0809 -1.1994 -1.7365
13193SOL     OW50507   9.380   9.644   1.606  0.4433  0.7522  0.1247
13193SOL    HW150508   9.413   9.602   1.521  0.2934  0.3552  0.2609
13193SOL    HW250509   9.434   9.726   1.626 -0.0095  1.2741 -0.7555
13194SOL     OW50510   8.523   4.247   4.738 -0.6260 -0.0430 -0.3821
13194SOL    HW150511   8.616   4.264   4.771 -1.1856 -0.4225  1.4933
13194SOL    HW250512   8.470   4.202   4.811 -1.7985 -1.3273 -1.9915
13195SOL     OW50513   2.341   7.344   5.557  0.6165 -0.0458 -0.1066
13195SOL    HW150514   2.369   7.433   5.592 -2.0030  0.6136  0.4451
13195SOL    HW250515   2.415   7.278   5.571  2.1656  1.7750  0.5014
13196SOL     OW50516   0.604   9.077   3.091  0.4599 -0.6378 -0.3078
13196SOL    HW150517   0.590   9.149   3.023 -0.0758  1.1121  1.6033
13196SOL    HW250518   0.702   9.067   3.109  0.4868  0.3307  0.1296
13197SOL     OW50519   8.902   0.400   4.887 -0.2505  0.2557 -0.4726
13197SOL    HW150520   8.823   0.428   4.941  0.7769 -0.0661  1.2346
13197SOL    HW250521   8.986   0.430   4.933  0.7986 -3.1194 -0.0154
13198SOL     OW50522   9.953   0.124   2.541 -0.6032  0.2372 -0.0221
13198SOL    HW150523   9.947   0.196   2.611  0.7648 -0.5407  0.9187
13198SOL    HW250524   9.955   0.035   2.586 -0.0060 -0.2824 -1.0759
13199SOL     OW50525   0.263   9.939   2.550 -0.1345 -0.0036  0.1918
13199SOL    HW150526   0.177   9.889   2.562 -0.4281  0.5321  0.3452
13199SOL    HW250527   0.247  10.018   2.490  0.0792  0.5439  0.8513
13200SOL     OW50528   2.184   7.512   1.559  0.2223 -0.5049 -0.0530
13200SOL    HW150529   2.260   7.450   1.577  0.1497 -0.3442  0.8233
13200SOL    HW250530   2.194   7.552   1.468  0.2710 -1.8047 -0.6332
13201SOL     OW50531   2.107   4.277   5.740  0.6406  0.4471 -0.6266
13201SOL    HW150532   2.153   4.269   5.651 -1.3292  1.0801 -1.7424
13201SOL    HW250533   2.066   4.368   5.748  0.2880  0.1812  0.6828
13202SOL     OW50534   6.739   7.043   3.378  0.3585  0.0001  0.3830
13202SOL    HW150535   6.736   7.077   3.283  0.4268 -2.0424 -0.3665
13202SOL    HW250536   6.833   7.047   3.411  0.4314  0.1743  0.1598
13203SOL     OW50537   2.388   6.690   5.499  0.1841  0.2903  0.6380
13203SOL    HW150538   2.349   6.771   5.454 -2.1022 -0.4334  1.2709
13203SOL    HW250539   2.353   6.685   5.593  2.9653  0.4102  1.7212
13204SOL     OW50540   2.810   8.398   0.759 -0.1004 -0.1223  0.0686
13204SOL    HW150541   2.894   8.387   0.812  0.1442 -2.0504 -0.6891
13204SOL    HW250542   2.752   8.466   0.804  2.3703  2.1752 -0.0886
13205SOL     OW50543   9.332   2.505   3.444 -0.0742  0.3119 -0.3070
13205SOL    HW150544   9.240   2.544   3.438  0.2158  1.0756  0.1528
13205SOL    HW250545   9.337   2.422   3.388 -0.9616  0.4285 -0.5596
13206SOL     OW50546   7.795   3.322   0.694 -0.2044 -0.4563 -0.2979
13206SOL    HW150547   7.782   3.313   0.793  1.4947  0.4610  0.0205
13206SOL    HW250548   7.832   3.237   0.657 -1.9742 -1.2284 -0.3654
13207SOL     OW50549   3.180   9.048   2.723  0.2347 -0.1139  0.0380
13207SOL    HW150550   3.151   8.989   2.648  1.7916 -1.9625  0.8615
13207SOL    HW250551   3.239   9.120   2.687 -0.2664 -0.0686 -0.7143
13208SOL     OW50552   7.613   1.490   1.288 -0.4649 -0.0759  0.1191
13208SOL    HW150553   7.604   1.580   1.246  3.0741  0.5917  0.5953
13208SOL    HW250554   7.622   1.500   1.387 -0.0481 -0.9489  0.1744
13209SOL     OW50555   8.536   1.859   3.675  0.6278  0.2513 -0.0324
13209SOL    HW150556   8.539   1.890   3.770  2.6982 -0.4032  0.1449
13209SOL    HW250557   8.456   1.802   3.660  1.8150 -2.0702  2.1268
13210SOL     OW50558   2.025   5.296   4.394 -0.1755 -0.1647 -0.0375
13210SOL    HW150559   2.007   5.257   4.485  2.7828 -0.4987  0.4502
13210SOL    HW250560   2.074   5.229   4.338  0.4322  1.0125 -0.9368
13211SOL     OW50561   8.523   9.256   3.973 -0.3462 -0.6734  0.2473
13211SOL    HW150562   8.581   9.295   3.901 -2.5230  0.2920 -1.0432
13211SOL    HW250563   8.427   9.266   3.947 -1.1157 -1.9245  2.4961
13212SOL     OW50564   1.325   4.721   2.362  0.0658 -0.8347  1.0754
13212SOL    HW150565   1.341   4.786   2.436  1.5259 -0.8854  0.8225
13212SOL    HW250566   1.385   4.743   2.285  0.0175 -2.0093  0.6895
13213SOL     OW50567   3.186   4.892   2.552  0.1411  0.2494  0.1354
13213SOL    HW150568   3.123   4.918   2.626  0.4745  1.1911  0.1008
13213SOL    HW250569   3.205   4.972   2.496  2.4246  0.3017  0.9487
13214SOL     OW50570   9.654   2.325   2.547  0.4619 -0.3782  0.6758
13214SOL    HW150571   9.713   2.406   2.545 -1.1873  0.8382 -0.3397
13214SOL    HW250572   9.577   2.341   2.608 -0.5457 -0.6784 -0.4818
13215SOL     OW50573   9.433   5.058   5.047  0.0224 -0.0672 -0.2933
13215SOL    HW150574   9.452   4.986   4.980 -0.8686  0.2293 -0.8669
13215SOL    HW250575   9.507   5.060   5.115  0.3777 -1.0929 -0.6369
13216SOL     OW50576   5.318   0.080   2.802 -0.3580 -0.2780  0.2422
13216SOL    HW150577   5.308   0.161   2.861  0.3075 -0.5148  0.6910
13216SOL    HW250578   5.415   0.060   2.791 -0.5268 -1.0574  0.1905
13217SOL     OW50579   1.545   1.139   1.805 -0.1130 -0.1331 -0.4549
13217SOL    HW150580   1.626   1.103   1.851 -0.0381  0.9189  0.2686
13217SOL    HW250581   1.463   1.116   1.858 -0.4962 -2.7229 -2.0962
13218SOL     OW50582   8.410   5.157   4.495  0.1522 -0.3899  0.5879
13218SOL    HW150583   8.400   5.174   4.397  0.4761  0.1501  0.6464
13218SOL    HW250584   8.384   5.063   4.515 -1.4365 -0.0430  0.2182
13219SOL     OW50585   9.321   7.537   5.198  0.2809  0.3332 -0.3908
13219SOL    HW150586   9.256   7.473   5.240  1.3561 -1.1327 -0.9157
13219SOL    HW250587   9.342   7.610   5.263 -0.6422 -0.0667  0.3773
13220SOL     OW50588   6.920   7.359   3.568  0.4036 -0.0731  0.1470
13220SOL    HW150589   6.922   7.336   3.471 -0.2970 -0.4054  0.2085
13220SOL    HW250590   6.844   7.312   3.612 -0.4312  1.5646  0.4726
13221SOL     OW50591   2.139   7.354   2.695  0.4815 -0.0379 -0.0670
13221SOL    HW150592   2.210   7.338   2.763  1.2482 -0.4471 -0.9521
13221SOL    HW250593   2.177   7.343   2.603 -0.4188  0.9801 -0.5799
13222SOL     OW50594   8.400   7.438   3.534  0.2597 -0.3398 -0.4841
13222SOL    HW150595   8.350   7.506   3.587  1.6703  0.5308 -0.2431
13222SOL    HW250596   8.448   7.484   3.459  2.1611 -0.8781  0.3645
13223SOL     OW50597   9.279   4.914   1.945  0.0177  0.4635  0.0803
13223SOL    HW150598   9.183   4.897   1.968  0.2192  2.4208  2.6225
13223SOL    HW250599   9.326   4.950   2.025  2.6155  0.6699 -1.4890
13224SOL     OW50600   7.792   0.426   5.367  0.2396  0.2212  0.2386
13224SOL    HW150601   7.797   0.342   5.313  1.3030  0.5979 -0.2465
13224SOL    HW250602   7.876   0.479   5.356  1.3818 -0.6939  3.8472
13225SOL     OW50603   0.838   8.466   0.476 -0.0778 -0.2165  0.6222
13225SOL    HW150604   0.753   8.515   0.455  0.7946  0.8138 -0.5877
13225SOL    HW250605   0.909   8.531   0.502 -0.0762 -1.1982  3.2527
13226SOL     OW50606   0.344   4.903   5.845  0.0695 -0.1444  0.5223
13226SOL    HW150607   0.421   4.872   5.788 -0.5000 -2.2364  0.8371
13226SOL    HW250608   0.268   4.929   5.786  0.6732  1.0187  0.2396
13227SOL     OW50609   1.316   4.702   0.916  0.3816  0.0526 -0.3995
13227SOL    HW150610   1.348   4.738   1.003  0.7966  1.5846 -1.1727
13227SOL    HW250611   1.393   4.665   0.864  0.6543  2.0664 -1.4728
13228SOL     OW50612   1.546   0.265   2.158 -0.0198  0.6364 -0.0622
13228SOL    HW150613   1.624   0.288   2.099 -0.1500  0.1877 -0.4044
13228SOL    HW250614   1.579   0.212   2.237  0.3899  2.5778  1.1033
13229SOL     OW50615   6.247   8.555   5.181  0.0811  0.0347  0.0924
13229SOL    HW150616   6.192   8.543   5.264  0.8569  0.1551  0.6278
13229SOL    HW250617   6.302   8.473   5.166 -0.8561 -0.4284 -0.9109
13230SOL     OW50618   1.667   5.670   4.350 -0.3315 -0.7083  0.1867
13230SOL    HW150619   1.681   5.666   4.251  0.7633  1.5977  0.2134
13230SOL    HW250620   1.691   5.761   4.383 -0.6292 -1.4760  2.5968
13231SOL     OW50621   2.593   6.067   0.167  0.2171  0.5570 -0.0363
13231SOL    HW150622   2.681   6.020   0.172  1.0798  2.1592  0.3841
13231SOL    HW250623   2.522   6.003   0.139  1.5238 -0.7569 -0.3984
13232SOL     OW50624   0.023   8.085   4.313  0.6526 -0.2298 -0.1223
13232SOL    HW150625  -0.016   8.144   4.242 -1.2423 -0.6988  0.5291
13232SOL    HW250626  -0.048   8.028   4.353  1.6913  0.0882  2.2463
13233SOL     OW50627   3.312   5.772   5.900 -0.4086  0.0189 -0.0373
13233SOL    HW150628   3.350   5.824   5.977  0.9324 -0.4966 -0.3297
13233SOL    HW250629   3.371   5.693   5.882 -0.7411  0.1092 -1.5609
13234SOL     OW50630   8.151   7.575   4.023 -0.6969  0.3906 -0.0433
13234SOL    HW150631   8.085   7.502   4.034 -0.5924 -0.0149 -1.8745
13234SOL    HW250632   8.104   7.659   3.996 -0.6093  0.4370 -0.0529
13235SOL     OW50633   3.509   6.361   1.654  0.0719 -0.2984  0.0869
13235SOL    HW150634   3.564   6.439   1.623 -2.8852  1.4348 -1.0141
13235SOL    HW250635   3.509   6.290   1.584  0.8638 -0.2972  0.0811
13236SOL     OW50636   0.853   6.732   0.581 -0.3585 -0.8651  0.2195
13236SOL    HW150637   0.794   6.707   0.504  2.5790 -1.3333 -2.0136
13236SOL    HW250638   0.798   6.750   0.662 -3.4310 -2.2392 -1.4920
13237SOL     OW50639   9.826   8.622   2.312 -0.0842 -0.4513 -0.3757
13237SOL    HW150640   9.854   8.588   2.402 -1.4349  0.5179  0.4237
13237SOL    HW250641   9.754   8.563   2.276 -0.4487 -0.0782 -0.2491
13238SOL     OW50642   0.642   7.881   0.376 -0.6762  0.1423 -0.0710
13238SOL    HW150643   0.628   7.978   0.400  1.2493  0.3943  0.1276
13238SOL    HW250644   0.663   7.830   0.459 -2.3994 -0.5942 -0.0787
13239SOL     OW50645   6.245   1.200   5.109  0.3889  0.0213  0.0951
13239SOL    HW150646   6.323   1.226   5.166 -0.5898 -1.1378  2.0118
13239SOL    HW250647   6.228   1.102   5.119 -2.1105  0.4973  0.7425
13240SOL     OW50648   0.416   5.927   4.487 -0.2169  0.0032 -0.0603
13240SOL    HW150649   0.467   5.994   4.433  1.3873 -1.5479 -0.5491
13240SOL    HW250650   0.378   5.857   4.426 -0.3360 -0.5160  0.6069
13241SOL     OW50651   9.741   7.994   4.418 -0.1085  0.5556 -0.3935
13241SOL    HW150652   9.707   7.900   4.419 -2.7962  1.4779  0.3132
13241SOL    HW250653   9.740   8.029   4.324 -1.0412  0.4981 -0.4193
13242SOL     OW50654   9.197   4.083   1.575  0.0419 -0.5910  0.0295
13242SOL    HW150655   9.123   4.106   1.637 -0.2999 -3.3126  0.7007
13242SOL    HW250656   9.275   4.049   1.627 -0.0207 -2.3067 -0.9379
13243SOL     OW50657   0.906   0.680   3.461  0.0913  0.0749  0.3359
13243SOL    HW150658   0.848   0.693   3.542  1.1776 -0.4474  1.2121
13243SOL    HW250659   1.002   0.690   3.487  0.4310  0.2353 -0.9623
13244SOL     OW50660   5.420   1.544   5.456 -0.3847  0.1825  0.3667
13244SOL    HW150661   5.435   1.459   5.506  0.7101  0.4100  0.4556
13244SOL    HW250662   5.509   1.586   5.437 -0.9222  1.2972  0.3146
13245SOL     OW50663   3.665   0.777   3.345  0.0538 -0.6428  0.6179
13245SOL    HW150664   3.671   0.759   3.444 -0.6031  2.4945  1.2987
13245SOL    HW250665   3.572   0.804   3.322  0.6380  0.4330 -0.5282
13246SOL     OW50666   2.668   5.803   3.476  0.0338 -0.0806 -0.1808
13246SOL    HW150667   2.581   5.759   3.455 -0.0668  0.7253 -1.5073
13246SOL    HW250668   2.720   5.816   3.392  0.4958  1.4045  0.3195
13247SOL     OW50669   7.678   2.952   2.544 -0.3125  0.4004 -0.1239
13247SOL    HW150670   7.719   3.041   2.565  2.0218 -0.5901 -0.3786
13247SOL    HW250671   7.716   2.882   2.605 -0.7075 -0.7725 -1.2067
13248SOL     OW50672   7.675   2.309   3.255  0.1463 -0.1941  0.5152
13248SOL    HW150673   7.755   2.359   3.224 -1.0165  1.0184 -0.5913
13248SOL    HW250674   7.703   2.224   3.300  1.9267 -1.1242 -2.2891
13249SOL     OW50675   4.041   0.877   3.949 -0.3456 -0.7016 -0.0592
13249SOL    HW150676   3.991   0.940   3.889 -0.3414  1.0459  1.7049
13249SOL    HW250677   4.007   0.886   4.042  2.3938 -0.4038  0.9538
13250SOL     OW50678   2.777   5.977   1.050  0.6483 -0.1361 -0.0787
13250SOL    HW150679   2.863   6.026   1.061  0.9648 -1.0248  1.4752
13250SOL    HW250680   2.727   5.976   1.137 -1.8113  1.9644 -1.3970
13251SOL     OW50681   3.335   5.954   5.626  0.6535  0.5283 -0.0757
13251SOL    HW150682   3.363   6.038   5.671 -1.8577  0.6974  1.2459
13251SOL    HW250683   3.265   5.975   5.557  0.0878 -0.4507  0.1886
13252SOL     OW50684   0.692   3.377   1.670  0.6016 -0.0408  0.1687
13252SOL    HW150685   0.664   3.421   1.585  0.2081 -1.0541 -0.2328
13252SOL    HW250686   0.745   3.441   1.725 -0.9596  1.3081  0.1221
13253SOL     OW50687   3.455   2.731   4.768 -0.0479 -0.2610  0.5551
13253SOL    HW150688   3.548   2.696   4.780  0.2975  0.5395  0.2410
13253SOL    HW250689   3.443   2.815   4.821 -0.2040  0.3101 -0.3634
13254SOL     OW50690   1.120   8.337   2.242 -0.5414  0.1552 -0.0994
13254SOL    HW150691   1.026   8.349   2.276 -0.1291  0.4470  0.9787
13254SOL    HW250692   1.145   8.240   2.248 -0.2008  0.3111  1.2064
13255SOL     OW50693   6.765   9.299   1.973  0.2285  0.2395 -0.5092
13255SOL    HW150694   6.681   9.244   1.967 -0.4490  1.1957  0.0589
13255SOL    HW250695   6.745   9.393   1.948  0.6638  0.9261  1.5977
13256SOL     OW50696   4.538   7.822   2.635  0.0207  0.7921  0.0805
13256SOL    HW150697   4.610   7.879   2.597  0.7420  0.5954  1.1388
13256SOL    HW250698   4.573   7.729   2.649 -0.0134  1.0465  1.8966
13257SOL     OW50699   1.548   3.604   6.167  0.4676  0.0963  0.0792
13257SOL    HW150700   1.477   3.629   6.101  0.9057  0.6319 -0.1938
13257SOL    HW250701   1.533   3.653   6.253  1.5849  1.6895 -0.6040
13258SOL     OW50702   2.332   5.853   1.398 -0.2668  0.5390  0.2702
13258SOL    HW150703   2.388   5.864   1.480 -0.8153  1.3563  0.5536
13258SOL    HW250704   2.379   5.795   1.332 -0.0107 -0.4984  1.3437
13259SOL     OW50705   9.742   4.281   6.279 -0.1538  0.0143  0.7349
13259SOL    HW150706   9.748   4.181   6.277  2.1230  0.1319  0.2492
13259SOL    HW250707   9.733   4.316   6.186 -1.3640  0.2672  0.9318
13260SOL     OW50708   2.633   7.159   1.433  0.6140  0.6836  0.0156
13260SOL    HW150709   2.689   7.081   1.462 -0.6607 -0.9596 -1.7787
13260SOL    HW250710   2.649   7.177   1.336  0.3879  2.2633  0.2536
13261SOL     OW50711   0.017   4.809   1.774  0.1100 -0.5879  0.2016
13261SOL    HW150712  -0.068   4.776   1.733 -0.2470  0.5848  0.0016
13261SOL    HW250713   0.091   4.800   1.707 -0.7352  2.6295 -1.2300
13262SOL     OW50714   7.569   8.552   5.274  0.1943 -0.3799  0.7531
13262SOL    HW150715   7.654   8.511   5.242 -0.1364  0.2083 -0.8837
13262SOL    HW250716   7.583   8.649   5.292 -0.3384 -0.0950 -0.3340
13263SOL     OW50717   9.587   2.807   0.117  0.3921  0.1141  0.3673
13263SOL    HW150718   9.499   2.811   0.165  0.1758  0.6115 -0.0660
13263SOL    HW250719   9.632   2.896   0.123  0.8704 -0.1405  0.5883
13264SOL     OW50720   9.855   6.325   2.715  0.6892  0.4414 -0.1274
13264SOL    HW150721   9.845   6.327   2.815 -4.1919 -2.3208 -0.4119
13264SOL    HW250722   9.775   6.367   2.673  2.3095  0.8191 -2.9553
13265SOL     OW50723   1.508   5.668   5.335 -0.4087  0.0857  0.3239
13265SOL    HW150724   1.554   5.710   5.257 -2.1313 -1.1609 -1.4071
13265SOL    HW250725   1.432   5.726   5.364 -2.0068 -1.1566 -1.2655
13266SOL     OW50726   4.036   7.769   2.481  0.1205 -0.6206 -0.4832
13266SOL    HW150727   3.963   7.786   2.547  0.2100  0.5866 -0.6879
13266SOL    HW250728   4.124   7.765   2.529  0.1814  0.2205 -0.5152
13267SOL     OW50729   9.497   4.244   5.446  0.2784 -0.5533  0.5474
13267SOL    HW150730   9.554   4.196   5.512 -0.0519 -1.9603 -0.1826
13267SOL    HW250731   9.465   4.330   5.486  4.1959  1.0778  0.4326
13268SOL     OW50732   0.994   8.070   2.629  0.1301  0.1307 -0.5321
13268SOL    HW150733   1.051   8.149   2.605  1.0658  0.1948  1.8228
13268SOL    HW250734   1.043   8.011   2.693 -1.5332 -1.0571 -0.3145
13269SOL     OW50735   9.926   1.384   4.220 -0.1998  0.2176 -0.1685
13269SOL    HW150736  10.010   1.333   4.203  0.4898  1.4069 -0.3723
13269SOL    HW250737   9.853   1.350   4.160  0.3712 -0.2133 -0.6216
13270SOL     OW50738   3.371   0.288   1.495 -0.5026  0.6777  0.5825
13270SOL    HW150739   3.414   0.377   1.515 -2.0309  1.6686 -0.4461
13270SOL    HW250740   3.272   0.295   1.508 -0.8710 -0.2939 -1.5098
13271SOL     OW50741   9.402   2.636   3.941  0.1047  0.2626  0.2516
13271SOL    HW150742   9.357   2.587   3.866  0.0342  0.4871  0.1469
13271SOL    HW250743   9.333   2.680   3.999  0.2782  2.8957 -1.4673
13272SOL     OW50744   0.667   0.385   1.940  0.2437 -0.3307 -0.1039
13272SOL    HW150745   0.589   0.370   2.000  0.4245 -0.1273  0.1828
13272SOL    HW250746   0.752   0.370   1.991  0.3886 -1.1338 -0.5679
13273SOL     OW50747   0.627   5.920   0.582 -0.5542  0.2482  0.4739
13273SOL    HW150748   0.685   6.001   0.590  1.1521 -0.8474 -0.2822
13273SOL    HW250749   0.563   5.915   0.659 -0.3495  2.0453  0.7619
13274SOL     OW50750   1.442   4.848   6.586 -0.1263  0.2664  0.4145
13274SOL    HW150751   1.422   4.785   6.511 -2.1848  0.1333  1.0339
13274SOL    HW250752   1.434   4.942   6.553  0.3452  0.2089  0.1325
13275SOL     OW50753   0.697   2.880   4.837  0.1844  0.3466 -0.0687
13275SOL    HW150754   0.776   2.819   4.833 -0.0195  0.0213  0.6943
13275SOL    HW250755   0.710   2.957   4.774  0.3521 -0.5860 -1.1831
13276SOL     OW50756   1.048   9.218   1.866  0.4942 -0.5870 -0.5056
13276SOL    HW150757   0.957   9.177   1.853  0.4509 -0.3247 -1.0361
13276SOL    HW250758   1.080   9.198   1.958 -0.2707 -0.3602 -0.1849
13277SOL     OW50759   2.149   2.037   2.070 -0.1149  0.1680 -0.2342
13277SOL    HW150760   2.067   2.092   2.085 -0.1663  0.3647 -1.2015
13277SOL    HW250761   2.219   2.094   2.027 -0.3364 -0.6289 -1.6913
13278SOL     OW50762   9.594   4.986   2.205  0.1683  0.2626 -0.5400
13278SOL    HW150763   9.501   5.021   2.214  0.2702  0.8334 -1.6122
13278SOL    HW250764   9.591   4.892   2.171 -0.0285  0.0702 -0.0014
13279SOL     OW50765   2.289   6.930   5.352 -0.0261  0.8875  0.2065
13279SOL    HW150766   2.331   6.999   5.294 -3.0594  0.9042 -2.1422
13279SOL    HW250767   2.268   6.969   5.442  0.6150  2.2544 -0.2323
13280SOL     OW50768   6.788   8.566   5.001  0.1304  0.1595 -0.1441
13280SOL    HW150769   6.785   8.466   4.998  1.2670  0.0938  0.8781
13280SOL    HW250770   6.712   8.600   5.056  1.6065 -0.2863  2.2035
13281SOL     OW50771   0.430   2.477   3.640  0.3438 -0.0631 -0.7206
13281SOL    HW150772   0.439   2.564   3.688 -0.5374 -0.0855 -0.5105
13281SOL    HW250773   0.496   2.473   3.564  1.5225  0.1046  0.2727
13282SOL     OW50774   5.358   1.759   0.670  0.0325  0.2412 -0.4991
13282SOL    HW150775   5.451   1.770   0.706 -0.0548 -0.0114 -0.1975
13282SOL    HW250776   5.295   1.819   0.720 -0.1850 -0.5243  0.1371
13283SOL     OW50777   3.479   3.382   3.391 -0.1141 -0.1514 -0.4222
13283SOL    HW150778   3.514   3.450   3.326 -0.1841  0.7615  0.4791
13283SOL    HW250779   3.526   3.393   3.478 -0.4136 -1.0144 -0.1521
13284SOL     OW50780   3.414   7.567   4.033 -0.1731 -0.6257  0.5022
13284SOL    HW150781   3.355   7.575   4.114 -1.5496 -4.1330 -0.0325
13284SOL    HW250782   3.363   7.521   3.960  1.3029  1.7895 -2.1125
13285SOL     OW50783   1.961   9.203   4.122  0.3022 -0.7755 -0.1015
13285SOL    HW150784   2.047   9.247   4.095  0.0861 -0.9414 -1.0504
13285SOL    HW250785   1.971   9.167   4.215  0.7092  0.6769  0.4298
13286SOL     OW50786   8.493   2.961   0.487 -0.0890  0.2924  0.5450
13286SOL    HW150787   8.542   3.045   0.463 -0.6971  0.7828  0.9820
13286SOL    HW250788   8.502   2.944   0.585  0.6393 -0.5553  0.3348
13287SOL     OW50789   1.745   2.548   3.203  0.1397 -0.7557  0.9239
13287SOL    HW150790   1.672   2.505   3.256 -0.6747 -1.8470 -1.0404
13287SOL    HW250791   1.705   2.611   3.136  1.1872  1.0539  1.9697
13288SOL     OW50792   2.953   8.344   4.101  0.0806  0.2654 -0.1036
13288SOL    HW150793   2.930   8.249   4.081  1.4297 -0.0474 -0.1924
13288SOL    HW250794   2.871   8.392   4.131 -0.3583 -1.2423  1.1730
13289SOL     OW50795   3.100   5.460   0.069 -0.0498  0.0669  0.7102
13289SOL    HW150796   3.095   5.482   0.166 -0.9112 -0.2035  0.7345
13289SOL    HW250797   3.083   5.362   0.056 -0.4208  0.1887  0.2467
13290SOL     OW50798   9.837   1.169   3.386 -0.1078  0.3057 -0.1927
13290SOL    HW150799   9.883   1.217   3.461  0.4430  0.2785 -0.5078
13290SOL    HW250800   9.865   1.072   3.387  0.8577  0.5540 -1.1600
13291SOL     OW50801   4.332   6.898   2.082  0.2550  0.1363 -0.2299
13291SOL    HW150802   4.338   6.942   1.993  1.6896 -1.2853 -0.8557
13291SOL    HW250803   4.312   6.966   2.152 -0.6750  1.2950 -1.5914
13292SOL     OW50804   4.320   9.088   4.316  0.3871  0.3766  0.6894
13292SOL    HW150805   4.322   9.072   4.415  3.0038  0.1688  0.6335
13292SOL    HW250806   4.400   9.141   4.289 -0.7101  1.1024 -1.2302
13293SOL     OW50807   8.379   6.361   5.207 -0.2031 -0.4087  0.4959
13293SOL    HW150808   8.472   6.394   5.218 -0.7853  1.6913 -0.5017
13293SOL    HW250809   8.371   6.308   5.123  0.2865 -1.3107  1.0239
13294SOL     OW50810   8.992   5.325   2.250  0.5404 -0.4208 -0.3299
13294SOL    HW150811   9.021   5.418   2.273  0.8391 -0.5850 -0.0380
13294SOL    HW250812   8.957   5.281   2.332 -1.0297 -0.0449 -0.7865
13295SOL     OW50813   0.376   1.331   2.471  0.0327  0.6401  0.2877
13295SOL    HW150814   0.395   1.363   2.564 -2.7378  1.0124  0.7609
13295SOL    HW250815   0.431   1.384   2.407  0.2653  1.9918  1.5562
13296SOL     OW50816   0.570   6.036   4.289  0.6086 -0.0931  0.4665
13296SOL    HW150817   0.585   6.005   4.195 -0.0348  0.5755  0.1334
13296SOL    HW250818   0.554   6.135   4.289 -1.9727 -0.4535  0.9679
13297SOL     OW50819   4.781   2.868   1.181  0.1884 -0.5912 -0.6567
13297SOL    HW150820   4.836   2.950   1.195  0.3342 -0.5465 -1.4910
13297SOL    HW250821   4.753   2.862   1.085  0.1344 -1.4897 -0.5889
13298SOL     OW50822   7.712   1.918   3.241  0.2480 -0.3606  0.3632
13298SOL    HW150823   7.768   1.992   3.277 -2.7720  1.5847  1.2337
13298SOL    HW250824   7.684   1.857   3.315 -1.1331  0.3292  0.4349
13299SOL     OW50825   1.775   7.968   1.089 -0.2298  0.3680 -0.6016
13299SOL    HW150826   1.866   7.926   1.088  0.1191  1.1003 -2.2177
13299SOL    HW250827   1.783   8.063   1.121 -0.9589 -0.6297  2.6900
13300SOL     OW50828   1.016   7.816   3.308  0.0280  0.2532 -0.2159
13300SOL    HW150829   0.988   7.845   3.399  0.4603 -0.2857  0.0862
13300SOL    HW250830   1.070   7.889   3.265 -1.1148  0.9554 -0.4767
13301SOL     OW50831   5.160   1.877   0.852  0.1830 -0.8068  0.2568
13301SOL    HW150832   5.249   1.889   0.896  0.3859  2.4830 -0.8689
13301SOL    HW250833   5.111   1.965   0.851 -1.1138 -1.4796 -3.2238
13302SOL     OW50834   3.233   3.108   0.676  0.4162  0.4833 -0.2976
13302SOL    HW150835   3.213   3.145   0.585 -0.6775  0.5663 -0.0252
13302SOL    HW250836   3.209   3.011   0.678  0.2441  0.5315 -0.0345
13303SOL     OW50837   8.429   2.898   0.762  0.0678 -0.0562 -0.2292
13303SOL    HW150838   8.361   2.831   0.734 -0.7615 -0.0728  1.7745
13303SOL    HW250839   8.508   2.851   0.801 -0.3478  0.0972  0.8156
13304SOL     OW50840   6.475   7.270   4.767  0.5716  0.6526 -0.4119
13304SOL    HW150841   6.565   7.243   4.802  0.2093 -0.2853 -0.1850
13304SOL    HW250842   6.412   7.192   4.775 -0.2427  1.2928 -0.6118
13305SOL     OW50843   3.118   7.824   3.558 -0.1794 -0.1651 -0.1059
13305SOL    HW150844   3.072   7.910   3.581 -1.1101 -0.3509 -1.2268
13305SOL    HW250845   3.203   7.844   3.508 -1.7262  0.0665 -2.7364
13306SOL     OW50846   9.120   8.416   1.286 -0.8308  0.2011  0.0541
13306SOL    HW150847   9.101   8.514   1.291 -1.5404 -0.0053  1.6151
13306SOL    HW250848   9.152   8.384   1.375 -1.4594 -1.1700 -0.2097
13307SOL     OW50849   7.933   9.489   5.007  0.2575  0.1157  0.0816
13307SOL    HW150850   7.932   9.587   4.990 -1.5435  0.2963  1.0437
13307SOL    HW250851   7.915   9.472   5.104  4.3979 -1.0613  0.7106
13308SOL     OW50852   1.604   7.101   3.952 -0.0522 -0.3299 -0.6092
13308SOL    HW150853   1.617   7.100   3.853 -1.2169 -1.4982 -0.7633
13308SOL    HW250854   1.518   7.056   3.975  0.4039 -0.4326  0.9687
13309SOL     OW50855   5.445   1.108   1.538  0.0976  0.7222 -0.2673
13309SOL    HW150856   5.516   1.177   1.530  0.0851  0.7475 -0.1635
13309SOL    HW250857   5.464   1.033   1.475  0.7884  0.2297  0.5188
13310SOL     OW50858   9.477   3.026   4.686  0.6788  0.2025  0.2561
13310SOL    HW150859   9.453   2.935   4.720 -4.3124  1.1399 -0.4879
13310SOL    HW250860   9.492   3.088   4.763 -2.3803  0.2803  0.8484
13311SOL     OW50861   0.502   1.924   1.585 -0.2292  0.2114 -0.0534
13311SOL    HW150862   0.481   1.950   1.490  0.5000 -0.1687 -0.3211
13311SOL    HW250863   0.551   1.999   1.629  0.2610  0.0173 -0.2663
13312SOL     OW50864   7.853   1.548   1.021 -0.0006  0.4603  0.2953
13312SOL    HW150865   7.780   1.612   1.043 -0.3502  0.7401 -1.6236
13312SOL    HW250866   7.813   1.460   0.994  0.4530 -0.2130  1.7424
13313SOL     OW50867   4.399   4.275   1.840 -0.1164 -0.2632 -0.0938
13313SOL    HW150868   4.448   4.341   1.781 -0.6137 -0.6443 -0.9414
13313SOL    HW250869   4.464   4.232   1.902  0.0438  1.8927  1.3109
13314SOL     OW50870   2.864   6.067   6.120  0.0924 -0.6194 -0.0971
13314SOL    HW150871   2.875   6.142   6.186  2.1246  0.3954 -1.5296
13314SOL    HW250872   2.773   6.071   6.080 -0.3715  0.1267  0.9941
13315SOL     OW50873   3.879   4.940   5.852 -0.0996  0.3433  0.2672
13315SOL    HW150874   3.833   4.868   5.800 -1.4091  0.4950  1.1963
13315SOL    HW250875   3.919   5.006   5.788 -0.0869 -0.4569 -0.5700
13316SOL     OW50876   2.852   3.785   1.342  0.0564 -0.7473  0.7110
13316SOL    HW150877   2.885   3.872   1.305 -1.1819 -0.5418  0.0598
13316SOL    HW250878   2.764   3.800   1.387  0.6030 -1.3708  2.0214
13317SOL     OW50879   7.861   0.810   3.192 -0.3906  0.0696 -0.6507
13317SOL    HW150880   7.769   0.845   3.211 -0.2720 -0.4022  0.8596
13317SOL    HW250881   7.861   0.761   3.105 -1.9888 -1.3763  0.1299
13318SOL     OW50882   6.730   1.203   2.231  0.6291 -0.2635  0.3546
13318SOL    HW150883   6.827   1.225   2.232  0.5461  0.2937 -1.6281
13318SOL    HW250884   6.698   1.190   2.325  2.3360  0.7893  1.1110
13319SOL     OW50885   9.694   4.000   1.870  0.1084  0.1515  0.1536
13319SOL    HW150886   9.747   4.054   1.806 -0.5098  1.0571  0.4011
13319SOL    HW250887   9.728   3.906   1.870  2.8842  1.0809  1.6099
13320SOL     OW50888   9.726   1.807   4.407  0.3112 -0.2462 -0.0143
13320SOL    HW150889   9.677   1.737   4.459  0.5353 -0.5270 -0.1837
13320SOL    HW250890   9.778   1.764   4.333  1.3611 -0.0185  0.5835
13321SOL     OW50891   8.999   4.694   0.201 -0.1361  0.4055  0.0388
13321SOL    HW150892   9.028   4.786   0.229 -1.6436  0.6115  0.9938
13321SOL    HW250893   8.924   4.701   0.134  0.6891 -0.1212 -0.9521
13322SOL     OW50894   2.565   5.361   4.205  0.6883 -0.3521  0.0134
13322SOL    HW150895   2.582   5.292   4.135  0.7443 -0.1777 -0.1471
13322SOL    HW250896   2.466   5.373   4.217  0.6742  0.3015 -0.7196
13323SOL     OW50897   0.475   9.934   2.170  0.1054 -0.5713  0.0252
13323SOL    HW150898   0.386   9.918   2.128  0.7964  1.0023 -2.1159
13323SOL    HW250899   0.473  10.019   2.223  0.6927  0.1902 -1.1514
13324SOL     OW50900   8.850   6.342   1.756  0.5536 -0.5580  0.0401
13324SOL    HW150901   8.864   6.301   1.666 -1.3207 -1.3580  0.0920
13324SOL    HW250902   8.869   6.274   1.827  1.5454 -0.0724  0.2549
13325SOL     OW50903   0.831   1.865   3.986  0.1007 -0.0690 -0.0602
13325SOL    HW150904   0.819   1.814   3.901 -0.4860  0.4294 -0.2822
13325SOL    HW250905   0.777   1.949   3.982  0.5147  0.2303  0.5797
13326SOL     OW50906   0.188   1.281   2.035 -0.6123  0.1260  0.6625
13326SOL    HW150907   0.189   1.252   2.130 -0.7725  0.3377  0.7295
13326SOL    HW250908   0.190   1.200   1.975  3.3448  0.0331  0.7834
13327SOL     OW50909   5.431   8.605   2.141 -0.3721 -0.1302  0.0344
13327SOL    HW150910   5.483   8.575   2.221  0.4014  0.3008 -0.2985
13327SOL    HW250911   5.486   8.669   2.088 -1.3556  0.5390 -0.1820
13328SOL     OW50912   6.115   0.963   2.721  0.4157 -0.3473  0.2006
13328SOL    HW150913   6.032   1.002   2.761  0.2214 -0.5984  0.0456
13328SOL    HW250914   6.166   1.034   2.673 -0.7010 -0.5832 -1.3683
13329SOL     OW50915   8.242   6.511   1.579 -0.3067 -0.1920  0.1569
13329SOL    HW150916   8.239   6.414   1.553 -0.2088 -0.1027 -0.1849
13329SOL    HW250917   8.192   6.565   1.513 -0.7262 -0.0570  0.5867
13330SOL     OW50918   3.857   1.930   4.439 -0.3204 -0.2950 -0.6388
13330SOL    HW150919   3.882   1.896   4.348 -1.8493  1.7360 -1.8763
13330SOL    HW250920   3.890   2.024   4.448 -3.4199  0.8375 -0.5614
13331SOL     OW50921   2.385   9.205   4.852 -0.0102  0.7258 -0.1613
13331SOL    HW150922   2.472   9.243   4.884 -0.1855 -0.0592  1.3128
13331SOL    HW250923   2.375   9.222   4.754  0.3627  3.5831  0.2530
13332SOL     OW50924   5.010   5.400   2.156 -0.4073  0.1559 -0.0684
13332SOL    HW150925   4.967   5.409   2.246  0.5690  1.1442  0.3082
13332SOL    HW250926   5.087   5.337   2.162 -1.0705 -0.7037 -0.4842
13333SOL     OW50927   9.316   0.509   1.604 -0.0741 -0.1122  0.0399
13333SOL    HW150928   9.343   0.605   1.617 -0.9416  0.0829  0.5129
13333SOL    HW250929   9.393   0.457   1.568  0.5763  0.6470  0.3051
13334SOL     OW50930   1.131   2.377   4.524 -0.4053 -0.3650  0.1340
13334SOL    HW150931   1.144   2.468   4.564 -0.1747  0.6095 -2.0994
13334SOL    HW250932   1.162   2.377   4.429 -1.6740 -2.4184 -0.3150
13335SOL     OW50933   0.463   0.251   3.512  0.6256 -0.0144 -0.1953
13335SOL    HW150934   0.501   0.164   3.543  0.4922  0.8002  2.3326
13335SOL    HW250935   0.532   0.323   3.519  0.6042  0.1915 -1.8615
13336SOL     OW50936   0.458   3.008   1.478 -0.2698 -0.1000 -0.3501
13336SOL    HW150937   0.485   2.958   1.561 -1.6304  0.1293  0.2465
13336SOL    HW250938   0.369   3.052   1.493  0.0326  0.9518 -1.5185
13337SOL     OW50939   8.493   1.299   3.396 -0.0731 -0.0201 -0.7732
13337SOL    HW150940   8.573   1.350   3.365  0.1075  1.2003  1.5288
13337SOL    HW250941   8.522   1.213   3.437  0.1607  0.7782  0.7752
13338SOL     OW50942   9.158   4.622   5.303  0.1432 -0.4471  0.6767
13338SOL    HW150943   9.183   4.714   5.334  1.7352 -0.5265 -0.2904
13338SOL    HW250944   9.083   4.587   5.359  2.1636 -0.1437  3.7155
13339SOL     OW50945   4.670   1.813   3.347  0.1089 -0.3530  0.0478
13339SOL    HW150946   4.690   1.863   3.431  0.2991  1.9054 -1.3029
13339SOL    HW250947   4.636   1.722   3.370  1.2146 -0.1797  2.5463
13340SOL     OW50948   3.121   9.245   3.266 -0.2105  0.1485 -0.1582
13340SOL    HW150949   3.214   9.212   3.253  0.2832  1.7374 -0.7138
13340SOL    HW250950   3.122   9.325   3.327 -1.4646 -1.2476  1.7692
13341SOL     OW50951   5.944   9.560   2.468  0.2559 -0.1581  0.5888
13341SOL    HW150952   5.880   9.484   2.457  2.1027 -1.5556 -0.6274
13341SOL    HW250953   6.032   9.526   2.500  0.5052  1.7216  2.0006
13342SOL     OW50954   2.639   6.000   1.317  0.2272  0.1126 -0.4410
13342SOL    HW150955   2.579   5.964   1.389 -0.1576  0.0377 -0.8002
13342SOL    HW250956   2.619   6.097   1.302  2.1653  0.8487  1.4569
13343SOL     OW50957   0.201   7.739   4.765 -0.0198 -0.0483  0.2262
13343SOL    HW150958   0.205   7.839   4.761 -0.3411 -0.0767 -0.7643
13343SOL    HW250959   0.140   7.712   4.840 -0.8134  0.5110 -0.2048
13344SOL     OW50960   0.326   1.357   3.676 -0.3695  0.0801 -0.5762
13344SOL    HW150961   0.336   1.338   3.578 -0.8984 -0.8131 -0.4636
13344SOL    HW250962   0.307   1.454   3.689  1.4237  0.5438 -1.2342
13345SOL     OW50963   2.176   2.515   3.353  0.0487  0.0162  0.4312
13345SOL    HW150964   2.266   2.556   3.340 -0.4849  0.6136 -1.6506
13345SOL    HW250965   2.186   2.418   3.376  1.2602  0.6959  2.8136
13346SOL     OW50966   9.934   9.574   1.825  0.3500 -0.1840  0.6770
13346SOL    HW150967  10.023   9.546   1.861 -1.1115 -2.3773  2.7388
13346SOL    HW250968   9.919   9.670   1.847  1.8750  0.0088  0.9865
13347SOL     OW50969   9.009   8.666   2.453 -0.0519  0.0299  0.0694
13347SOL    HW150970   9.003   8.712   2.542 -1.8163 -0.1946  0.0803
13347SOL    HW250971   9.101   8.628   2.442  0.1175 -0.1671  1.9055
13348SOL     OW50972   1.600   5.244   0.033  0.3926 -0.3245  0.1365
13348SOL    HW150973   1.620   5.154  -0.006  1.1892  0.1110 -0.4628
13348SOL    HW250974   1.544   5.296  -0.031  0.9153  0.0422 -0.0207
13349SOL     OW50975   0.772   8.352   5.401  0.2436  0.1633  0.4914
13349SOL    HW150976   0.694   8.305   5.361  0.5348  0.2549 -0.1806
13349SOL    HW250977   0.760   8.451   5.391  0.6854  0.1630 -0.0648
13350SOL     OW50978   8.332   0.776   4.198 -0.0725  0.3212 -0.7606
13350SOL    HW150979   8.297   0.684   4.210  0.0642  0.3233 -0.3263
13350SOL    HW250980   8.293   0.836   4.268  1.5657  0.1048  0.3911
13351SOL     OW50981   3.796   6.884   1.862  0.8494  0.1932  0.0778
13351SOL    HW150982   3.843   6.930   1.937  0.5809 -1.3220  1.1892
13351SOL    HW250983   3.697   6.892   1.874  0.8078  0.1419 -0.2237
13352SOL     OW50984   2.016   2.751   1.654 -0.7142 -0.2066 -0.5024
13352SOL    HW150985   2.085   2.681   1.671  2.7241  2.9629 -0.9677
13352SOL    HW250986   1.957   2.760   1.735  0.0539 -2.2178  0.3005
13353SOL     OW50987   1.745   7.885   3.572  0.3763 -0.4633 -0.6924
13353SOL    HW150988   1.720   7.918   3.480  0.3768 -0.3768 -0.6613
13353SOL    HW250989   1.662   7.876   3.627  0.4411  0.0559 -0.5122
13354SOL     OW50990   2.919   8.050   1.018 -0.1170  0.2063  0.8760
13354SOL    HW150991   2.900   8.146   0.999  1.1226  0.2169 -0.4189
13354SOL    HW250992   2.910   8.033   1.116 -0.7284  1.5502  1.0662
13355SOL     OW50993   0.754   4.074   6.309  0.4744 -0.0508  0.1223
13355SOL    HW150994   0.763   4.151   6.245 -1.0610 -0.7368 -0.9231
13355SOL    HW250995   0.669   4.083   6.360  2.3248  1.2173  3.0889
13356SOL     OW50996   9.219   2.671   1.339 -0.0882  0.0043 -0.0277
13356SOL    HW150997   9.289   2.737   1.369  0.4090  0.2041 -1.6035
13356SOL    HW250998   9.210   2.675   1.240 -1.1241 -1.2612  0.0114
13357SOL     OW50999   2.103   4.417   0.355 -0.2321 -0.2894  0.0810
13357SOL    HW151000   2.021   4.447   0.307 -1.7256 -0.0633  2.6845
13357SOL    HW251001   2.096   4.319   0.374 -1.2508  0.2717  2.7924
13358SOL     OW51002   8.717   6.185   3.389 -0.5411  1.2418  0.4542
13358SOL    HW151003   8.782   6.164   3.317 -0.5017  1.8083  0.3209
13358SOL    HW251004   8.733   6.125   3.467  0.7406  1.9865  0.7792
13359SOL     OW51005   3.914   5.577   1.478 -0.0339  0.0520 -0.2459
13359SOL    HW151006   3.931   5.604   1.383  2.1256 -0.6238 -0.0828
13359SOL    HW251007   3.991   5.523   1.511 -0.5954  0.6143  2.0348
13360SOL     OW51008   3.335   3.113   3.747  0.3815  1.1957  0.1201
13360SOL    HW151009   3.312   3.060   3.665  2.3672  2.6060 -1.4247
13360SOL    HW251010   3.346   3.051   3.825 -0.4112 -0.3010 -0.9312
13361SOL     OW51011   5.267   3.025   2.670 -0.6628 -0.1865  0.6360
13361SOL    HW151012   5.187   2.976   2.705 -1.5577  0.6158 -0.2587
13361SOL    HW251013   5.240   3.116   2.639  0.2359 -0.5773 -1.3934
13362SOL     OW51014   0.411   9.180   0.973 -0.8520 -0.2998  1.2230
13362SOL    HW151015   0.391   9.118   0.897  1.0900  1.4931 -0.8378
13362SOL    HW251016   0.491   9.147   1.023  0.4430  0.6869 -0.1332
13363SOL     OW51017   1.888   9.988   3.690  0.4048 -0.8308 -0.6284
13363SOL    HW151018   1.798  10.020   3.719  0.6329 -0.7420 -0.0093
13363SOL    HW251019   1.951  10.066   3.687  0.2081 -0.7209 -2.0492
13364SOL     OW51020   2.972   4.537   2.343 -0.4219 -0.0563 -0.3276
13364SOL    HW151021   2.934   4.571   2.429 -0.4551  1.6981 -1.0129
13364SOL    HW251022   3.029   4.608   2.302  0.5686 -1.3137 -1.1670
13365SOL     OW51023   8.858   5.831   3.366  0.4961  0.3254 -0.3232
13365SOL    HW151024   8.875   5.840   3.268  2.3626  2.7472  0.1712
13365SOL    HW251025   8.913   5.756   3.403  0.7217  0.2053 -0.9047
13366SOL     OW51026   0.079   9.173   0.776 -0.3665  0.3061 -0.4779
13366SOL    HW151027   0.132   9.192   0.859  0.3402  0.1078 -0.8861
13366SOL    HW251028   0.004   9.110   0.798 -1.0256  1.3409  0.3012
13367SOL     OW51029   0.388   3.070   5.907 -0.3036  0.4602 -0.0072
13367SOL    HW151030   0.441   3.019   5.975 -1.6782 -0.7800  0.1632
13367SOL    HW251031   0.400   3.168   5.921  0.0820  0.1970  1.5024
13368SOL     OW51032   7.101   1.950   4.574 -0.7223 -0.1310  0.2202
13368SOL    HW151033   7.085   1.882   4.645 -0.6609 -0.3094  0.0637
13368SOL    HW251034   7.033   2.023   4.581 -1.2676 -0.6073 -0.1076
13369SOL     OW51035   4.327   7.795   2.121 -0.6188 -0.1952 -0.0106
13369SOL    HW151036   4.258   7.850   2.167  0.9061  1.1270  0.7384
13369SOL    HW251037   4.415   7.804   2.168  0.5539 -0.2403 -2.0920
13370SOL     OW51038   6.081   2.392   3.907 -0.5396 -0.2781 -0.3707
13370SOL    HW151039   6.162   2.387   3.966 -0.9469 -1.2460  0.1117
13370SOL    HW251040   6.059   2.301   3.873 -1.0635  0.0801 -1.0062
13371SOL     OW51041   1.422   5.847   1.834  0.4514  0.1194  0.5597
13371SOL    HW151042   1.367   5.931   1.836 -0.1444 -0.2465 -0.0467
13371SOL    HW251043   1.361   5.769   1.823  1.0059 -0.3943  1.1316
13372SOL     OW51044   9.287   7.001   4.726  0.1803  0.2588 -0.0323
13372SOL    HW151045   9.247   7.053   4.802 -1.0674  1.5492 -1.5512
13372SOL    HW251046   9.215   6.962   4.670  1.0504  1.3186 -1.9235
13373SOL     OW51047   4.589   5.800   2.296 -0.2422  0.3182  0.6779
13373SOL    HW151048   4.546   5.800   2.386 -0.2970 -0.1382  0.6545
13373SOL    HW251049   4.526   5.760   2.229  0.7177 -1.6275  0.8952
13374SOL     OW51050   0.588   6.144   5.058  0.1669 -0.6209 -0.0543
13374SOL    HW151051   0.609   6.173   4.965  1.1720 -1.3911 -0.0718
13374SOL    HW251052   0.544   6.054   5.056 -2.1693  0.4544  0.0603
13375SOL     OW51053   8.509   7.397   2.771  0.5159 -0.2835  0.1957
13375SOL    HW151054   8.452   7.456   2.827  1.6897 -0.0105  1.1374
13375SOL    HW251055   8.570   7.453   2.714  0.8719 -0.5703  0.2898
13376SOL     OW51056   8.359   4.041   3.563 -0.1586  0.2208  0.1998
13376SOL    HW151057   8.436   3.979   3.552  0.7796  1.5188 -0.6905
13376SOL    HW251058   8.325   4.069   3.473 -0.9746  0.5044  0.5914
13377SOL     OW51059   2.931   3.877   5.054 -0.0254  0.0064 -0.1030
13377SOL    HW151060   2.885   3.965   5.043 -0.2543 -0.0914  0.0701
13377SOL    HW251061   2.866   3.809   5.085  0.3026 -0.0564  0.4630
13378SOL     OW51062   8.911   2.897   2.902  0.3353 -0.4641  0.0358
13378SOL    HW151063   8.996   2.949   2.905  1.5021 -2.3237  0.0420
13378SOL    HW251064   8.916   2.820   2.966 -1.5099 -0.3735  0.3289
13379SOL     OW51065   3.308   4.493   2.184 -0.2585  0.5659 -0.0986
13379SOL    HW151066   3.252   4.438   2.122  0.7337 -0.0066 -0.4804
13379SOL    HW251067   3.323   4.442   2.269 -0.6218  0.8791  0.1617
13380SOL     OW51068   9.551   3.951   0.093 -0.0741  0.0876 -0.1647
13380SOL    HW151069   9.535   3.874   0.031  0.8479  0.6857 -1.1486
13380SOL    HW251070   9.512   3.930   0.182 -0.6743 -1.1275 -0.7045
13381SOL     OW51071   8.788   0.289   0.457  0.5131  0.3670  0.5409
13381SOL    HW151072   8.884   0.265   0.441  0.3967  0.0877  0.2467
13381SOL    HW251073   8.781   0.388   0.471  0.4958  0.8493 -2.4166
13382SOL     OW51074   1.309   6.546   5.694  0.3580 -0.7227  0.1004
13382SOL    HW151075   1.240   6.609   5.729 -0.0623 -0.1823 -1.6599
13382SOL    HW251076   1.358   6.589   5.618 -0.6858 -2.9177 -1.8690
13383SOL     OW51077   4.089   0.822   2.873  0.2100 -0.0966  0.1285
13383SOL    HW151078   4.147   0.752   2.832  0.6618  1.0864 -1.2984
13383SOL    HW251079   4.017   0.779   2.927  1.4006 -1.6155  0.5219
13384SOL     OW51080   6.904   0.198   5.369  0.4896 -0.3819 -0.5659
13384SOL    HW151081   7.002   0.177   5.360  0.7763 -0.0910  1.7087
13384SOL    HW251082   6.852   0.112   5.367  0.9773 -0.7061  0.4197
13385SOL     OW51083   9.254   9.339   1.547 -0.0116  0.1142  0.0958
13385SOL    HW151084   9.295   9.278   1.614  1.2073  0.5418 -0.2281
13385SOL    HW251085   9.305   9.332   1.461  0.9871  2.5176  0.4369
13386SOL     OW51086   9.005   5.062   0.546  0.0231  0.4729 -0.5742
13386SOL    HW151087   8.941   5.002   0.497  0.5338  0.9009 -1.7840
13386SOL    HW251088   8.954   5.116   0.614 -0.4493 -1.2543  0.4856
13387SOL     OW51089   8.912   6.642   5.345 -0.4224 -0.5451 -0.6213
13387SOL    HW151090   8.965   6.727   5.338 -1.3786 -0.0475 -2.0445
13387SOL    HW251091   8.836   6.656   5.408  0.3571 -0.8609  0.4081
13388SOL     OW51092   7.596   0.196   2.781 -0.4151 -0.0173  0.5086
13388SOL    HW151093   7.497   0.189   2.796 -0.2636 -1.1211  1.0343
13388SOL    HW251094   7.625   0.124   2.717  0.2026 -0.3574  1.1627
13389SOL     OW51095   0.574   9.943   2.549  0.3344  0.2352 -0.2515
13389SOL    HW151096   0.476   9.936   2.529  0.1426  1.5224  0.1726
13389SOL    HW251097   0.621   9.861   2.516 -0.7840 -0.0989 -1.0445
13390SOL     OW51098   8.656   5.803   4.193  0.2221  0.0168 -0.6630
13390SOL    HW151099   8.739   5.776   4.241  1.2527  0.6387 -2.0778
13390SOL    HW251100   8.603   5.866   4.250  0.7078 -0.3812  0.2348
13391SOL     OW51101   3.160   4.296   3.210 -0.3193 -0.5709  0.3058
13391SOL    HW151102   3.125   4.310   3.117  1.6091  1.5839 -0.1546
13391SOL    HW251103   3.096   4.335   3.276 -0.2995  0.4977 -0.3045
13392SOL     OW51104   9.370   5.515   1.098  0.3261 -0.9612  0.0635
13392SOL    HW151105   9.296   5.518   1.165  1.5238 -0.4475  1.3925
13392SOL    HW251106   9.411   5.424   1.098  0.4700 -0.8966  0.1917
13393SOL     OW51107   1.557   3.670   6.437  0.3464 -0.0129  0.6224
13393SOL    HW151108   1.649   3.707   6.450  0.6960 -1.0848  1.2482
13393SOL    HW251109   1.498   3.703   6.511  0.8584 -1.3243  1.6375
13394SOL     OW51110   8.041   3.971   1.177  0.4269  1.0608 -0.0679
13394SOL    HW151111   8.130   4.011   1.198  0.0708  1.1578  1.3166
13394SOL    HW251112   8.053   3.874   1.155  0.6934  0.6505  1.8001
13395SOL     OW51113   2.043   8.066   0.081  0.6546  0.0771  0.0815
13395SOL    HW151114   1.980   8.119   0.024  0.3858 -0.4881 -0.1542
13395SOL    HW251115   2.049   7.973   0.045  1.8985  0.2247 -0.1094
13396SOL     OW51116   2.372   0.709   2.121  0.0978  0.4160 -0.0875
13396SOL    HW151117   2.390   0.808   2.121  1.5691  0.1779  1.7274
13396SOL    HW251118   2.456   0.660   2.145 -1.0455 -1.1831  0.7135
13397SOL     OW51119   0.151   3.948   5.146  0.0097  0.4207 -0.2080
13397SOL    HW151120   0.085   3.897   5.201  0.5493  0.3575  0.3853
13397SOL    HW251121   0.117   4.041   5.131  0.6705  0.9871  1.7332
13398SOL     OW51122   7.883   8.417   3.091 -0.6270  0.7819 -0.3605
13398SOL    HW151123   7.815   8.418   3.017  0.4091  1.7069 -1.3097
13398SOL    HW251124   7.919   8.509   3.105 -0.6942  0.5791  1.1963
13399SOL     OW51125   5.967   9.097   3.043  0.3676 -0.1604  0.3182
13399SOL    HW151126   6.027   9.040   2.987 -0.6507  1.7636 -2.8314
13399SOL    HW251127   5.872   9.071   3.028 -0.0159  1.3761 -0.0258
13400SOL     OW51128   9.887   4.093   3.629 -0.1164 -0.9905  0.3567
13400SOL    HW151129   9.926   4.142   3.707  0.0993  0.0990 -0.4107
13400SOL    HW251130   9.840   4.158   3.569  2.5775 -1.2299 -2.1480
13401SOL     OW51131   7.263   7.974   2.550  0.2886 -0.2068  0.3547
13401SOL    HW151132   7.248   7.876   2.538  1.4880 -0.4890  1.0923
13401SOL    HW251133   7.188   8.013   2.604 -0.0309 -0.7761  0.3266
13402SOL     OW51134   1.684   0.478   3.970 -0.5425  0.2018 -0.1937
13402SOL    HW151135   1.775   0.520   3.965 -0.5806  0.1572 -1.4620
13402SOL    HW251136   1.649   0.463   3.877 -1.2231 -1.1438  0.2732
13403SOL     OW51137   8.223   8.087   4.733  0.1021 -0.1696  0.3261
13403SOL    HW151138   8.289   8.160   4.712 -0.7733  0.4848 -0.1932
13403SOL    HW251139   8.269   8.015   4.784  0.5414  1.6388  2.6019
13404SOL     OW51140   1.111   3.365   4.176  0.3487 -0.1019  0.0411
13404SOL    HW151141   1.209   3.384   4.182  0.0672  1.4493  0.0849
13404SOL    HW251142   1.083   3.366   4.080 -0.0626  1.9501  0.1579
13405SOL     OW51143   8.990   9.205   1.529  0.2588 -0.1768  0.3033
13405SOL    HW151144   8.914   9.265   1.553 -0.5902  0.2270 -3.0691
13405SOL    HW251145   9.076   9.256   1.536 -0.2114  0.6822 -0.0779
13406SOL     OW51146   0.528   2.941   6.128  0.1601  0.6606 -0.1647
13406SOL    HW151147   0.620   2.929   6.164 -0.3272  0.0920  0.8969
13406SOL    HW251148   0.468   2.978   6.199 -1.0228 -1.3568 -0.0686
13407SOL     OW51149   7.374   9.683   1.266  0.3607  0.2034 -0.0280
13407SOL    HW151150   7.469   9.715   1.266  0.3695  0.2530  2.3516
13407SOL    HW251151   7.366   9.602   1.323 -0.8821 -0.3256 -0.9310
13408SOL     OW51152   6.788   8.200   4.547  0.0787  0.3616 -0.1166
13408SOL    HW151153   6.759   8.268   4.614 -1.7281  0.3739 -0.8626
13408SOL    HW251154   6.836   8.245   4.472 -0.5396  0.7475 -0.2895
13409SOL     OW51155   4.044   2.891   3.925  0.8213  0.0986 -0.2939
13409SOL    HW151156   4.087   2.807   3.957  0.3787 -0.2909 -0.7086
13409SOL    HW251157   4.098   2.931   3.852 -0.4361 -1.3644 -2.0839
13410SOL     OW51158   0.419   3.911   5.006  0.9932  0.2885 -0.1050
13410SOL    HW151159   0.422   3.977   4.931  0.6762 -1.2889 -1.5310
13410SOL    HW251160   0.324   3.886   5.025  1.1136  0.2170  0.4030
13411SOL     OW51161   1.948   0.301   2.798 -0.4370 -0.5816 -0.6466
13411SOL    HW151162   1.923   0.377   2.737  1.1922  0.1422 -0.4284
13411SOL    HW251163   2.016   0.243   2.753 -1.0627 -1.4650 -0.4780
13412SOL     OW51164   5.170   1.770   2.738 -0.5995  0.1619  0.4757
13412SOL    HW151165   5.073   1.745   2.738 -0.6090  0.1977  0.3361
13412SOL    HW251166   5.185   1.848   2.676 -0.4491  0.0257  0.3394
13413SOL     OW51167   9.384   3.969   6.385 -0.5686 -0.0390  0.0187
13413SOL    HW151168   9.385   4.046   6.449 -0.8528 -1.5503  1.8779
13413SOL    HW251169   9.322   3.989   6.310 -1.3168  1.1814  0.9400
13414SOL     OW51170   5.585   7.581   2.588 -0.0396 -0.2530  0.0644
13414SOL    HW151171   5.507   7.552   2.644 -0.7612  0.6315 -0.4590
13414SOL    HW251172   5.578   7.539   2.497 -0.5079  0.7094 -0.3441
13415SOL     OW51173   2.759   2.855   3.106  0.3400  0.0600 -0.0585
13415SOL    HW151174   2.809   2.835   3.022 -1.1842 -0.7272 -0.8076
13415SOL    HW251175   2.800   2.934   3.152  1.6222  0.0545 -1.1645
13416SOL     OW51176   4.040   7.616   4.991  0.8966  0.1310 -0.1443
13416SOL    HW151177   3.947   7.645   4.969  0.9754  1.1712  0.8816
13416SOL    HW251178   4.098   7.696   5.004  1.9596 -0.5090 -0.8110
13417SOL     OW51179   1.180   2.531   0.769  0.3288  0.1516  0.1705
13417SOL    HW151180   1.108   2.466   0.747  0.7539 -0.1355 -0.3725
13417SOL    HW251181   1.269   2.496   0.738  0.6848  0.5585  0.7194
13418SOL     OW51182   2.169   8.556   4.622 -0.5656 -0.0392  0.5517
13418SOL    HW151183   2.223   8.473   4.609 -1.4637 -0.9021  2.2617
13418SOL    HW251184   2.146   8.595   4.533  2.6096  0.1953 -0.2349
13419SOL     OW51185   8.915   3.839   1.513  0.4095  0.1703  0.1278
13419SOL    HW151186   8.921   3.828   1.612 -1.3386  1.4396  0.3966
13419SOL    HW251187   8.824   3.811   1.482  0.3544  1.4597 -0.8843
13420SOL     OW51188   0.077   4.381   2.642  0.0446  0.0109 -0.0086
13420SOL    HW151189   0.020   4.446   2.591 -0.6086 -1.3163 -1.0034
13420SOL    HW251190   0.160   4.361   2.590 -0.4005 -0.9843 -0.3514
13421SOL     OW51191   5.907   3.873   6.690 -0.1871 -0.3153 -0.0942
13421SOL    HW151192   5.996   3.890   6.732  0.3297  0.8065 -1.5978
13421SOL    HW251193   5.899   3.776   6.666  0.5616 -0.4516  0.2069
13422SOL     OW51194   6.481   0.092   5.666  0.2338 -0.1848  0.0343
13422SOL    HW151195   6.452   0.028   5.595  0.4533  0.2874 -0.4878
13422SOL    HW251196   6.416   0.168   5.672  1.5868  1.1632 -1.5207
13423SOL     OW51197   9.520   5.248   1.787  0.5050 -0.2171 -0.4932
13423SOL    HW151198   9.594   5.226   1.724  0.2466  0.4423 -1.0328
13423SOL    HW251199   9.555   5.250   1.880  1.1117 -0.1622 -0.7189
13424SOL     OW51200   1.084   2.460   2.028 -0.3066 -0.5364 -0.1455
13424SOL    HW151201   1.002   2.405   2.043 -1.2937  0.4318 -1.9633
13424SOL    HW251202   1.064   2.556   2.047 -0.0990 -0.0392 -2.3828
13425SOL     OW51203   7.351   8.317   2.711 -0.2517  0.4506 -0.8497
13425SOL    HW151204   7.444   8.305   2.745  0.3197  1.4285 -2.0055
13425SOL    HW251205   7.295   8.239   2.738  1.4751 -1.2509 -2.0521
13426SOL     OW51206   3.939   5.653   1.746 -0.3515  0.6263 -0.1436
13426SOL    HW151207   3.920   5.634   1.650  0.8308 -2.0653  0.0934
13426SOL    HW251208   3.916   5.573   1.801 -0.1387  1.8012  1.7070
13427SOL     OW51209   0.468   5.074   3.677 -0.1277 -0.0308 -0.6581
13427SOL    HW151210   0.508   5.001   3.732  2.8743  1.8770 -0.2083
13427SOL    HW251211   0.505   5.072   3.584  0.4462  1.2730 -0.4738
13428SOL     OW51212   5.638   2.012   1.499  0.4256 -0.1716 -0.0183
13428SOL    HW151213   5.663   1.984   1.592 -0.5139 -0.1719  0.2416
13428SOL    HW251214   5.554   2.067   1.502  1.0638  0.8566 -0.7504
13429SOL     OW51215   3.319   9.123   2.973  0.0253  0.2329  0.4619
13429SOL    HW151216   3.277   9.036   2.947 -0.1479  0.7686 -1.1209
13429SOL    HW251217   3.266   9.166   3.046 -0.0887 -0.8181  1.0065
13430SOL     OW51218   0.490   3.799   1.255 -0.3268 -0.4514 -0.3015
13430SOL    HW151219   0.413   3.750   1.213 -0.7404 -0.2139  0.1715
13430SOL    HW251220   0.502   3.887   1.210 -0.1189 -0.6305 -0.5964
13431SOL     OW51221   1.231   4.928   0.792 -0.2148  0.1210  0.8006
13431SOL    HW151222   1.262   4.849   0.845  1.3701 -0.1341 -0.4946
13431SOL    HW251223   1.235   5.010   0.849  0.3349 -0.3449  1.4408
13432SOL     OW51224   5.793   0.651   3.713  0.2867 -0.5202 -0.5693
13432SOL    HW151225   5.761   0.557   3.701 -1.4889  0.1725 -1.5465
13432SOL    HW251226   5.760   0.707   3.636  1.3278  0.8949 -0.0047
13433SOL     OW51227   9.773   7.082   5.657 -0.2844  1.1142 -0.4955
13433SOL    HW151228   9.708   7.032   5.714 -1.5837  0.9902 -2.0754
13433SOL    HW251229   9.779   7.177   5.689 -0.1526  0.7662  0.5374
13434SOL     OW51230   4.539   3.945   6.658 -0.2570 -0.0888 -0.0591
13434SOL    HW151231   4.565   3.857   6.619 -1.4421 -0.2531 -0.4894
13434SOL    HW251232   4.442   3.943   6.684 -0.0461  0.7696  0.8095
13435SOL     OW51233   2.509   4.503   5.128  0.3765  0.3851 -0.7136
13435SOL    HW151234   2.514   4.547   5.218 -0.3826  1.1342 -1.0327
13435SOL    HW251235   2.468   4.566   5.062  0.4119 -0.3648 -1.4629
13436SOL     OW51236   0.389   9.653   3.603  0.2005  0.0726 -0.3695
13436SOL    HW151237   0.389   9.578   3.670 -1.9156  0.6245  0.2615
13436SOL    HW251238   0.358   9.737   3.647 -1.5468  0.3705 -2.1187
13437SOL     OW51239   3.517   2.298   2.552 -0.7697  0.3085  0.4198
13437SOL    HW151240   3.575   2.234   2.603 -0.4767  0.1938 -0.0587
13437SOL    HW251241   3.430   2.255   2.529 -0.7642  0.2461  0.5174
13438SOL     OW51242   6.684   6.989   4.337 -0.1112  0.5357  0.1365
13438SOL    HW151243   6.600   7.043   4.334 -0.1317  0.6714  2.0271
13438SOL    HW251244   6.762   7.049   4.324 -0.1286  1.0761  2.3271
13439SOL     OW51245   1.525   0.718   3.788  0.0029  0.2781  0.4971
13439SOL    HW151246   1.542   0.620   3.798  1.9227  0.4657 -0.6149
13439SOL    HW251247   1.610   0.764   3.762 -1.3797  1.8816 -1.3460
13440SOL     OW51248   8.471   0.341   4.500 -0.0093 -0.0198 -0.7455
13440SOL    HW151249   8.379   0.332   4.536  0.7935  0.9244  1.6082
13440SOL    HW251250   8.479   0.429   4.452  0.3612  1.0248  1.2052
13441SOL     OW51251   1.840   5.427   5.412  0.4241  0.7828  0.0949
13441SOL    HW151252   1.830   5.437   5.313  0.1167  0.1484  0.0574
13441SOL    HW251253   1.750   5.421   5.454  0.5572 -1.9026  0.0884
13442SOL     OW51254   9.724   2.810   5.010  0.8498  0.5872  0.4974
13442SOL    HW151255   9.814   2.789   4.972 -0.1222 -1.9265 -0.5094
13442SOL    HW251256   9.720   2.906   5.035  3.9104  0.6737  0.8128
13443SOL     OW51257   2.499   3.963   1.291  0.4804  0.0365 -0.4486
13443SOL    HW151258   2.477   3.866   1.307  0.4985  0.2794  1.0737
13443SOL    HW251259   2.579   3.988   1.345  0.9840  0.6905 -1.4924
13444SOL     OW51260   1.890   5.766   4.763  0.1997  0.0166 -0.4228
13444SOL    HW151261   1.948   5.685   4.768  1.0824  0.2864 -4.3178
13444SOL    HW251262   1.933   5.841   4.813  2.5655 -0.1875 -2.0665
13445SOL     OW51263   9.408   1.183   4.643 -0.0185  0.2158  0.4449
13445SOL    HW151264   9.451   1.185   4.552  0.0606 -2.9611  0.3309
13445SOL    HW251265   9.388   1.276   4.673  1.2650  1.4056 -2.2064
13446SOL     OW51266   4.640   1.832   4.249 -0.1002 -0.4427 -0.3991
13446SOL    HW151267   4.595   1.911   4.290 -0.2716 -2.6037  3.9065
13446SOL    HW251268   4.739   1.845   4.251 -0.1897  0.4633 -1.5174
13447SOL     OW51269   8.746   6.189   1.011  0.1798 -0.7027 -0.3079
13447SOL    HW151270   8.802   6.109   0.991 -1.1629 -1.7403  0.0061
13447SOL    HW251271   8.673   6.164   1.075 -0.9474  0.4790 -1.0942
13448SOL     OW51272   7.021   1.141   5.966 -0.1787  0.6520  0.3313
13448SOL    HW151273   7.067   1.225   5.994  0.4022  0.4932 -0.1404
13448SOL    HW251274   7.017   1.136   5.867 -0.8072  0.4384  0.3621
13449SOL     OW51275   7.483   1.854   0.648 -0.5036  0.3973  0.3829
13449SOL    HW151276   7.435   1.897   0.725  1.1386 -0.3581  1.8871
13449SOL    HW251277   7.517   1.924   0.586 -1.1151  1.0651  0.7925
13450SOL     OW51278   9.963   7.285   0.250 -0.1310 -0.0111  0.2658
13450SOL    HW151279   9.970   7.364   0.310  1.3926  0.6513 -0.7583
13450SOL    HW251280   9.990   7.311   0.157  0.7701 -1.8203  0.0007
13451SOL     OW51281   3.967   2.059   2.083  0.6717  0.6607 -0.1152
13451SOL    HW151282   3.956   1.962   2.106 -0.5798  0.9749  0.6890
13451SOL    HW251283   4.059   2.075   2.049  1.7680 -0.3472  2.2301
13452SOL     OW51284   9.735   4.643   2.496 -0.2306  0.1301  0.2099
13452SOL    HW151285   9.659   4.646   2.561 -0.3673 -0.6381  0.0944
13452SOL    HW251286   9.700   4.619   2.405 -0.3117  2.9619 -0.5669
13453SOL     OW51287   4.700   9.924   1.139 -0.2841 -1.0905  0.0966
13453SOL    HW151288   4.791   9.920   1.178  0.1343 -2.3159 -0.9623
13453SOL    HW251289   4.679  10.018   1.112  0.9424 -0.9220 -0.2880
13454SOL     OW51290   4.764   9.216   3.984  0.0803  0.4729 -0.2165
13454SOL    HW151291   4.703   9.138   3.971 -0.6512  1.5463 -3.8940
13454SOL    HW251292   4.856   9.193   3.952  0.8062 -0.0077  2.0995
13455SOL     OW51293   0.790   9.601   4.758  0.3015  0.0595  0.1527
13455SOL    HW151294   0.828   9.524   4.810 -0.1792 -0.6347 -0.5108
13455SOL    HW251295   0.690   9.593   4.756  0.3909 -1.0889 -2.6072
13456SOL     OW51296   6.953   2.200   4.153 -0.0551  0.0596 -0.3127
13456SOL    HW151297   6.946   2.196   4.252  0.8260  1.0871 -0.2056
13456SOL    HW251298   6.878   2.148   4.112  0.1568 -1.2207  0.8921
13457SOL     OW51299   4.565   9.673   1.996  0.1403  0.2251 -0.1065
13457SOL    HW151300   4.480   9.621   2.006  0.3215  0.0759  0.6349
13457SOL    HW251301   4.563   9.753   2.057  0.5787  0.1635 -0.0101
13458SOL     OW51302   0.695   5.104   1.720 -0.8948 -0.3791 -0.5364
13458SOL    HW151303   0.789   5.139   1.720 -0.3777 -1.6416  1.6919
13458SOL    HW251304   0.651   5.127   1.634  1.2996  0.6763 -1.4222
13459SOL     OW51305   7.569   8.108   3.317 -0.1795  0.0486  0.3741
13459SOL    HW151306   7.472   8.127   3.301  0.3200  1.8730 -0.6898
13459SOL    HW251307   7.614   8.087   3.230  0.5920  0.2962  0.7082
13460SOL     OW51308   9.278   2.779   0.796  0.0421  0.3219 -0.4315
13460SOL    HW151309   9.194   2.728   0.780  0.7309 -0.9894  0.0352
13460SOL    HW251310   9.331   2.735   0.869  1.6751  0.4552 -1.4990
13461SOL     OW51311   9.041   2.304   3.381 -0.2024  0.0649  0.0257
13461SOL    HW151312   9.129   2.302   3.334  0.4801 -3.6001  1.2602
13461SOL    HW251313   8.967   2.299   3.314  0.5477  1.3909 -0.9252
13462SOL     OW51314   3.434   6.013   1.103  0.1452 -0.1393 -0.2510
13462SOL    HW151315   3.347   5.994   1.057  0.9779 -1.4566 -1.3206
13462SOL    HW251316   3.443   6.112   1.117  0.2871  0.4230 -3.8065
13463SOL     OW51317   7.449   8.059   4.068 -0.7307  0.2420  0.1433
13463SOL    HW151318   7.507   8.073   4.148  0.9308 -1.1730 -0.7841
13463SOL    HW251319   7.420   8.148   4.032 -0.1534  0.9225  1.3468
13464SOL     OW51320   6.409   9.773   1.953  0.0148 -0.2681  0.3581
13464SOL    HW151321   6.364   9.700   1.901 -0.4794 -0.0398  0.4616
13464SOL    HW251322   6.507   9.755   1.957  0.2105  0.2302 -1.5202
13465SOL     OW51323   3.159   3.353   2.423 -0.0185  1.1284  0.1160
13465SOL    HW151324   3.072   3.346   2.375 -0.7337  1.8447  1.2899
13465SOL    HW251325   3.162   3.286   2.497  2.5063 -2.4671 -3.0261
13466SOL     OW51326   0.711   5.923   2.805  0.0733 -0.0523  0.4519
13466SOL    HW151327   0.633   5.868   2.778  0.2495 -0.4649  0.7840
13466SOL    HW251328   0.714   5.932   2.905 -0.5773  1.4715  0.3428
13467SOL     OW51329   2.776   5.840   5.830  0.4534 -0.0447  0.2844
13467SOL    HW151330   2.766   5.753   5.877  0.3438 -1.0612 -1.5681
13467SOL    HW251331   2.872   5.870   5.834  0.2257  0.4996  2.1705
13468SOL     OW51332   8.580   2.966   5.136 -0.4963  0.6087  0.0850
13468SOL    HW151333   8.480   2.973   5.142 -0.5063 -0.8762  1.9177
13468SOL    HW251334   8.616   3.051   5.098 -2.1603  2.9316  3.3745
13469SOL     OW51335   8.144   5.902   2.479  0.3127 -0.2971  0.2433
13469SOL    HW151336   8.193   5.831   2.529 -0.3043  1.1085  2.9346
13469SOL    HW251337   8.210   5.963   2.435  0.8969 -0.6976  0.5610
13470SOL     OW51338   7.413   2.474   3.110  0.4163  0.1086 -0.7699
13470SOL    HW151339   7.352   2.435   3.180  0.0126  1.7858 -0.1704
13470SOL    HW251340   7.360   2.534   3.050  0.9733 -0.5017 -1.8862
13471SOL     OW51341   8.202   5.452   3.596 -0.3216 -0.2312 -0.7637
13471SOL    HW151342   8.275   5.517   3.619  0.2222 -0.9281 -0.5093
13471SOL    HW251343   8.233   5.359   3.614 -1.8222 -0.4441  0.7749
13472SOL     OW51344   8.964   4.196   3.320 -0.3415  0.0931 -0.6181
13472SOL    HW151345   8.885   4.257   3.314  0.2109  0.6934 -1.8828
13472SOL    HW251346   9.032   4.222   3.252  0.7539 -0.7168  0.1482
13473SOL     OW51347   0.163   6.859   2.354  0.3802 -0.7736  0.1713
13473SOL    HW151348   0.217   6.843   2.271 -0.7184  0.7894 -0.8614
13473SOL    HW251349   0.206   6.931   2.409 -0.3679  0.1435 -0.4230
13474SOL     OW51350   7.712   2.173   3.860 -0.6569 -0.0539 -0.2057
13474SOL    HW151351   7.689   2.244   3.927  0.9834 -0.2531  0.5778
13474SOL    HW251352   7.804   2.189   3.825  0.2644 -2.5273  0.9601
13475SOL     OW51353   7.169   1.322   3.162  0.0803 -0.1059  0.0640
13475SOL    HW151354   7.085   1.367   3.194  1.1202  0.2516  2.3863
13475SOL    HW251355   7.191   1.355   3.070 -2.2672 -0.1526 -0.5581
13476SOL     OW51356   8.840   8.314   3.099  0.0475 -1.2030 -0.0753
13476SOL    HW151357   8.771   8.335   3.168  0.5133  0.6137 -0.1315
13476SOL    HW251358   8.806   8.342   3.009  0.6403 -0.7872 -0.1728
13477SOL     OW51359   0.076   3.432   4.009  0.7679 -0.4268 -0.2032
13477SOL    HW151360   0.009   3.416   4.081  0.4459  2.6902  0.2666
13477SOL    HW251361   0.038   3.405   3.921 -0.9157  0.8459  0.1202
13478SOL     OW51362   8.792   2.131   0.081 -0.2298 -0.4127  0.1073
13478SOL    HW151363   8.743   2.061   0.029  1.3481 -0.6777 -1.0683
13478SOL    HW251364   8.806   2.211   0.023 -0.9077  0.3777  1.0383
13479SOL     OW51365   6.341   1.491   1.673  0.3484 -0.2429 -0.1028
13479SOL    HW151366   6.313   1.464   1.581  0.4256  0.9835 -0.4896
13479SOL    HW251367   6.279   1.451   1.740 -0.4830 -0.0665 -0.7693
13480SOL     OW51368   9.350   0.408   1.220 -0.4263 -0.2349 -0.3401
13480SOL    HW151369   9.253   0.391   1.238 -0.5184  2.0696  1.5628
13480SOL    HW251370   9.360   0.455   1.133 -0.7978 -2.4614 -1.6317
13481SOL     OW51371   5.365   7.891   3.115  0.1325  0.5643 -1.0119
13481SOL    HW151372   5.331   7.981   3.143 -0.7878  0.5614 -2.0385
13481SOL    HW251373   5.384   7.893   3.017  1.4252  0.0286 -0.7765
13482SOL     OW51374   1.532   4.105   4.938  0.1226  0.8567 -0.1952
13482SOL    HW151375   1.537   4.058   5.026 -1.9429 -3.5210 -2.2811
13482SOL    HW251376   1.624   4.118   4.901  0.9115  1.4794  1.8943
13483SOL     OW51377   2.592   9.377   1.762  0.0322  0.1767  0.3155
13483SOL    HW151378   2.571   9.334   1.849 -2.0366 -0.1769 -0.3464
13483SOL    HW251379   2.585   9.477   1.771  0.5575  0.1807  0.7257
13484SOL     OW51380   9.374   4.597   6.349 -0.6366 -0.5750  0.1590
13484SOL    HW151381   9.473   4.615   6.345 -0.3665 -2.0350 -0.0980
13484SOL    HW251382   9.352   4.520   6.289 -1.8500 -0.6363  0.6690
13485SOL     OW51383   4.718   7.966   2.457 -0.3783  0.0022 -0.0386
13485SOL    HW151384   4.766   8.025   2.523 -0.2602  1.2396 -1.2087
13485SOL    HW251385   4.774   7.955   2.375 -1.4620  0.2683 -0.8202
13486SOL     OW51386   1.144   9.595   3.049  0.0002 -0.2272 -0.4725
13486SOL    HW151387   1.185   9.532   2.982 -1.5819 -1.9234  0.1003
13486SOL    HW251388   1.168   9.564   3.142 -0.3451  0.3160 -0.2022
13487SOL     OW51389   0.098   0.591   3.995  0.1890 -0.6183 -0.0139
13487SOL    HW151390   0.013   0.541   3.977 -1.3451  2.1552 -0.6315
13487SOL    HW251391   0.082   0.661   4.064  2.1447 -0.4585  0.3167
13488SOL     OW51392   1.967   7.085   5.778  0.0074  0.3325  0.5218
13488SOL    HW151393   1.943   7.154   5.710 -1.0626  0.8783  1.4308
13488SOL    HW251394   1.902   7.009   5.774  0.8636 -0.3670 -0.1140
13489SOL     OW51395   3.812   3.084   1.741 -0.2813 -0.2288  0.5148
13489SOL    HW151396   3.855   3.030   1.669 -0.2086 -1.5209  1.4894
13489SOL    HW251397   3.713   3.078   1.733 -0.2827  0.7503 -0.2796
13490SOL     OW51398   9.490   1.805   1.798  0.2315  0.5450 -0.0419
13490SOL    HW151399   9.584   1.791   1.766  0.1255  0.3682 -0.2790
13490SOL    HW251400   9.486   1.789   1.896  0.8885  2.6537  0.3552
13491SOL     OW51401   7.507   3.172   0.892 -0.1522 -0.3245  0.1936
13491SOL    HW151402   7.438   3.119   0.943  0.3606 -1.2881 -0.0981
13491SOL    HW251403   7.493   3.269   0.909  0.3653 -0.6431  2.6610
13492SOL     OW51404   5.879   0.856   4.030 -0.2819  0.0999  0.5142
13492SOL    HW151405   5.814   0.780   4.021  0.3669 -0.4556  0.5022
13492SOL    HW251406   5.848   0.933   3.975 -0.3592 -0.5556 -0.3666
13493SOL     OW51407   3.637   5.166   5.336 -0.0105 -0.2935 -0.1546
13493SOL    HW151408   3.624   5.261   5.305 -0.1287 -0.2734 -0.0446
13493SOL    HW251409   3.581   5.105   5.280 -0.8227 -0.1739  0.5133
13494SOL     OW51410   3.049   9.127   1.094  0.3541 -0.0227  0.0798
13494SOL    HW151411   3.120   9.108   1.027  0.0596  0.4134 -0.3603
13494SOL    HW251412   2.980   9.054   1.091 -0.0775  0.4014 -0.6663
13495SOL     OW51413   8.149   1.160   1.847  0.4606  0.1460 -0.0967
13495SOL    HW151414   8.202   1.203   1.920  1.6292 -0.4631 -0.5814
13495SOL    HW251415   8.114   1.071   1.879 -0.9771  0.9080  0.5037
13496SOL     OW51416   8.663   5.922   3.072  0.2068 -0.0459  0.5995
13496SOL    HW151417   8.720   5.998   3.100 -0.2869  0.2193  0.8945
13496SOL    HW251418   8.596   5.902   3.144 -0.5568  0.1365 -0.0533
13497SOL     OW51419   3.616   6.501   4.274 -0.3139  1.0022  0.1184
13497SOL    HW151420   3.526   6.459   4.286 -0.2143  0.1930 -1.8023
13497SOL    HW251421   3.638   6.505   4.177  2.4884 -0.4707  0.6421
13498SOL     OW51422   4.087   5.910   1.316 -0.8299  0.4427 -0.5106
13498SOL    HW151423   4.067   5.904   1.414  1.1133 -2.5435 -0.2494
13498SOL    HW251424   4.185   5.916   1.302 -0.9446 -1.6742 -2.3692
13499SOL     OW51425   9.132   9.037   2.950  0.0131  0.3203 -0.0450
13499SOL    HW151426   9.035   9.023   2.929 -0.1547  2.1829 -0.6342
13499SOL    HW251427   9.164   8.966   3.012 -1.7271 -0.3284  0.1233
13500SOL     OW51428   8.381   5.494   2.141  0.3056  0.5183  0.1482
13500SOL    HW151429   8.403   5.582   2.099  0.9997  0.3732  0.2020
13500SOL    HW251430   8.456   5.466   2.201  0.4414 -0.4844 -0.4686
13501SOL     OW51431   4.705   3.650   0.131 -0.2885 -0.0935  0.3059
13501SOL    HW151432   4.750   3.708   0.063  1.0201 -2.6366 -1.1025
13501SOL    HW251433   4.606   3.649   0.114 -0.0181 -0.4275 -1.3754
13502SOL     OW51434   5.816   9.153   4.861  0.0961  0.0110  0.1649
13502SOL    HW151435   5.871   9.082   4.817  1.2595 -0.0116  1.6229
13502SOL    HW251436   5.747   9.110   4.920 -0.5660  0.0598 -0.5711
13503SOL     OW51437   0.743   6.435   3.056 -0.5937  0.0805 -0.0619
13503SOL    HW151438   0.732   6.506   3.125 -1.9012 -0.4428  0.2903
13503SOL    HW251439   0.840   6.427   3.031 -0.2318  0.8806  1.0480
13504SOL     OW51440   5.485   7.929   5.186 -0.1720 -0.3017  0.1423
13504SOL    HW151441   5.525   7.899   5.273  1.9020 -0.1196 -0.7222
13504SOL    HW251442   5.508   7.863   5.115 -0.0733  0.6343 -0.6952
13505SOL     OW51443   0.821   5.830   4.825  0.0852 -0.5295 -0.3444
13505SOL    HW151444   0.846   5.734   4.827  0.6234 -0.4026 -0.9677
13505SOL    HW251445   0.761   5.847   4.747  0.1501 -0.3164 -0.3474
13506SOL     OW51446   9.633   6.714   5.533 -0.6926 -0.0900  0.0650
13506SOL    HW151447   9.704   6.774   5.572 -0.3429 -0.6621  0.3181
13506SOL    HW251448   9.623   6.734   5.435  0.9759 -1.1096 -0.3400
13507SOL     OW51449   8.914   7.316   5.001 -0.1786  0.0873  0.1435
13507SOL    HW151450   8.997   7.355   4.962 -0.2031  0.5357  0.5409
13507SOL    HW251451   8.878   7.377   5.072  0.0995 -0.9011  1.1568
13508SOL     OW51452   7.613   9.791   1.227  0.5388 -0.9436 -0.0512
13508SOL    HW151453   7.692   9.734   1.202  1.0587 -0.1564 -0.2009
13508SOL    HW251454   7.618   9.877   1.178 -0.3118 -0.8096  0.1025
13509SOL     OW51455   1.712   3.899   2.108 -0.4307  0.5146  0.1727
13509SOL    HW151456   1.709   3.938   2.200 -2.7398 -0.0782  0.3722
13509SOL    HW251457   1.693   3.801   2.113  1.2329  0.1169 -0.7784
13510SOL     OW51458   6.502   9.255   4.405  0.1162 -0.1306  0.3302
13510SOL    HW151459   6.543   9.180   4.353  0.0957 -1.1474  1.7532
13510SOL    HW251460   6.412   9.276   4.368  1.6573  1.8344 -2.5546
13511SOL     OW51461   5.083   5.329   2.562  0.3182 -0.0180  0.3615
13511SOL    HW151462   5.029   5.248   2.585 -0.8860  0.6411 -0.0668
13511SOL    HW251463   5.078   5.394   2.638 -0.6642  0.6373 -0.2609
13512SOL     OW51464   3.626   7.992   2.836  0.2218 -0.3189 -0.2129
13512SOL    HW151465   3.694   8.056   2.801  0.5828 -0.4422  0.2622
13512SOL    HW251466   3.587   7.940   2.760 -0.7806  1.1446 -0.7295
13513SOL     OW51467   3.482   3.971   1.716  0.3243  0.9362 -0.3783
13513SOL    HW151468   3.562   3.914   1.738 -1.4670 -1.8099 -0.7285
13513SOL    HW251469   3.493   4.061   1.758  3.3784  0.4747 -0.0322
13514SOL     OW51470   6.909   9.728   1.988 -0.0281 -0.0512  0.2889
13514SOL    HW151471   6.888   9.761   2.080  2.0540 -0.2785  0.8906
13514SOL    HW251472   6.825   9.719   1.935 -1.3106 -0.3512  2.3220
13515SOL     OW51473   4.549   9.005   2.865 -0.0773 -0.2549 -0.1806
13515SOL    HW151474   4.634   9.053   2.888  0.1890 -0.1639 -1.2923
13515SOL    HW251475   4.572   8.919   2.820 -0.5769  0.1061 -1.1301
13516SOL     OW51476   0.872   7.010   1.840 -0.3967  0.3459  0.2676
13516SOL    HW151477   0.933   7.086   1.865 -0.8996  0.2248  1.9053
13516SOL    HW251478   0.925   6.925   1.839  0.3037  0.7829 -2.1774
13517SOL     OW51479   8.692   8.125   4.867  0.2352 -0.1112  0.5765
13517SOL    HW151480   8.683   8.215   4.824  4.0817  0.7101  1.3474
13517SOL    HW251481   8.718   8.058   4.798 -1.4488 -0.4361  0.2277
13518SOL     OW51482   2.465   5.291   3.062  0.3113 -0.4702 -0.6320
13518SOL    HW151483   2.423   5.376   3.029 -0.0335 -0.6275 -0.6071
13518SOL    HW251484   2.421   5.213   3.016  0.9945 -0.6051 -1.0540
13519SOL     OW51485   7.759   7.958   3.433  0.0631  0.4462  0.6480
13519SOL    HW151486   7.683   8.009   3.394 -1.1235 -1.4218  0.4837
13519SOL    HW251487   7.842   7.976   3.379 -0.8376  0.4175 -0.7693
13520SOL     OW51488   9.912   3.514   6.690 -0.3420  1.2223 -0.3001
13520SOL    HW151489   9.875   3.595   6.644 -0.0512  1.4852 -0.0681
13520SOL    HW251490   9.957   3.455   6.623 -0.9401  1.0310 -0.5427
13521SOL     OW51491   3.446   5.306   4.047 -0.3568 -0.4619 -0.3261
13521SOL    HW151492   3.396   5.261   4.121 -0.5621 -0.8443 -0.6896
13521SOL    HW251493   3.457   5.242   3.971  2.2182 -0.9423  0.4001
13522SOL     OW51494   1.634   8.430   4.337 -0.2937  0.7902  0.5240
13522SOL    HW151495   1.728   8.430   4.371 -0.0224  1.2945 -0.1900
13522SOL    HW251496   1.581   8.361   4.385  0.4302  0.5353  0.9713
13523SOL     OW51497   9.044   7.066   5.520  0.4278 -0.3940  0.4756
13523SOL    HW151498   8.961   7.119   5.537  0.8392  0.7610 -0.9797
13523SOL    HW251499   9.111   7.086   5.591 -0.0090 -0.1793  0.8274
13524SOL     OW51500   9.910   3.332   3.031  0.7831  0.6134 -0.2233
13524SOL    HW151501   9.965   3.307   3.111 -1.4516 -1.2000  0.8163
13524SOL    HW251502   9.822   3.368   3.062  0.0754  0.3284 -1.8789
13525SOL     OW51503   8.737   5.154   4.256 -0.3205  0.4119 -0.8349
13525SOL    HW151504   8.815   5.125   4.201 -2.0012 -1.5346 -2.2962
13525SOL    HW251505   8.769   5.196   4.341  2.2808 -1.5937 -0.7656
13526SOL     OW51506   2.405   3.070   3.334  0.6673 -0.4229 -0.1536
13526SOL    HW151507   2.480   3.107   3.280  0.7733 -1.6057 -0.8384
13526SOL    HW251508   2.437   3.052   3.427  1.7230 -2.4441 -0.8725
13527SOL     OW51509   4.305   5.007   0.424  0.1626 -0.1665  0.4922
13527SOL    HW151510   4.293   4.997   0.325  0.2417  0.0756  0.4574
13527SOL    HW251511   4.316   4.916   0.466  0.1136 -0.2697  0.2813
13528SOL     OW51512   9.239   6.764   3.354  0.5447  0.3269  0.4702
13528SOL    HW151513   9.229   6.761   3.255  0.9146  0.2759  0.4325
13528SOL    HW251514   9.328   6.726   3.380 -0.3080 -1.3898  0.9532
13529SOL     OW51515   0.126   5.270   0.417 -0.1125 -0.2656  0.2630
13529SOL    HW151516   0.186   5.192   0.437  0.2385  0.0304  0.3683
13529SOL    HW251517   0.136   5.295   0.320  0.5375  0.2931  0.4709
13530SOL     OW51518   6.730   7.838   2.513 -0.2495  0.1375 -0.5113
13530SOL    HW151519   6.700   7.777   2.587 -1.1976 -0.0795 -1.0677
13530SOL    HW251520   6.651   7.873   2.465  0.3493  0.7515 -1.0592
13531SOL     OW51521   0.559   3.702   0.407  0.3735  0.0702  0.1142
13531SOL    HW151522   0.573   3.771   0.335  2.6296  2.0699  2.3544
13531SOL    HW251523   0.639   3.643   0.412  0.3265  0.0861  1.1150
13532SOL     OW51524   0.717   7.165   0.878 -0.4303 -0.2762  0.6885
13532SOL    HW151525   0.751   7.123   0.963  1.1179  1.6337  1.0595
13532SOL    HW251526   0.793   7.211   0.831 -1.6022  0.0777 -0.9056
13533SOL     OW51527   4.093   7.369   4.445  0.7567 -0.2279 -0.0256
13533SOL    HW151528   4.015   7.420   4.481  1.7528 -0.0580  1.9594
13533SOL    HW251529   4.146   7.331   4.520  3.4153  0.8882 -1.2523
13534SOL     OW51530   1.533   6.165   5.876  1.1044 -0.4364  0.0743
13534SOL    HW151531   1.597   6.234   5.843 -0.0228 -0.3639 -2.0667
13534SOL    HW251532   1.497   6.113   5.799  1.9014 -3.4362  1.6343
13535SOL     OW51533   1.884   5.592   3.488  0.1997 -0.3094  0.4947
13535SOL    HW151534   1.921   5.571   3.579  1.3651 -0.3428  0.0187
13535SOL    HW251535   1.904   5.687   3.464  1.5538 -0.8324 -0.5079
13536SOL     OW51536   4.198   1.342   2.109 -0.1128 -0.3057 -1.1954
13536SOL    HW151537   4.202   1.440   2.125 -0.8208 -0.6319  1.2024
13536SOL    HW251538   4.103   1.313   2.101 -0.0280 -1.1323  0.5270
13537SOL     OW51539   4.047   5.871   0.252 -0.3319  0.4154  0.4753
13537SOL    HW151540   4.009   5.830   0.169  0.0380  0.2963  0.3597
13537SOL    HW251541   4.030   5.810   0.330 -1.3887  0.9091  0.6354
13538SOL     OW51542   8.777   7.734   4.372 -0.2210 -0.2011 -0.4926
13538SOL    HW151543   8.678   7.723   4.368 -0.4226  1.0993  0.2927
13538SOL    HW251544   8.799   7.831   4.383  1.0815 -0.5927  0.5700
13539SOL     OW51545   0.997   4.266   5.454  0.4026 -0.3401 -0.3421
13539SOL    HW151546   0.980   4.363   5.473 -1.4866 -0.9545  1.2299
13539SOL    HW251547   1.087   4.241   5.489  0.2126  0.4654  0.7579
13540SOL     OW51548   9.151   7.400   4.862  0.6790 -0.3941  0.2319
13540SOL    HW151549   9.109   7.432   4.777  0.0913  0.5700  0.8778
13540SOL    HW251550   9.225   7.463   4.888  1.8615 -1.5210 -0.3608
13541SOL     OW51551   5.401   5.389   0.871 -0.5680  0.1934 -0.3104
13541SOL    HW151552   5.420   5.360   0.965 -0.3433  1.1545 -0.0442
13541SOL    HW251553   5.314   5.439   0.869 -1.2141 -0.9479 -0.8492
13542SOL     OW51554   3.516   2.391   1.809 -0.2321 -0.3019 -0.2892
13542SOL    HW151555   3.608   2.407   1.772  0.2275 -1.9052  0.1095
13542SOL    HW251556   3.460   2.472   1.796  1.6515  1.1929  0.6843
13543SOL     OW51557   3.043   3.907   1.102 -0.6469  0.6103 -0.0057
13543SOL    HW151558   3.021   3.824   1.051  0.0016 -0.2709  1.1277
13543SOL    HW251559   2.974   3.977   1.083 -2.0341 -0.6849  0.1810
13544SOL     OW51560   2.056   7.636   3.790 -0.2213  0.1728 -0.0149
13544SOL    HW151561   2.146   7.604   3.761 -0.3439 -1.1930  1.0609
13544SOL    HW251562   2.037   7.603   3.882 -2.2179 -0.3160 -0.5833
13545SOL     OW51563   6.381   1.854   3.858  0.0948  0.2517  0.0759
13545SOL    HW151564   6.295   1.905   3.863 -1.2313 -1.6867 -1.7867
13545SOL    HW251565   6.395   1.802   3.942 -0.4903  0.6705  0.4336
13546SOL     OW51566   6.832   0.450   3.871 -0.1855  0.5424  0.1562
13546SOL    HW151567   6.859   0.417   3.781 -0.7565  2.6838 -0.8283
13546SOL    HW251568   6.913   0.481   3.922  0.3344 -2.1280  1.0296
13547SOL     OW51569   9.270   5.210   6.719  0.3860  0.3999 -0.2745
13547SOL    HW151570   9.264   5.266   6.636  0.7010  0.0340 -0.5494
13547SOL    HW251571   9.285   5.115   6.693 -0.3676  0.1587  0.1843
13548SOL     OW51572   7.455   7.074   2.779 -0.6528  0.3664  0.3593
13548SOL    HW151573   7.363   7.035   2.772 -0.8483  0.9742 -0.5027
13548SOL    HW251574   7.449   7.174   2.782  0.0698  0.4621 -1.1957
13549SOL     OW51575   1.894   7.033   1.318 -0.3014 -0.2494  0.2686
13549SOL    HW151576   1.836   7.108   1.286  1.3577  1.0754  0.3014
13549SOL    HW251577   1.900   6.963   1.247  0.9158  1.2639 -1.1312
13550SOL     OW51578   9.404   6.529   1.652 -0.0439 -0.0517  0.2128
13550SOL    HW151579   9.384   6.514   1.749  0.6811  0.0258  0.3756
13550SOL    HW251580   9.342   6.597   1.615  1.7151  2.2723  1.4101
13551SOL     OW51581   1.155   7.690   6.280 -0.2113  0.2054 -0.9092
13551SOL    HW151582   1.193   7.631   6.209 -0.5458 -0.6168 -0.4066
13551SOL    HW251583   1.067   7.727   6.249  0.2937  0.9473 -1.4772
13552SOL     OW51584   3.684   4.237   3.316 -0.7593 -0.2176  0.0681
13552SOL    HW151585   3.718   4.226   3.223  0.2902  0.6875  0.3384
13552SOL    HW251586   3.611   4.306   3.317 -1.5146 -0.9989 -0.2458
13553SOL     OW51587   1.644   0.047   3.754 -0.2734  0.0434  0.0705
13553SOL    HW151588   1.590   0.128   3.776  0.6163  0.6353  0.1279
13553SOL    HW251589   1.584  -0.030   3.733 -1.1271  0.4028  1.1875
13554SOL     OW51590   2.063   0.638   1.213  0.1056  0.2423  0.1039
13554SOL    HW151591   2.065   0.541   1.190 -0.1447 -0.1340  1.6357
13554SOL    HW251592   2.151   0.665   1.251 -0.4207  0.1960  1.3570
13555SOL     OW51593   2.828   3.609   3.231 -0.0000 -0.4835 -0.3299
13555SOL    HW151594   2.765   3.681   3.202 -0.5091 -0.4118  0.9496
13555SOL    HW251595   2.899   3.598   3.162  1.5622  2.9926  0.6113
13556SOL     OW51596   3.876   2.202   1.798 -0.1641 -0.1830  0.0512
13556SOL    HW151597   3.918   2.117   1.767  0.5396  0.0228  0.4320
13556SOL    HW251598   3.932   2.243   1.869  0.4340  1.5134 -1.3579
13557SOL     OW51599   1.368   1.788   4.758  0.0109  0.9929 -0.2840
13557SOL    HW151600   1.454   1.764   4.804  0.4323  1.4564 -0.8203
13557SOL    HW251601   1.385   1.862   4.693 -0.7751  1.0028 -0.4803
13558SOL     OW51602   6.937   9.678   3.180 -0.4123  0.1005  0.0291
13558SOL    HW151603   6.919   9.643   3.088  2.1925 -0.5113 -0.2869
13558SOL    HW251604   7.031   9.655   3.207 -0.7511  1.3030  2.3742
13559SOL     OW51605   7.949   5.705   3.360 -0.3443 -0.1561 -0.0080
13559SOL    HW151606   8.028   5.662   3.315  0.6140 -0.9146  2.3130
13559SOL    HW251607   7.982   5.776   3.422 -1.4259 -0.8749  1.4234
13560SOL     OW51608   4.898   1.096   3.159  0.0285 -0.4969 -0.3168
13560SOL    HW151609   4.860   1.188   3.152 -0.4445 -0.5840  0.9334
13560SOL    HW251610   4.976   1.098   3.222  0.5302 -0.7944 -0.9288
13561SOL     OW51611   4.654   4.196   4.459  0.2406 -0.0757  0.3592
13561SOL    HW151612   4.571   4.140   4.457  0.8788 -1.0032 -1.1172
13561SOL    HW251613   4.734   4.137   4.467  0.7891  0.7872  1.3280
13562SOL     OW51614   9.986   5.314   6.022 -0.2006 -0.4330 -0.2073
13562SOL    HW151615   9.994   5.265   5.935  0.0648 -0.5570 -0.1146
13562SOL    HW251616   9.980   5.248   6.097 -1.1099 -0.3292 -0.1870
13563SOL     OW51617   8.217   8.338   4.934  0.5381 -0.0409  0.0952
13563SOL    HW151618   8.198   8.436   4.932  4.6443  0.8225 -2.3492
13563SOL    HW251619   8.180   8.295   4.852 -1.2422 -0.5652  1.1571
13564SOL     OW51620   0.034   8.850   3.538 -0.2469 -0.5195 -0.0446
13564SOL    HW151621  -0.039   8.869   3.471  0.1852 -0.4878 -0.5078
13564SOL    HW251622   0.068   8.757   3.524 -0.3633 -0.6170  0.3281
13565SOL     OW51623   2.578   6.875   4.470 -0.1400  0.9499 -0.6828
13565SOL    HW151624   2.654   6.822   4.508 -0.5723  1.1391  0.4370
13565SOL    HW251625   2.604   6.908   4.379 -0.8838 -3.5538 -2.6576
13566SOL     OW51626   4.005   5.862   3.752  0.0719  0.1136 -0.4990
13566SOL    HW151627   3.918   5.910   3.739 -0.6049 -0.5113  1.4677
13566SOL    HW251628   3.989   5.779   3.805  1.8911  0.0685 -0.0051
13567SOL     OW51629   8.621   9.687   5.582 -0.4671 -0.3192  0.2995
13567SOL    HW151630   8.683   9.683   5.661 -0.0534  3.2033  0.2609
13567SOL    HW251631   8.675   9.697   5.498 -1.0113  0.3793  0.0287
13568SOL     OW51632   9.609   6.408   5.439 -0.4323 -0.2266 -0.0870
13568SOL    HW151633   9.683   6.462   5.400 -1.6523  0.4743 -1.4623
13568SOL    HW251634   9.581   6.449   5.527  0.6282 -0.3501  0.3141
13569SOL     OW51635   8.070   2.218   5.835  0.5590  0.3018 -0.4633
13569SOL    HW151636   8.141   2.212   5.906  0.8959  0.9377 -0.7431
13569SOL    HW251637   8.061   2.129   5.791  0.5389 -0.0260  0.1985
13570SOL     OW51638   3.980   5.831   3.433  0.0625 -0.4754  0.1459
13570SOL    HW151639   3.953   5.805   3.526 -0.2821  0.9381  0.4598
13570SOL    HW251640   4.038   5.760   3.394 -0.3037 -1.3789  1.2093
13571SOL     OW51641   0.676   5.334   1.421  0.2596 -0.1674 -0.0463
13571SOL    HW151642   0.715   5.409   1.367  1.9694 -0.8066  0.2591
13571SOL    HW251643   0.631   5.371   1.502  0.3342  0.5904 -0.3455
13572SOL     OW51644   6.726   8.101   1.952  0.0125  0.4805 -0.2401
13572SOL    HW151645   6.754   8.016   1.996  0.6362  0.3332 -0.9151
13572SOL    HW251646   6.768   8.178   2.000  0.6399  0.3238 -0.5342
13573SOL     OW51647   2.005   7.039   0.119 -0.1075  0.2029 -0.4928
13573SOL    HW151648   1.962   7.129   0.113  2.6514  1.5292 -1.0793
13573SOL    HW251649   2.000   7.006   0.214  0.1663  1.6487  0.0355
13574SOL     OW51650   9.098   6.008   0.126 -0.0340 -0.4129  0.2902
13574SOL    HW151651   9.129   5.941   0.193 -1.8633  0.0177  1.5943
13574SOL    HW251652   9.081   6.095   0.171 -2.3031 -0.4066 -0.5332
13575SOL     OW51653   6.265   7.642   2.458 -0.7033 -0.0842  0.6441
13575SOL    HW151654   6.326   7.623   2.382 -0.9173 -1.5434  0.8194
13575SOL    HW251655   6.195   7.708   2.430  0.2623  0.7025  0.1068
13576SOL     OW51656   1.131   2.693   1.013 -0.4079  0.7854  0.2507
13576SOL    HW151657   1.144   2.629   0.937 -2.4883  0.9422 -0.2778
13576SOL    HW251658   1.110   2.784   0.977  1.3009  1.4962  1.0056
13577SOL     OW51659   1.234   2.871   3.988 -0.5159  0.1727  0.2692
13577SOL    HW151660   1.139   2.890   3.964 -1.2707 -0.2235  2.8654
13577SOL    HW251661   1.277   2.818   3.915 -2.6010 -0.6179 -0.4105
13578SOL     OW51662   1.287   7.605   0.262  0.7381 -0.2040 -0.4148
13578SOL    HW151663   1.333   7.527   0.305  0.7132 -0.1866 -0.3546
13578SOL    HW251664   1.198   7.576   0.226 -0.1479  0.2173  1.3471
13579SOL     OW51665   9.214   1.269   1.012  0.4130  0.0601 -0.1200
13579SOL    HW151666   9.273   1.223   0.945 -0.1858 -1.3134  0.2663
13579SOL    HW251667   9.172   1.200   1.071 -0.0759  1.1687  0.8416
13580SOL     OW51668   8.542   0.622   0.786 -0.4954 -0.4500 -0.2541
13580SOL    HW151669   8.617   0.688   0.785  0.6929 -1.7838 -0.8376
13580SOL    HW251670   8.546   0.568   0.871 -0.4621 -0.9024 -0.5430
13581SOL     OW51671   1.015   6.783   4.290 -0.1848 -0.1016 -0.4838
13581SOL    HW151672   1.002   6.881   4.307  0.2152 -0.4356  1.8911
13581SOL    HW251673   0.930   6.734   4.310  0.2329 -0.4801  0.3850
13582SOL     OW51674   2.619   2.171   4.476  0.0193  0.0068 -0.4367
13582SOL    HW151675   2.704   2.225   4.479 -0.5062  0.8837 -1.0219
13582SOL    HW251676   2.589   2.162   4.381 -1.2909  0.8991 -0.1195
13583SOL     OW51677   5.263   9.670   2.030  0.4246  0.0542  0.6435
13583SOL    HW151678   5.195   9.669   2.103  0.7563  0.4217  0.9545
13583SOL    HW251679   5.230   9.615   1.953  1.0375 -2.2153  1.9401
13584SOL     OW51680   8.012   1.008   2.601 -0.6590 -0.3349  0.5371
13584SOL    HW151681   7.926   0.978   2.644 -0.4601 -0.5603  0.7807
13584SOL    HW251682   8.087   0.993   2.665 -0.7966  2.4750  1.4343
13585SOL     OW51683   2.506   4.192   5.427  0.0608  0.0720  0.2511
13585SOL    HW151684   2.529   4.145   5.512  3.0753 -0.7232 -0.9318
13585SOL    HW251685   2.582   4.185   5.363 -1.9262  1.0906 -2.3539
13586SOL     OW51686   3.069   6.528   1.834  0.2916  0.0770 -0.3314
13586SOL    HW151687   3.122   6.603   1.794  1.9523 -0.8397  0.0743
13586SOL    HW251688   3.064   6.452   1.769 -3.3526  1.3415 -1.6563
13587SOL     OW51689   1.210   0.575   2.328 -0.5854 -0.5366 -0.2294
13587SOL    HW151690   1.281   0.575   2.257 -0.0736  0.3461  0.2612
13587SOL    HW251691   1.200   0.668   2.364 -0.6983 -1.0162  0.9940
13588SOL     OW51692   0.259   4.452   5.751  0.4380 -0.0344 -0.7520
13588SOL    HW151693   0.280   4.518   5.823 -2.0624  0.4054 -0.3610
13588SOL    HW251694   0.267   4.359   5.788 -0.2954  0.1754 -0.0349
13589SOL     OW51695   9.903   6.750   3.024  0.0742  0.3856  0.2880
13589SOL    HW151696   9.878   6.765   2.928 -0.7176  1.1786  0.6081
13589SOL    HW251697   9.960   6.825   3.056 -0.9967  0.9636  0.8874
13590SOL     OW51698   5.605   0.749   4.378  0.1798  0.0361  0.1380
13590SOL    HW151699   5.679   0.702   4.328  2.6228  1.4814  2.2394
13590SOL    HW251700   5.614   0.847   4.365 -1.2199  0.2378  0.6629
13591SOL     OW51701   8.377   9.808   4.371 -0.0012  0.4176  0.2959
13591SOL    HW151702   8.475   9.825   4.365  0.3123 -1.3449  0.3560
13591SOL    HW251703   8.350   9.741   4.302 -1.2103  1.0494  0.1346
13592SOL     OW51704   4.835   7.098   4.501  0.1077  0.3726 -0.0495
13592SOL    HW151705   4.833   7.148   4.415 -0.0579  0.2068 -0.1422
13592SOL    HW251706   4.774   7.019   4.495  0.4630  0.0892  0.0548
13593SOL     OW51707   0.678   4.540   4.433  0.2611 -0.0792 -0.4745
13593SOL    HW151708   0.585   4.537   4.470  0.3987 -0.8325 -0.1724
13593SOL    HW251709   0.743   4.524   4.508  0.5914 -0.5072 -0.8534
13594SOL     OW51710   0.922   6.225   5.014 -0.0537  0.3064 -0.0624
13594SOL    HW151711   0.975   6.277   5.081 -0.1817  0.7297 -0.2853
13594SOL    HW251712   0.917   6.130   5.043  0.4027  0.3626  0.2186
13595SOL     OW51713   8.402   3.055   3.973  0.2085  0.4849 -0.6280
13595SOL    HW151714   8.495   3.044   3.938  0.8777  2.2560  0.5012
13595SOL    HW251715   8.404   3.054   4.073 -1.0323  0.1872 -0.5976
13596SOL     OW51716   3.800   4.831   6.102 -0.4478 -0.0974 -0.0975
13596SOL    HW151717   3.849   4.745   6.116  0.8358  0.4783 -0.9489
13596SOL    HW251718   3.805   4.857   6.006 -1.5990  0.4746 -0.0055
13597SOL     OW51719   8.434   1.691   0.403  0.0444 -0.3559 -0.1803
13597SOL    HW151720   8.492   1.750   0.459 -0.6642  0.7220 -0.5609
13597SOL    HW251721   8.481   1.670   0.317  0.2376 -0.2353 -0.1046
13598SOL     OW51722   8.773   0.117   4.765  0.5746  0.7288  0.0360
13598SOL    HW151723   8.770   0.177   4.845  1.3772 -2.0975  2.2523
13598SOL    HW251724   8.742   0.026   4.790  1.0381 -0.2779 -2.8464
13599SOL     OW51725   0.342   6.509   6.221  0.1588  0.2652  0.1900
13599SOL    HW151726   0.273   6.440   6.244  0.8145 -0.9112 -1.2772
13599SOL    HW251727   0.423   6.464   6.183  0.8856  1.8035 -0.1200
13600SOL     OW51728   4.048   6.997   4.244 -0.9507 -0.4720 -0.2797
13600SOL    HW151729   3.956   7.033   4.262 -0.0242  0.8693  1.8506
13600SOL    HW251730   4.083   7.036   4.160 -2.9855 -2.3135 -2.0701
13601SOL     OW51731   8.854   6.098   3.167  0.2836  0.2968 -0.1976
13601SOL    HW151732   8.890   6.188   3.142  1.8028  0.1047  1.1469
13601SOL    HW251733   8.931   6.038   3.190 -0.6672 -1.6601 -2.0743
13602SOL     OW51734   2.448   9.036   4.388  0.0998 -0.1944 -0.2645
13602SOL    HW151735   2.522   8.980   4.352 -0.4561 -1.8386  1.0794
13602SOL    HW251736   2.362   8.986   4.380 -0.8886  1.7097 -1.8296
13603SOL     OW51737   5.366   1.392   3.594 -0.0260 -0.4415  0.6250
13603SOL    HW151738   5.369   1.362   3.499 -0.8139 -1.1880  0.8313
13603SOL    HW251739   5.451   1.363   3.640  0.5430  0.2954  0.0467
13604SOL     OW51740   7.535   0.058   4.594  0.3421 -0.5283 -0.1399
13604SOL    HW151741   7.562   0.011   4.510 -1.1789 -0.3830 -0.7314
13604SOL    HW251742   7.453   0.113   4.576  0.5533  0.2449  1.2060
13605SOL     OW51743   7.243   8.387   1.779  0.0659  0.2702 -0.0884
13605SOL    HW151744   7.172   8.317   1.779 -0.7168  1.0455 -0.5153
13605SOL    HW251745   7.256   8.422   1.872  0.2956 -0.2780  0.0845
13606SOL     OW51746   3.994   0.136   1.134  0.8642 -0.6390  0.0989
13606SOL    HW151747   3.931   0.061   1.116 -0.1726  0.9200 -3.0334
13606SOL    HW251748   3.945   0.212   1.177  1.1978 -0.4704  0.1857
13607SOL     OW51749   0.531   3.050   2.205 -0.1108  0.0189  0.4322
13607SOL    HW151750   0.537   2.976   2.272 -0.1280 -0.4705 -0.0934
13607SOL    HW251751   0.498   3.133   2.249 -0.2836 -0.3430  0.9943
13608SOL     OW51752   8.993   5.451   1.619  0.0690 -0.2001  0.2027
13608SOL    HW151753   8.900   5.415   1.629  0.0885 -0.0469  0.9634
13608SOL    HW251754   9.053   5.379   1.585 -0.0817 -0.6455  0.8611
13609SOL     OW51755   8.584   7.837   1.937  0.0772  0.1954  0.7205
13609SOL    HW151756   8.594   7.765   1.868 -0.0053 -0.6641  1.5792
13609SOL    HW251757   8.496   7.882   1.925  0.3668  0.5313 -0.1755
13610SOL     OW51758   7.747   1.852   6.349  0.7167  0.0962 -0.6215
13610SOL    HW151759   7.661   1.849   6.399  0.7983  2.3868 -0.2844
13610SOL    HW251760   7.799   1.768   6.366 -1.2553 -1.1297 -0.5191
13611SOL     OW51761   3.914   2.187   0.631  0.6780 -0.3911  0.0683
13611SOL    HW151762   3.907   2.205   0.533  1.1528  3.3010  0.6161
13611SOL    HW251763   4.010   2.173   0.656  0.7031  0.0044  0.1970
13612SOL     OW51764   1.293   2.529   2.843  0.4752  0.1222 -0.5930
13612SOL    HW151765   1.246   2.467   2.907 -0.2274  1.2635  0.0077
13612SOL    HW251766   1.334   2.475   2.770 -1.9170 -0.8966 -1.2415
13613SOL     OW51767   9.763   6.139   0.153  0.0584 -0.0399  0.4004
13613SOL    HW151768   9.719   6.093   0.231 -1.1439  0.6461  0.1213
13613SOL    HW251769   9.720   6.227   0.137  1.3229  0.4999 -0.0880
13614SOL     OW51770   8.982   0.468   2.356  0.7371  0.2873  0.0395
13614SOL    HW151771   8.917   0.465   2.281 -0.4086 -0.1786  1.0247
13614SOL    HW251772   9.029   0.556   2.357  0.7766  0.2898 -1.2175
13615SOL     OW51773   3.065   7.981   0.457  0.1381 -0.0003  0.0153
13615SOL    HW151774   3.147   7.960   0.404  0.1385  0.5009 -0.1904
13615SOL    HW251775   2.999   8.028   0.398 -0.4515 -0.7368  0.0787
13616SOL     OW51776   9.376   6.530   4.103  0.2014  0.1543  0.5677
13616SOL    HW151777   9.317   6.471   4.047  1.1492 -1.3345  1.0955
13616SOL    HW251778   9.471   6.508   4.085  0.5702  1.6128  0.7123
13617SOL     OW51779   4.700   5.637   0.706  0.2777  0.1183 -0.1272
13617SOL    HW151780   4.744   5.719   0.670  2.1654 -0.2170  1.3706
13617SOL    HW251781   4.692   5.569   0.633 -0.4914  1.2815 -1.1503
13618SOL     OW51782   0.049   6.076   0.110  0.4651  0.0556  0.4253
13618SOL    HW151783   0.061   6.003   0.043  1.5253  0.2719  0.3720
13618SOL    HW251784  -0.045   6.109   0.106  0.0434 -1.1239  0.2692
13619SOL     OW51785   9.882   8.716   0.914 -0.2311  0.1020  0.2936
13619SOL    HW151786   9.785   8.741   0.912  0.1860  1.8170  0.4162
13619SOL    HW251787   9.923   8.749   0.998  0.6779  0.2059 -0.1861
13620SOL     OW51788   5.381   1.623   2.037  0.2181  0.8809  0.0224
13620SOL    HW151789   5.291   1.597   2.071  0.0787  2.2683  0.7244
13620SOL    HW251790   5.439   1.541   2.030 -0.4976  0.2535  1.3327
13621SOL     OW51791   8.905   9.727   1.832 -0.0105 -0.2613 -0.6045
13621SOL    HW151792   8.965   9.794   1.875  0.0643  0.2604 -1.5308
13621SOL    HW251793   8.952   9.684   1.755  0.0785 -1.6472  0.2061
13622SOL     OW51794   3.665   3.393   3.783  0.5222 -0.1789 -0.2586
13622SOL    HW151795   3.626   3.373   3.872 -0.3670  0.2180 -0.5576
13622SOL    HW251796   3.663   3.311   3.726 -0.1027 -0.0896 -0.3624
13623SOL     OW51797   1.651   6.855   1.221 -0.0497  0.1222 -0.0179
13623SOL    HW151798   1.732   6.852   1.163 -0.6313 -0.4593 -0.8067
13623SOL    HW251799   1.573   6.816   1.171 -0.7144  0.2932  0.8861
13624SOL     OW51800   0.171   3.082   3.668 -0.1390 -0.1186 -0.4022
13624SOL    HW151801   0.186   3.078   3.767 -1.0529  1.9071 -0.1669
13624SOL    HW251802   0.188   2.991   3.628 -1.0155 -1.2775  1.7808
13625SOL     OW51803   2.194   7.624   1.311  0.8675 -0.1949  0.1508
13625SOL    HW151804   2.276   7.610   1.256  1.2212  0.9580  0.3591
13625SOL    HW251805   2.164   7.720   1.302 -1.3530 -0.9677 -1.1473
13626SOL     OW51806   9.078   6.775   1.829 -0.2936  0.5575  0.3617
13626SOL    HW151807   9.049   6.681   1.811 -0.4252  0.1684  2.5147
13626SOL    HW251808   9.177   6.782   1.816 -0.2923  0.1405  0.1310
13627SOL     OW51809   0.091   5.007   4.238 -0.1162  0.1231 -0.7933
13627SOL    HW151810   0.105   4.924   4.290 -0.8477 -0.2031 -1.1178
13627SOL    HW251811   0.124   5.086   4.291  1.3868 -0.4470 -0.8428
13628SOL     OW51812   8.529   9.507   4.327 -0.4144  0.4210 -0.0150
13628SOL    HW151813   8.574   9.418   4.323 -2.6049 -0.7064 -0.5198
13628SOL    HW251814   8.569   9.568   4.259  0.2859 -0.5807 -0.5151
13629SOL     OW51815   0.457   7.117   5.891 -0.0027 -0.2440  0.0772
13629SOL    HW151816   0.380   7.153   5.839 -0.7424 -0.4596  1.0063
13629SOL    HW251817   0.454   7.017   5.889  1.1864 -0.2777 -1.2333
13630SOL     OW51818   0.938   1.582   2.991 -0.2447  0.0020  0.4516
13630SOL    HW151819   0.843   1.612   2.990  0.1499  1.2877 -1.4283
13630SOL    HW251820   0.942   1.482   2.985 -1.4683 -0.0664  0.7716
13631SOL     OW51821   2.765   7.985   2.035  0.4423  0.0842 -0.3237
13631SOL    HW151822   2.786   8.061   2.096 -1.1929  0.9349 -0.7722
13631SOL    HW251823   2.783   8.012   1.940 -0.0005 -0.1267 -0.4724
13632SOL     OW51824   2.297   4.134   6.420  0.2656  0.0563 -0.2971
13632SOL    HW151825   2.351   4.160   6.340  1.0832 -1.6892 -0.3256
13632SOL    HW251826   2.328   4.186   6.500  2.1294 -1.0205 -0.2763
13633SOL     OW51827   4.609   1.432   4.324 -0.2773 -0.0994 -0.1461
13633SOL    HW151828   4.589   1.464   4.231 -0.8264 -0.9341 -0.3152
13633SOL    HW251829   4.697   1.386   4.325 -0.7463 -1.0024 -0.4641
13634SOL     OW51830   5.288   8.162   2.623 -0.0004  0.5182  0.9334
13634SOL    HW151831   5.294   8.225   2.700 -3.6854  2.7900 -0.4718
13634SOL    HW251832   5.325   8.206   2.541 -0.7257  0.0741  0.3620
13635SOL     OW51833   0.707   7.760   1.464 -0.2100  0.2850  0.2080
13635SOL    HW151834   0.776   7.694   1.495  2.0574  2.1545 -0.7021
13635SOL    HW251835   0.629   7.711   1.426  0.8127 -1.8852  0.8042
13636SOL     OW51836   8.572   6.024   2.431 -0.1739 -0.9329  0.1525
13636SOL    HW151837   8.482   6.048   2.466  0.6490  2.3384  0.1842
13636SOL    HW251838   8.592   6.078   2.348  2.7134  0.2848  1.5536
13637SOL     OW51839   3.511   3.637   2.461 -0.2191 -0.1150 -0.0689
13637SOL    HW151840   3.539   3.596   2.548  0.5133 -2.0934 -1.1861
13637SOL    HW251841   3.495   3.735   2.473  0.6420 -0.2160  2.1043
13638SOL     OW51842   9.055   1.118   3.252  0.5099 -0.3940 -0.5529
13638SOL    HW151843   9.078   1.053   3.180 -1.3395 -0.7679 -0.8266
13638SOL    HW251844   8.963   1.154   3.236  0.5478  0.4143  0.9705
13639SOL     OW51845   1.970   8.159   1.572 -0.0206 -0.1036 -0.1820
13639SOL    HW151846   2.016   8.245   1.546  0.2414  0.3716  1.7961
13639SOL    HW251847   1.924   8.171   1.660 -1.7214 -1.3891 -0.8748
13640SOL     OW51848   0.281   6.648   3.082  0.3092  0.5065  0.0620
13640SOL    HW151849   0.370   6.679   3.117  1.5412 -0.3610 -2.2127
13640SOL    HW251850   0.280   6.548   3.076 -0.7385  0.5204 -0.1352
13641SOL     OW51851   5.914   0.152   3.202 -0.1435  0.5983  0.0727
13641SOL    HW151852   5.924   0.246   3.171  0.9016  0.7628  0.8955
13641SOL    HW251853   6.001   0.104   3.192 -0.5588 -0.1619  0.0531
13642SOL     OW51854   9.995   2.975   6.615  0.1150  0.2391  0.4081
13642SOL    HW151855  10.012   2.880   6.587 -0.6934  0.6199 -1.4515
13642SOL    HW251856  10.045   2.995   6.699  1.7952 -1.2565 -0.2235
13643SOL     OW51857   3.589   5.196   3.108  0.1199 -0.0965  0.3993
13643SOL    HW151858   3.492   5.177   3.124  0.3031 -1.1391  0.3010
13643SOL    HW251859   3.636   5.203   3.196  0.5809 -2.9783  0.4430
13644SOL     OW51860   8.060   5.630   4.687 -0.1367  0.1921  0.3097
13644SOL    HW151861   8.075   5.576   4.604 -1.0476 -1.1704  1.0200
13644SOL    HW251862   8.040   5.725   4.661 -1.8233 -0.5221 -1.1112
13645SOL     OW51863   5.198   1.926   4.189 -0.4634  0.2896 -0.2831
13645SOL    HW151864   5.172   1.923   4.286 -2.0675 -0.4394 -0.7310
13645SOL    HW251865   5.233   2.018   4.168 -0.7421  0.6626  0.8113
13646SOL     OW51866   1.053   8.705   1.715  0.6185 -0.5527 -0.5613
13646SOL    HW151867   1.123   8.758   1.667 -0.7546  1.6765 -0.1833
13646SOL    HW251868   0.964   8.750   1.704 -0.5099 -2.5172  0.2296
13647SOL     OW51869   1.785   3.157   1.620 -0.7390 -0.3093 -0.3505
13647SOL    HW151870   1.808   3.072   1.572 -1.4879 -0.4669 -0.4328
13647SOL    HW251871   1.688   3.177   1.607  0.2611  2.7976 -3.8841
13648SOL     OW51872   9.459   7.714   1.499  0.1608  0.1830 -0.4512
13648SOL    HW151873   9.415   7.653   1.433  0.0775 -1.0485  0.7143
13648SOL    HW251874   9.540   7.669   1.536  0.0998  0.7830  0.4177
13649SOL     OW51875   0.119   3.337   2.232 -0.0210 -0.1740 -0.3493
13649SOL    HW151876   0.065   3.305   2.310 -0.3119  1.9228  0.3271
13649SOL    HW251877   0.085   3.426   2.202  2.3538  0.6632 -0.6382
13650SOL     OW51878   2.820   5.314   1.761  0.1131 -0.4992 -0.0553
13650SOL    HW151879   2.781   5.258   1.687  0.7999 -3.7201  1.9110
13650SOL    HW251880   2.919   5.322   1.748  0.1666 -0.6728  0.2353
13651SOL     OW51881   4.491   7.931   4.294 -0.1372  0.0921  0.2182
13651SOL    HW151882   4.503   7.989   4.213 -1.5727 -0.3683 -0.3339
13651SOL    HW251883   4.506   7.835   4.270 -1.5347 -0.1526  0.2508
13652SOL     OW51884   6.429   7.594   2.255  0.4223 -0.7029  0.4311
13652SOL    HW151885   6.415   7.596   2.156  0.9988  0.4329  0.3566
13652SOL    HW251886   6.494   7.666   2.280  1.5044 -1.9988  1.4448
13653SOL     OW51887   9.161   7.858   1.348 -0.1531 -0.0772  0.0296
13653SOL    HW151888   9.099   7.894   1.417  1.3974 -0.0812  1.4525
13653SOL    HW251889   9.214   7.933   1.308  1.5787 -0.5078  1.4943
13654SOL     OW51890   2.402   5.510   1.524  0.1267 -0.6056  0.0421
13654SOL    HW151891   2.482   5.476   1.476  0.6201  1.9030 -1.0049
13654SOL    HW251892   2.430   5.579   1.591 -1.2904  1.5382 -1.5192
13655SOL     OW51893   1.448   4.895   3.744 -0.0191  0.0279  0.6852
13655SOL    HW151894   1.461   4.806   3.701 -0.1363  0.1127  0.4729
13655SOL    HW251895   1.376   4.945   3.695 -0.5589 -0.1124  1.3429
13656SOL     OW51896   7.521   7.574   2.490 -0.0114  0.1414  0.0739
13656SOL    HW151897   7.449   7.643   2.491  1.4976  1.7809 -1.1021
13656SOL    HW251898   7.592   7.598   2.556  0.1476 -0.7048  0.2190
13657SOL     OW51899   1.619   7.257   3.213 -0.2422 -0.3680 -0.1330
13657SOL    HW151900   1.590   7.185   3.150 -0.4158  0.2501 -0.7632
13657SOL    HW251901   1.694   7.222   3.270 -1.0156 -1.3845  0.2875
13658SOL     OW51902   5.805   0.305   5.146 -0.4480  0.3708 -0.5964
13658SOL    HW151903   5.821   0.259   5.233 -0.8641  0.0198 -0.7081
13658SOL    HW251904   5.893   0.333   5.107 -0.0619 -1.8252 -1.3544
13659SOL     OW51905   7.495   8.722   5.013  0.8250  0.2101  0.2002
13659SOL    HW151906   7.404   8.763   5.013  1.6511  2.0912  0.6139
13659SOL    HW251907   7.489   8.627   4.982 -1.3374  0.1624  0.6865
13660SOL     OW51908   0.736   6.319   6.590 -0.1645  0.0570  1.0037
13660SOL    HW151909   0.745   6.223   6.613  0.9321  0.2823  1.5347
13660SOL    HW251910   0.721   6.329   6.491  1.2127 -0.5800  0.7223
13661SOL     OW51911   1.224   8.115   3.915  0.2386  0.7907  0.1466
13661SOL    HW151912   1.240   8.025   3.955 -0.6210  0.2305 -0.7687
13661SOL    HW251913   1.217   8.183   3.989 -1.0522 -0.1846  0.9349
13662SOL     OW51914   8.583   0.795   4.732  0.6879 -0.9355 -0.3754
13662SOL    HW151915   8.571   0.870   4.797 -0.7224 -0.8909 -0.6854
13662SOL    HW251916   8.676   0.759   4.741  1.4045  0.8549 -0.2273
13663SOL     OW51917   2.731   8.189   4.000 -0.6736  0.1274 -0.1537
13663SOL    HW151918   2.679   8.268   3.970 -0.0674 -0.1394 -1.9741
13663SOL    HW251919   2.693   8.106   3.960  1.0391 -0.0865 -1.3956
13664SOL     OW51920   2.155   6.556   2.971 -0.1402  0.3675  0.5816
13664SOL    HW151921   2.075   6.496   2.979  0.1747  0.2331  3.2436
13664SOL    HW251922   2.236   6.507   3.004  0.3737  1.7727  1.4283
13665SOL     OW51923   3.383   2.258   4.211 -0.6248  0.4454  0.1044
13665SOL    HW151924   3.297   2.206   4.219 -1.4137  1.8265  0.8632
13665SOL    HW251925   3.456   2.208   4.256 -1.3460 -0.0715  0.7197
13666SOL     OW51926   4.591   4.219   0.598 -0.4143  0.3709  0.1579
13666SOL    HW151927   4.588   4.286   0.671  1.8348  1.3292 -0.5778
13666SOL    HW251928   4.678   4.170   0.601 -0.8871 -0.5757 -0.9916
13667SOL     OW51929   3.201   4.625   4.759 -0.3325  0.5609  0.3059
13667SOL    HW151930   3.188   4.690   4.834  2.1298  2.5230 -0.9271
13667SOL    HW251931   3.163   4.663   4.675 -1.5028 -0.8984  0.1400
13668SOL     OW51932   0.190   4.226   3.003 -0.0097  0.3424  0.2494
13668SOL    HW151933   0.136   4.148   3.035 -1.4138  0.8656 -0.8187
13668SOL    HW251934   0.182   4.301   3.068 -0.4368  0.3550  0.1861
13669SOL     OW51935   2.885   1.421   2.645 -0.3875 -0.2076  0.9321
13669SOL    HW151936   2.796   1.436   2.602  0.3034 -0.2532 -0.5675
13669SOL    HW251937   2.899   1.489   2.717 -1.1305  0.5760  0.3563
13670SOL     OW51938   2.596   6.972   2.986 -0.4486  0.4526  0.3586
13670SOL    HW151939   2.651   7.009   2.911  0.4094 -2.0546 -0.2875
13670SOL    HW251940   2.499   6.988   2.967 -0.1410  1.5295 -0.3414
13671SOL     OW51941   9.316   7.624   1.284  0.2336  0.0980  0.4916
13671SOL    HW151942   9.390   7.648   1.222 -0.0150 -0.0145  0.1468
13671SOL    HW251943   9.260   7.704   1.302 -0.7033 -0.2511 -0.8012
13672SOL     OW51944   1.316   3.293   5.317  0.2271 -0.5424  0.2666
13672SOL    HW151945   1.235   3.249   5.356 -0.9691  0.6579 -0.8326
13672SOL    HW251946   1.321   3.387   5.349  1.5876 -0.8139  0.8803
13673SOL     OW51947   0.125   3.165   4.488 -0.4461  0.0787 -0.5908
13673SOL    HW151948   0.187   3.087   4.475 -0.3487  0.0565 -0.0251
13673SOL    HW251949   0.178   3.250   4.492 -0.2781 -0.0935  1.4915
13674SOL     OW51950   6.949   1.843   4.036 -0.7384 -0.5814 -0.1506
13674SOL    HW151951   6.981   1.863   4.129 -0.0910 -1.2936 -0.2115
13674SOL    HW251952   6.931   1.929   3.988 -1.2116 -0.2088  0.6787
13675SOL     OW51953   5.426   1.233   0.876  0.5813  0.5851  0.4740
13675SOL    HW151954   5.346   1.270   0.828 -0.0649 -0.5635  0.6416
13675SOL    HW251955   5.479   1.308   0.915 -0.6602  1.3464  0.7346
13676SOL     OW51956   1.803   1.474   2.057  0.4811 -0.5721  0.6548
13676SOL    HW151957   1.834   1.531   1.981  2.2291 -0.9388  1.0812
13676SOL    HW251958   1.706   1.493   2.075  0.3091  0.2433 -0.9987
13677SOL     OW51959   6.559   9.719   4.373  0.0715 -0.3441 -0.0059
13677SOL    HW151960   6.584   9.623   4.391 -1.7070 -0.3801  2.4317
13677SOL    HW251961   6.465   9.723   4.340  0.2981  0.5403 -0.5458
13678SOL     OW51962   4.673   8.497   1.485 -0.0437 -0.1214  0.5970
13678SOL    HW151963   4.725   8.577   1.454 -1.7173  0.2223 -1.3298
13678SOL    HW251964   4.607   8.525   1.554 -0.8349  0.2054 -0.2957
13679SOL     OW51965   2.007   6.881   2.249  0.7706 -0.2645 -0.5450
13679SOL    HW151966   2.050   6.963   2.212 -0.5813  0.1083 -1.3525
13679SOL    HW251967   1.953   6.905   2.329 -0.5086 -0.1473 -1.4197
13680SOL     OW51968   8.342   0.498   0.152  0.3848 -0.1669 -0.2608
13680SOL    HW151969   8.307   0.584   0.116  0.7431 -0.1415 -0.5488
13680SOL    HW251970   8.281   0.465   0.224 -0.5352 -0.4189 -1.1445
13681SOL     OW51971   8.800   7.124   1.539 -0.6283 -0.0000 -0.0527
13681SOL    HW151972   8.702   7.118   1.517 -0.2812  1.2334 -2.0572
13681SOL    HW251973   8.844   7.187   1.476  0.9747  1.6134  2.5829
13682SOL     OW51974   9.650   9.311   4.869 -0.8120 -0.9857 -0.7798
13682SOL    HW151975   9.697   9.235   4.912  0.7627  0.3040 -0.1859
13682SOL    HW251976   9.706   9.394   4.875 -1.8221 -0.1124 -2.7509
13683SOL     OW51977   4.818   0.075   2.322  0.0358 -0.3748 -0.5191
13683SOL    HW151978   4.764   0.012   2.268  1.6179 -0.7737 -1.6703
13683SOL    HW251979   4.855   0.147   2.263  0.6737 -0.0451  0.2613
13684SOL     OW51980   4.295   6.307   1.652  0.2927  0.4624  0.4316
13684SOL    HW151981   4.346   6.314   1.566 -0.3283 -1.9871 -0.1647
13684SOL    HW251982   4.200   6.336   1.637 -0.4376 -2.1973 -0.3209
13685SOL     OW51983   3.782   6.230   1.044  0.3240  0.5530  0.4919
13685SOL    HW151984   3.818   6.137   1.057 -0.3209  0.4324  1.4658
13685SOL    HW251985   3.829   6.273   0.966 -0.7805 -1.3153 -1.2564
13686SOL     OW51986   4.642   8.264   2.805 -0.2541  0.2618 -0.7891
13686SOL    HW151987   4.547   8.262   2.773 -0.4836 -0.1868 -0.0917
13686SOL    HW251988   4.644   8.248   2.903  0.5918 -0.4666 -0.9197
13687SOL     OW51989   3.809   0.194   2.377  0.0241 -0.2147 -0.0949
13687SOL    HW151990   3.844   0.287   2.367 -0.0311 -0.2477 -0.6146
13687SOL    HW251991   3.763   0.185   2.465  1.4287 -0.2091  0.6452
13688SOL     OW51992   8.431   7.441   1.349  0.3165  0.6594  0.0543
13688SOL    HW151993   8.503   7.395   1.297  0.7222  1.0313  0.2819
13688SOL    HW251994   8.463   7.532   1.377  0.0107  0.5617  0.7353
13689SOL     OW51995   1.694   1.787   4.837 -0.1287  0.5467  0.1563
13689SOL    HW151996   1.752   1.859   4.876 -0.5372  0.7994  0.3030
13689SOL    HW251997   1.747   1.733   4.773 -0.0889  1.6499 -0.7653
13690SOL     OW51998   2.670   8.680   2.882  0.1508  0.2785 -0.5563
13690SOL    HW151999   2.659   8.689   2.783 -0.1993 -2.3648 -0.7792
13690SOL    HW252000   2.767   8.665   2.903 -0.2220 -2.8944 -0.8612
13691SOL     OW52001   8.500   0.761   5.392 -0.1206 -0.1566  0.1969
13691SOL    HW152002   8.512   0.856   5.420 -3.0044  0.5844 -0.8487
13691SOL    HW252003   8.514   0.753   5.293 -1.7507 -0.4100 -0.0311
13692SOL     OW52004   0.728   6.334   6.294 -0.1559  0.1556 -0.1108
13692SOL    HW152005   0.659   6.340   6.223  0.3149  1.2210 -0.4898
13692SOL    HW252006   0.783   6.252   6.281 -2.3589 -1.6030  1.1388
13693SOL     OW52007   6.210   1.075   2.135 -0.0854  0.4582  0.5030
13693SOL    HW152008   6.294   1.025   2.114 -1.2854 -0.6816 -1.7626
13693SOL    HW252009   6.134   1.011   2.139 -1.1186  1.6980  0.8311
13694SOL     OW52010   3.015   6.306   1.676  0.5477  0.2178 -0.4049
13694SOL    HW152011   2.916   6.291   1.677  0.7904 -1.6155 -1.2125
13694SOL    HW252012   3.061   6.225   1.639  2.3152  1.2747 -0.6198
13695SOL     OW52013   2.406   5.103   4.471 -0.4435 -0.4204  0.1848
13695SOL    HW152014   2.358   5.017   4.490  0.7935 -1.1053  0.3022
13695SOL    HW252015   2.361   5.150   4.395 -1.6346 -0.7635  0.6779
13696SOL     OW52016   7.027   6.705   4.110  0.3959 -0.0373  0.4822
13696SOL    HW152017   7.043   6.802   4.131  0.7997 -0.2967  1.3867
13696SOL    HW252018   6.928   6.688   4.106  0.2894 -0.1004  2.8001
13697SOL     OW52019   0.199   2.776   0.019  0.1494 -0.6564 -0.2508
13697SOL    HW152020   0.163   2.862   0.055  1.2760 -1.1504  2.1819
13697SOL    HW252021   0.299   2.782   0.011  0.0442 -1.0407 -2.0435
13698SOL     OW52022   3.408   3.110   1.830  0.3710  0.1071  0.7018
13698SOL    HW152023   3.438   3.149   1.917  0.6628 -1.2066  1.2056
13698SOL    HW252024   3.402   3.182   1.761  1.7433  0.8824  1.3813
13699SOL     OW52025   8.440   6.412   0.241  0.2575 -0.0685 -0.4477
13699SOL    HW152026   8.349   6.393   0.204  0.3870  0.9904 -1.3464
13699SOL    HW252027   8.509   6.376   0.178  0.4776 -1.8407  0.7595
13700SOL     OW52028   5.856   0.662   4.267  0.3390  0.3008 -0.1393
13700SOL    HW152029   5.933   0.705   4.312  1.5179 -1.9055  0.0457
13700SOL    HW252030   5.845   0.699   4.175  1.4215  0.8319 -0.0552
13701SOL     OW52031   2.946   3.993   4.240  0.2383  0.0706 -0.0156
13701SOL    HW152032   3.006   4.055   4.290  0.1468  0.9408 -0.9690
13701SOL    HW252033   3.000   3.940   4.175  0.1019  0.1714 -0.2085
13702SOL     OW52034   9.133   8.444   0.893 -0.1660 -0.4841  0.0195
13702SOL    HW152035   9.208   8.455   0.829 -0.5671 -0.6199 -0.4755
13702SOL    HW252036   9.118   8.530   0.942  1.2023 -0.8562  1.1040
13703SOL     OW52037   0.504   5.338   6.231  0.2566  0.5169 -0.4392
13703SOL    HW152038   0.467   5.274   6.164  0.5984  0.5978 -0.7062
13703SOL    HW252039   0.445   5.340   6.312 -0.2145  0.5032 -0.7831
13704SOL     OW52040   7.625   1.185   2.440 -0.3674 -0.4113  0.2030
13704SOL    HW152041   7.602   1.247   2.365 -1.4792 -0.5350  0.4318
13704SOL    HW252042   7.675   1.234   2.511 -2.1116  0.4647  0.8439
13705SOL     OW52043   9.628   1.336   1.031 -0.0000 -0.2838  0.5462
13705SOL    HW152044   9.645   1.240   1.052 -3.1398 -0.5444  2.1957
13705SOL    HW252045   9.556   1.371   1.091  0.1997  2.7520 -0.8925
13706SOL     OW52046   9.182   3.643   4.474 -0.2020  0.2647 -0.2327
13706SOL    HW152047   9.141   3.643   4.383 -3.0250 -0.0990  0.9813
13706SOL    HW252048   9.118   3.603   4.539  1.3253  1.5549  2.1228
13707SOL     OW52049   8.796   4.222   4.827  0.6523 -0.5302 -0.1943
13707SOL    HW152050   8.807   4.311   4.784 -0.1230 -0.7721 -0.9276
13707SOL    HW252051   8.817   4.228   4.924 -2.7630  1.2677  0.5335
13708SOL     OW52052   4.452   0.477   0.703  0.6964 -0.1594  0.3317
13708SOL    HW152053   4.455   0.460   0.605 -0.1012 -0.0091  0.2790
13708SOL    HW252054   4.369   0.527   0.726  0.5891 -0.7033  1.1658
13709SOL     OW52055   3.628   5.521   6.703  0.3411 -0.3390  0.1061
13709SOL    HW152056   3.689   5.509   6.625 -0.3940 -0.2159 -0.4909
13709SOL    HW252057   3.616   5.619   6.721 -0.9433 -0.3304 -0.7770
13710SOL     OW52058   9.249   6.367   3.949 -0.4766 -0.4251  0.4449
13710SOL    HW152059   9.273   6.319   3.865 -1.6619  0.6859 -0.5533
13710SOL    HW252060   9.168   6.324   3.990 -1.2586  0.4071 -0.2020
13711SOL     OW52061   8.511   0.733   5.122 -0.2465 -0.3905  0.1447
13711SOL    HW152062   8.424   0.684   5.131  0.0322 -0.8008  0.6324
13711SOL    HW252063   8.569   0.687   5.054 -1.0959  0.8893 -1.5063
13712SOL     OW52064   9.137   4.826   0.610  0.0618 -0.1503  0.4805
13712SOL    HW152065   9.084   4.911   0.608 -0.3712 -0.4450 -0.7655
13712SOL    HW252066   9.087   4.754   0.562  1.2077 -0.6577  0.0296
13713SOL     OW52067   9.202   3.610   2.246 -0.2502  0.5528  0.7901
13713SOL    HW152068   9.148   3.563   2.176  0.4209  1.0213 -0.0361
13713SOL    HW252069   9.175   3.706   2.250 -0.0654  0.5973  0.9596
13714SOL     OW52070   2.812   2.497   4.027  0.4553 -0.7557  0.2868
13714SOL    HW152071   2.842   2.479   4.121  1.2643 -0.9098  0.0022
13714SOL    HW252072   2.888   2.478   3.964  0.2671  0.4313 -0.3024
13715SOL     OW52073   0.747   3.312   4.021 -0.6800 -0.4881 -0.1563
13715SOL    HW152074   0.761   3.285   4.117 -1.1964 -1.9415 -0.4804
13715SOL    HW252075   0.666   3.370   4.014 -0.7449 -0.5277  0.2587
13716SOL     OW52076   0.929   6.551   4.675  0.2635 -0.0649 -0.4397
13716SOL    HW152077   0.908   6.586   4.766 -0.4146  1.2027 -1.0702
13716SOL    HW252078   0.978   6.464   4.683 -0.8874 -0.5883  1.1094
13717SOL     OW52079   1.682   6.891   0.269 -0.4156  0.2569 -0.4489
13717SOL    HW152080   1.643   6.858   0.183  0.0994  0.9673 -0.9597
13717SOL    HW252081   1.768   6.843   0.288 -1.9111 -1.9240  1.1067
13718SOL     OW52082   3.893   7.070   0.947  0.0067  0.4211  0.1561
13718SOL    HW152083   3.886   7.140   0.875 -2.6037  0.9886  0.9005
13718SOL    HW252084   3.893   7.115   1.036 -0.6154 -0.4830  0.6089
13719SOL     OW52085   3.924   5.992   1.101 -0.0835 -0.1957 -0.7826
13719SOL    HW152086   3.929   5.910   1.044 -2.3780 -1.2790  0.5362
13719SOL    HW252087   4.001   5.993   1.165 -0.9963 -2.2296  0.3833
13720SOL     OW52088   2.346   3.120   2.006 -0.0219 -0.0579  0.3048
13720SOL    HW152089   2.279   3.140   2.077 -0.5290 -0.9858  0.0975
13720SOL    HW252090   2.299   3.083   1.925  0.5085  1.2854 -0.6363
13721SOL     OW52091   8.761   3.694   4.186  0.7183 -0.0937  0.1039
13721SOL    HW152092   8.779   3.792   4.196 -0.4319 -0.0199  1.8192
13721SOL    HW252093   8.708   3.678   4.102  1.0234  0.7358 -0.2514
13722SOL     OW52094   9.772   3.610   4.676  0.5848 -0.1648 -0.2410
13722SOL    HW152095   9.843   3.550   4.715  1.3091  1.9824  1.8978
13722SOL    HW252096   9.809   3.702   4.665 -1.3428  0.5577 -0.8390
13723SOL     OW52097   3.394   9.213   2.619  0.2097 -0.0485  0.1508
13723SOL    HW152098   3.389   9.220   2.519 -2.2250  1.5086  0.3398
13723SOL    HW252099   3.463   9.276   2.653  0.1627  0.3422 -0.4609
13724SOL     OW52100   2.198   4.077   3.085  0.3103 -0.3342 -0.8109
13724SOL    HW152101   2.235   4.081   3.178 -0.9208  1.0204 -0.3720
13724SOL    HW252102   2.262   4.120   3.022  0.4936  0.0298 -0.3783
13725SOL     OW52103   2.215   4.931   2.453  0.2589  0.0487 -0.0733
13725SOL    HW152104   2.147   4.929   2.379 -1.2138  0.9723  1.2150
13725SOL    HW252105   2.219   4.841   2.497 -2.1292  0.6789  1.5609
13726SOL     OW52106   1.892   6.580   3.246 -0.0306 -0.3797  0.5215
13726SOL    HW152107   1.931   6.552   3.158  2.4526 -1.5590  1.9318
13726SOL    HW252108   1.857   6.499   3.294 -1.8706  0.3330  0.4141
13727SOL     OW52109   4.654   0.325   4.910 -0.0175  0.1145 -0.5534
13727SOL    HW152110   4.686   0.410   4.952  1.8621  0.3320 -2.3016
13727SOL    HW252111   4.607   0.345   4.824  0.6448 -0.6153 -1.0999
13728SOL     OW52112   7.470   9.179   4.621  0.3058 -0.3575  0.2787
13728SOL    HW152113   7.451   9.081   4.613 -2.2125  0.2633 -2.6126
13728SOL    HW252114   7.424   9.215   4.702 -0.5586 -1.1887  0.1754
13729SOL     OW52115   8.703   0.875   2.970  0.0949 -0.1918  0.3249
13729SOL    HW152116   8.792   0.863   3.013  0.0466  1.6582  0.9651
13729SOL    HW252117   8.649   0.943   3.020 -1.3235 -0.5954 -0.5961
13730SOL     OW52118   1.557   0.924   2.298 -0.2838 -0.7896  0.4443
13730SOL    HW152119   1.589   0.894   2.388  0.5823  1.6306  0.9821
13730SOL    HW252120   1.631   0.972   2.251 -1.2883 -0.4626 -0.8221
13731SOL     OW52121   0.589   7.582   2.097 -0.5947  0.3065  0.0764
13731SOL    HW152122   0.502   7.603   2.053  0.1006 -0.1807 -1.6127
13731SOL    HW252123   0.631   7.504   2.050  0.3930  0.0580  1.3557
13732SOL     OW52124   2.576   9.724   3.019  0.1239  0.5562  0.1412
13732SOL    HW152125   2.515   9.795   2.984  1.1071  0.8981 -0.9308
13732SOL    HW252126   2.671   9.750   3.000  0.5271 -0.6376  0.5073
13733SOL     OW52127   2.047   4.631   0.853 -0.8836 -0.3672  0.5576
13733SOL    HW152128   1.961   4.617   0.804 -0.7322 -0.1367  0.2222
13733SOL    HW252129   2.077   4.726   0.840  1.5048 -1.4677 -2.6927
13734SOL     OW52130   8.486   5.900   3.292  0.3341 -0.4445  0.1895
13734SOL    HW152131   8.529   5.861   3.374 -0.7526  0.8153  1.3726
13734SOL    HW252132   8.402   5.851   3.272  0.4754 -0.5951 -0.0354
13735SOL     OW52133   0.760   6.900   4.742 -0.2549  0.5946  0.2479
13735SOL    HW152134   0.711   6.957   4.807 -0.1797  0.1828  0.6717
13735SOL    HW252135   0.728   6.920   4.649 -0.3597  1.1828  0.4095
13736SOL     OW52136   1.956   6.968   0.375 -0.4301  0.7547 -0.3288
13736SOL    HW152137   1.914   6.877   0.373  0.2305  0.4563 -0.5424
13736SOL    HW252138   2.016   6.975   0.455  0.2631  0.6744 -0.8423
13737SOL     OW52139   5.801   0.481   4.813 -0.1709 -0.1209  0.4535
13737SOL    HW152140   5.761   0.503   4.724 -0.8522  2.2541  1.3126
13737SOL    HW252141   5.734   0.431   4.868 -0.0293 -0.8984 -0.0772
13738SOL     OW52142   7.844   2.626   6.700  0.5295 -0.4832  0.7908
13738SOL    HW152143   7.813   2.534   6.676 -0.2531 -0.5852  2.1430
13738SOL    HW252144   7.796   2.657   6.782 -0.1367  1.6353 -0.3602
13739SOL     OW52145   9.181   4.089   0.296 -0.0448  0.2463 -0.6794
13739SOL    HW152146   9.215   3.997   0.316  1.5079  0.9026 -0.2851
13739SOL    HW252147   9.167   4.099   0.198  1.2235  0.0885 -0.8777
13740SOL     OW52148   2.680   7.296   0.166 -0.1266  0.4056  0.3397
13740SOL    HW152149   2.697   7.395   0.160 -0.0894  0.3310 -0.8218
13740SOL    HW252150   2.762   7.247   0.136 -0.9255  0.0334 -1.2518
13741SOL     OW52151   9.736   9.050   1.970 -0.1199 -0.3356 -0.0422
13741SOL    HW152152   9.806   9.035   2.039 -1.0899  0.7058  1.1908
13741SOL    HW252153   9.763   9.124   1.909  0.9729 -1.6006 -1.1053
13742SOL     OW52154   8.645   8.295   5.180  0.3849 -0.2965  0.1189
13742SOL    HW152155   8.671   8.199   5.169 -2.4428 -1.2263  0.9740
13742SOL    HW252156   8.716   8.343   5.232  2.8471 -1.3685 -2.1400
13743SOL     OW52157   4.560   1.499   3.667  0.5232 -0.1575 -0.4699
13743SOL    HW152158   4.501   1.577   3.646 -0.4654 -0.6967  0.2648
13743SOL    HW252159   4.613   1.519   3.750 -1.0596 -0.9501  0.7707
13744SOL     OW52160   7.264   2.367   0.955 -0.0070 -0.1359 -0.3280
13744SOL    HW152161   7.328   2.398   0.885 -1.2247  0.4180 -1.1951
13744SOL    HW252162   7.199   2.440   0.976 -1.7255 -1.4458 -1.0337
13745SOL     OW52163   4.473   3.089   4.554  0.1795 -0.3544 -0.0781
13745SOL    HW152164   4.555   3.146   4.565  0.5920 -0.9968  0.2403
13745SOL    HW252165   4.401   3.142   4.510  0.9182  0.0824 -0.7751
13746SOL     OW52166   0.684   6.648   5.752 -0.1905 -0.6995 -0.3297
13746SOL    HW152167   0.658   6.573   5.691 -3.2335 -0.0642  0.1213
13746SOL    HW252168   0.661   6.735   5.708 -2.8007 -0.2493  1.8515
13747SOL     OW52169   2.049   8.861   5.084 -0.1916 -0.0259  0.8545
13747SOL    HW152170   2.095   8.845   5.171  1.0195 -0.1028  0.1997
13747SOL    HW252171   2.097   8.812   5.011  0.1787  1.9316 -0.2381
13748SOL     OW52172   8.488   0.525   4.710 -0.1658 -0.4077  0.3201
13748SOL    HW152173   8.516   0.485   4.623  0.5215 -2.7590  1.5665
13748SOL    HW252174   8.532   0.614   4.722  0.3598 -0.4314 -1.3638
13749SOL     OW52175   7.891   9.571   6.588  0.4956  0.0036 -0.5494
13749SOL    HW152176   7.814   9.583   6.525  0.2856 -0.3055 -0.3490
13749SOL    HW252177   7.898   9.651   6.647 -0.1830 -0.3307 -0.0095
13750SOL     OW52178   0.245   7.602   3.386  0.1422 -0.2217  0.2579
13750SOL    HW152179   0.189   7.673   3.429 -0.0028 -0.0812 -0.1655
13750SOL    HW252180   0.185   7.535   3.343  0.2300 -1.4844  2.0551
13751SOL     OW52181   7.847   0.677   1.852  0.3222  0.1117  0.1881
13751SOL    HW152182   7.838   0.674   1.952 -1.5942  1.1519  0.0487
13751SOL    HW252183   7.810   0.592   1.813  1.4210 -0.4632  0.3691
13752SOL     OW52184   3.314   4.480   3.677  0.2593 -1.1863 -0.3017
13752SOL    HW152185   3.390   4.429   3.715  0.9858 -0.2030 -0.4163
13752SOL    HW252186   3.342   4.526   3.593 -0.9460 -2.2114 -1.2818
13753SOL     OW52187   1.358   7.218   4.616  0.2342  0.2282 -0.1021
13753SOL    HW152188   1.365   7.316   4.603  0.8716  0.3425  1.0663
13753SOL    HW252189   1.435   7.185   4.670  0.0278 -0.9139 -0.4719
13754SOL     OW52190   8.515   8.997   1.340  0.4749  0.0382 -0.4941
13754SOL    HW152191   8.544   9.093   1.340  0.4170  0.0586 -0.8918
13754SOL    HW252192   8.449   8.983   1.266  0.0722 -0.1866 -0.0960
13755SOL     OW52193   0.082   2.745   0.282 -0.0172 -0.2008  0.1505
13755SOL    HW152194  -0.012   2.712   0.277  0.0084 -0.1733 -0.5805
13755SOL    HW252195   0.127   2.730   0.194  0.7751 -0.5628  0.6099
13756SOL     OW52196   2.904   0.250   3.409 -0.4662  0.5035 -0.1656
13756SOL    HW152197   2.957   0.237   3.493  1.4313  1.2787 -1.2390
13756SOL    HW252198   2.838   0.324   3.423 -0.6605  0.1506  0.8658
13757SOL     OW52199   0.200   9.110   0.536  0.6645  0.0254  0.1657
13757SOL    HW152200   0.157   9.145   0.619  0.4496  0.0680  0.0374
13757SOL    HW252201   0.256   9.182   0.494 -0.8222  0.6433 -0.8115
13758SOL     OW52202   9.158   5.626   5.889  0.1992 -0.0264 -0.1687
13758SOL    HW152203   9.217   5.703   5.913 -0.9612  0.2935  1.6767
13758SOL    HW252204   9.164   5.610   5.790  0.6796  2.2305 -0.5376
13759SOL     OW52205   0.516   9.372   4.222  0.2119 -0.6151 -0.5248
13759SOL    HW152206   0.470   9.305   4.280 -0.2713 -0.5516 -0.8278
13759SOL    HW252207   0.614   9.372   4.241 -0.0514  0.0300  0.9276
13760SOL     OW52208   4.043   5.285   2.407 -0.3559 -0.0834 -0.4249
13760SOL    HW152209   3.946   5.263   2.413 -0.2984 -0.3715 -0.5730
13760SOL    HW252210   4.097   5.201   2.409 -0.0973  0.0900 -0.0826
13761SOL     OW52211   8.780   4.605   0.041  0.0933  0.2487 -0.3339
13761SOL    HW152212   8.726   4.676   0.085  0.5935  1.5992 -1.8426
13761SOL    HW252213   8.793   4.529   0.104  1.2725  2.3452  2.0431
13762SOL     OW52214   1.746   7.662   3.321 -0.0047  0.1155 -0.4488
13762SOL    HW152215   1.795   7.616   3.246  1.2959  1.5145 -0.4719
13762SOL    HW252216   1.812   7.693   3.389 -0.7680  2.6937 -0.8368
13763SOL     OW52217   2.449   1.957   1.110  0.0937 -0.1796 -0.0026
13763SOL    HW152218   2.538   2.004   1.104 -0.3924  0.7999  0.4509
13763SOL    HW252219   2.428   1.937   1.205 -0.8161  0.8283  0.0116
13764SOL     OW52220   1.876   8.408   3.315  0.4331 -0.6140  0.1064
13764SOL    HW152221   1.911   8.330   3.262  1.7234  0.0933 -0.1049
13764SOL    HW252222   1.841   8.478   3.253  1.8973  0.1930  0.1643
13765SOL     OW52223   2.903   2.458   2.173  0.3688 -0.1694  0.0369
13765SOL    HW152224   2.852   2.442   2.257  1.9270 -1.7638  0.7127
13765SOL    HW252225   2.963   2.380   2.155  0.3003  0.2797 -2.3938
13766SOL     OW52226   4.306   4.715   0.847  0.3755 -0.1249  0.1868
13766SOL    HW152227   4.302   4.617   0.863  2.2773 -0.2497  0.0417
13766SOL    HW252228   4.217   4.756   0.867 -0.2017 -1.7534  1.0335
13767SOL     OW52229   2.069   5.474   3.319  0.3589  0.0119 -0.5494
13767SOL    HW152230   2.148   5.461   3.378 -0.0006 -1.8373 -0.4232
13767SOL    HW252231   1.996   5.519   3.371  0.8945  0.5969 -0.3018
13768SOL     OW52232   5.485   1.145   1.134  0.6613 -0.6959  0.1539
13768SOL    HW152233   5.549   1.069   1.126 -0.6477 -1.7199 -0.6239
13768SOL    HW252234   5.451   1.171   1.044 -0.8382 -0.8729  0.6477
13769SOL     OW52235   0.214   2.479   3.261 -0.7524  0.1844 -0.0932
13769SOL    HW152236   0.302   2.506   3.299  0.4665 -1.9664 -1.2904
13769SOL    HW252237   0.160   2.431   3.330  0.5198 -1.6797 -0.3457
13770SOL     OW52238   8.193   3.895   3.738 -0.0536  0.0599  0.0537
13770SOL    HW152239   8.178   3.911   3.836  2.2121 -0.8798  0.5736
13770SOL    HW252240   8.222   3.980   3.694 -0.6557  0.3817  0.2780
13771SOL     OW52241   3.123   4.124   5.603  0.3357 -0.2731  0.8489
13771SOL    HW152242   3.184   4.120   5.524 -0.1803 -0.4806  0.4548
13771SOL    HW252243   3.053   4.052   5.595 -0.5006  0.5251  0.8341
13772SOL     OW52244   1.447   8.789   3.346  0.1218  0.2773 -0.3032
13772SOL    HW152245   1.398   8.713   3.302  0.7925  0.1739 -0.8721
13772SOL    HW252246   1.388   8.870   3.348  0.1849  0.3560 -1.6258
13773SOL     OW52247   4.787   7.300   4.697  0.5051 -0.1784 -0.3854
13773SOL    HW152248   4.875   7.256   4.679  1.3040  1.7835 -1.3802
13773SOL    HW252249   4.722   7.276   4.626 -0.3323 -3.0192  1.2547
13774SOL     OW52250   0.487   2.773   3.395  0.6169  0.2355  0.3436
13774SOL    HW152251   0.395   2.778   3.435  0.1202  0.7937 -0.8263
13774SOL    HW252252   0.503   2.681   3.361  0.4058  0.1881  0.3712
13775SOL     OW52253   1.088   9.169   3.229 -0.1955  0.3398  0.7392
13775SOL    HW152254   1.180   9.146   3.260 -0.4279  1.3753  2.2996
13775SOL    HW252255   1.047   9.235   3.293 -2.0538 -0.1931  0.1397
13776SOL     OW52256   2.894   7.170   0.123 -0.5353  0.3171  0.1181
13776SOL    HW152257   2.895   7.070   0.132 -1.3730  0.0992 -2.0088
13776SOL    HW252258   2.986   7.206   0.141 -0.3981 -0.7426  1.6418
13777SOL     OW52259   9.054   7.036   3.750 -0.8310 -0.2278 -0.4495
13777SOL    HW152260   9.077   6.959   3.689 -1.3163 -1.7414  1.2268
13777SOL    HW252261   8.973   7.013   3.803 -1.5108  1.8448 -0.5671
13778SOL     OW52262   0.299   8.757   2.819 -0.1980  0.2048  0.5501
13778SOL    HW152263   0.346   8.762   2.731 -1.0695  1.9267  0.1801
13778SOL    HW252264   0.355   8.802   2.889  0.1665 -0.5474  0.7502
13779SOL     OW52265   3.354   5.706   3.337  0.4423  0.2118  0.1438
13779SOL    HW152266   3.415   5.785   3.338  0.0501  0.5086  0.7166
13779SOL    HW252267   3.260   5.736   3.321  0.1054  0.0059  1.6360
13780SOL     OW52268   8.671   1.682   2.845  0.0583 -0.2373  0.5480
13780SOL    HW152269   8.675   1.771   2.889  0.5021 -1.0202  2.1345
13780SOL    HW252270   8.658   1.611   2.914 -2.7024 -1.2116 -0.9014
13781SOL     OW52271   0.157   1.241   3.857  0.0394 -0.3097 -0.0159
13781SOL    HW152272   0.222   1.295   3.804  1.7777  0.8165  3.0945
13781SOL    HW252273   0.175   1.143   3.842  1.6804 -0.0061 -0.1443
13782SOL     OW52274   2.264   2.572   1.666  0.3420  0.5743 -0.4706
13782SOL    HW152275   2.219   2.626   1.595 -0.5220 -0.2955 -0.5897
13782SOL    HW252276   2.317   2.499   1.623  1.7991  1.5309 -0.3263
13783SOL     OW52277   9.065   2.719   3.694  0.3967  0.4341  0.2200
13783SOL    HW152278   9.150   2.676   3.724 -0.0936 -0.8315 -0.1549
13783SOL    HW252279   9.049   2.697   3.597 -0.2239  0.8662  0.2224
13784SOL     OW52280   0.059   9.064   2.471  0.2890  0.2338  0.2433
13784SOL    HW152281  -0.003   9.002   2.517 -0.8084  1.0222 -0.1452
13784SOL    HW252282   0.138   9.013   2.436  0.1490 -0.6783  1.2283
13785SOL     OW52283   7.340   0.283   3.441 -0.4581  0.2022 -0.2896
13785SOL    HW152284   7.252   0.307   3.481 -0.2814  2.6477 -1.2522
13785SOL    HW252285   7.414   0.325   3.495 -0.0453  0.4435 -1.0273
13786SOL     OW52286   9.351   9.312   4.761 -0.2514  0.2543 -0.6848
13786SOL    HW152287   9.341   9.324   4.663  0.5567 -0.5194 -0.8747
13786SOL    HW252288   9.428   9.367   4.793  1.3163 -1.6870 -0.9892
13787SOL     OW52289   4.424   6.162   3.739  0.0523  0.5271 -0.2658
13787SOL    HW152290   4.355   6.128   3.676  0.9696  1.0920 -1.5840
13787SOL    HW252291   4.432   6.098   3.816  1.2957 -1.9710 -2.3801
13788SOL     OW52292   0.697   2.822   0.306  0.2478  0.1056  0.3217
13788SOL    HW152293   0.735   2.759   0.374 -1.0164 -1.3741 -0.3052
13788SOL    HW252294   0.761   2.833   0.230  1.0191  0.5829  1.0417
13789SOL     OW52295   1.626   4.817   1.725  0.2398  0.4468 -0.0652
13789SOL    HW152296   1.614   4.748   1.654  1.9671  0.7573 -0.6700
13789SOL    HW252297   1.541   4.868   1.737 -0.9384 -1.5142  0.1197
13790SOL     OW52298   2.950   5.677   4.442 -0.6560 -0.0385 -0.2795
13790SOL    HW152299   2.858   5.646   4.465 -0.0415 -1.4779  0.3188
13790SOL    HW252300   3.017   5.624   4.493  0.5972 -0.5850 -2.3976
13791SOL     OW52301   6.051   8.527   3.573 -0.1590 -0.4722  0.7043
13791SOL    HW152302   6.036   8.611   3.625  2.1177  0.8735 -0.7041
13791SOL    HW252303   5.973   8.465   3.586 -1.8096  1.7738  1.9036
13792SOL     OW52304   3.176   4.719   2.333 -0.4684  0.7307  0.2103
13792SOL    HW152305   3.260   4.680   2.295  0.4523  1.7208  1.2192
13792SOL    HW252306   3.198   4.794   2.395 -2.2154  3.4173 -2.2680
13793SOL     OW52307   7.126   0.804   5.552 -0.5963 -0.3031 -0.1343
13793SOL    HW152308   7.137   0.798   5.453  1.0880 -1.3205  0.0839
13793SOL    HW252309   7.173   0.885   5.587 -0.3199 -0.4899 -0.0659
13794SOL     OW52310   5.683   7.951   1.962  0.4333  0.2776  0.0238
13794SOL    HW152311   5.622   7.943   2.041  1.5561 -0.5785  0.8215
13794SOL    HW252312   5.716   7.861   1.937  0.6176  0.6308 -1.0091
13795SOL     OW52313   6.188   0.604   0.817 -0.0200 -0.0942  0.1256
13795SOL    HW152314   6.265   0.637   0.762 -1.3177  0.9116 -1.1047
13795SOL    HW252315   6.164   0.511   0.787 -2.7973  1.6188 -3.3299
13796SOL     OW52316   9.764   6.753   4.670  0.0283 -0.2037  0.0503
13796SOL    HW152317   9.839   6.729   4.732  1.2067 -0.0038 -1.2735
13796SOL    HW252318   9.678   6.749   4.719  1.0162  0.6986  1.9083
13797SOL     OW52319   1.839   1.040   1.197 -0.0919  0.8605 -0.2034
13797SOL    HW152320   1.870   1.087   1.280  0.5461  0.3159 -0.1292
13797SOL    HW252321   1.839   0.941   1.213  0.7615  0.7063 -1.0988
13798SOL     OW52322   2.264   1.028   3.689 -0.2454  0.5433  0.0929
13798SOL    HW152323   2.308   1.002   3.775  0.9350  2.0562 -0.0256
13798SOL    HW252324   2.333   1.043   3.619 -1.1677 -0.1003 -0.9677
13799SOL     OW52325   7.038   9.920   4.737  0.2352 -0.0753  0.3955
13799SOL    HW152326   6.953   9.930   4.685  1.5328  1.2183 -1.4972
13799SOL    HW252327   7.055   9.822   4.753 -1.2616 -0.3775  0.2536
13800SOL     OW52328   0.509   0.015   3.669  0.5306 -1.0541  0.2198
13800SOL    HW152329   0.504   0.083   3.743 -0.6998 -1.0795  0.1623
13800SOL    HW252330   0.430  -0.045   3.674  0.5870 -1.2244 -0.9680
13801SOL     OW52331   2.436   3.445   0.363 -0.4289  0.4460 -0.4784
13801SOL    HW152332   2.466   3.527   0.413 -0.2579  0.0220  0.1290
13801SOL    HW252333   2.469   3.449   0.269  0.3152  0.6694 -0.2136
13802SOL     OW52334   1.522   7.092   4.440  0.1562  0.4376  0.2180
13802SOL    HW152335   1.565   7.165   4.387 -0.9769  0.5828 -0.5197
13802SOL    HW252336   1.457   7.130   4.505  1.1379  0.2187  1.3529
13803SOL     OW52337   6.006   2.159   3.769 -1.0418 -0.5475 -0.2380
13803SOL    HW152338   5.914   2.166   3.807 -0.4229  0.8903  1.0493
13803SOL    HW252339   6.003   2.173   3.670 -2.1167  0.2089 -0.1010
13804SOL     OW52340   2.068   4.998   2.219  0.2574  0.2527  0.2129
13804SOL    HW152341   2.109   5.089   2.226  0.2651  0.3414 -0.9734
13804SOL    HW252342   1.984   5.002   2.165 -0.9056 -0.0790  1.9646
13805SOL     OW52343   8.636   0.679   2.696  0.1065 -0.1743 -0.1070
13805SOL    HW152344   8.651   0.668   2.794  0.9343 -2.4936 -0.4644
13805SOL    HW252345   8.690   0.611   2.646 -0.4632  0.8418 -2.1650
13806SOL     OW52346   2.963   3.076   4.341  0.0203 -0.4248  0.0733
13806SOL    HW152347   2.920   3.153   4.294 -2.4483 -1.3540  0.7638
13806SOL    HW252348   2.896   3.029   4.397  2.0169 -1.7610  1.4186
13807SOL     OW52349   5.867   7.484   4.466  0.2359 -0.4046  0.6630
13807SOL    HW152350   5.831   7.561   4.518 -2.3648 -0.2168 -1.2744
13807SOL    HW252351   5.804   7.406   4.475  1.4579 -1.4403  0.4500
13808SOL     OW52352   2.377   6.909   1.773 -0.4855 -0.0523  0.0777
13808SOL    HW152353   2.386   6.932   1.870 -1.1492  0.9031 -0.0773
13808SOL    HW252354   2.466   6.920   1.728 -0.1997 -0.3866  0.5560
13809SOL     OW52355   4.315   5.720   1.719 -0.2648  0.2969 -0.0538
13809SOL    HW152356   4.331   5.624   1.694  1.7383  0.5700  0.0904
13809SOL    HW252357   4.262   5.723   1.804  0.2016 -0.7026  0.2834
13810SOL     OW52358   2.759   9.001   1.831  0.0858  0.2545  0.0016
13810SOL    HW152359   2.680   9.062   1.823  0.0833  0.3889  0.9647
13810SOL    HW252360   2.727   8.907   1.843  0.0452  0.4184  1.3006
13811SOL     OW52361   0.738   0.866   1.958 -0.0669 -0.7148 -0.0562
13811SOL    HW152362   0.792   0.950   1.961  0.5854 -1.1592  1.0418
13811SOL    HW252363   0.665   0.876   1.890  0.0994  0.6775 -0.0575
13812SOL     OW52364   8.307   0.732   2.683 -0.0476  0.0895 -0.3057
13812SOL    HW152365   8.339   0.744   2.777 -0.9098  1.0800 -0.1279
13812SOL    HW252366   8.360   0.660   2.639 -0.4380 -1.2305  1.3210
13813SOL     OW52367   9.861   6.972   4.527  0.1886  0.3330  0.3765
13813SOL    HW152368   9.941   6.925   4.490 -1.2956 -2.0735  0.1004
13813SOL    HW252369   9.799   6.905   4.568 -1.8258  2.1196  0.3585
13814SOL     OW52370   9.165   3.552   6.608 -0.2357  0.0977 -0.2078
13814SOL    HW152371   9.194   3.457   6.618 -0.7483 -0.2672 -2.0006
13814SOL    HW252372   9.076   3.565   6.652 -1.0215 -0.7241 -1.4997
13815SOL     OW52373   4.323   0.545   4.155  0.0446 -0.3040  0.4553
13815SOL    HW152374   4.234   0.591   4.161  0.2576  0.1571  0.1050
13815SOL    HW252375   4.369   0.548   4.244 -0.8701 -1.7349  1.0126
13816SOL     OW52376   2.957   4.381   1.605  0.0779 -0.3426  0.3233
13816SOL    HW152377   2.923   4.433   1.527 -0.2742 -0.2993  0.5039
13816SOL    HW252378   2.947   4.283   1.586  0.6270 -0.3430  0.0340
13817SOL     OW52379   4.836   5.883   2.410 -0.2454 -0.2656  0.1618
13817SOL    HW152380   4.837   5.982   2.399  1.1741 -0.4955 -2.1458
13817SOL    HW252381   4.744   5.848   2.394 -1.0769  0.7932  2.4381
13818SOL     OW52382   1.259   1.455   3.937  0.1371  0.4042  0.1233
13818SOL    HW152383   1.332   1.391   3.957 -1.7678 -1.4293  1.4561
13818SOL    HW252384   1.247   1.519   4.013 -0.7373 -0.3735  0.6470
13819SOL     OW52385   1.066   1.334   2.249 -0.8442 -0.2430  0.2702
13819SOL    HW152386   1.107   1.357   2.338 -1.7606 -2.0342  1.1881
13819SOL    HW252387   0.969   1.360   2.250 -0.9811 -0.7418 -0.0225
13820SOL     OW52388   5.356   8.874   2.556  0.6833 -0.1708  0.2836
13820SOL    HW152389   5.311   8.938   2.618  1.1580  0.7172 -0.2792
13820SOL    HW252390   5.352   8.910   2.463  3.2296  0.3074  0.3319
13821SOL     OW52391   1.425   7.123   0.967  0.5027  0.5723  0.4930
13821SOL    HW152392   1.507   7.161   0.924  0.5690 -0.2814 -0.1519
13821SOL    HW252393   1.415   7.162   1.058 -0.0642  2.9910 -0.5624
13822SOL     OW52394   8.936   8.306   2.731  0.1814 -0.4315 -0.3265
13822SOL    HW152395   8.918   8.303   2.633 -0.1413  0.0740 -0.2877
13822SOL    HW252396   8.851   8.287   2.781  0.2017 -0.0575 -0.1462
13823SOL     OW52397   1.241   8.950   0.956  0.3569  0.2491  0.0590
13823SOL    HW152398   1.238   8.857   0.918  0.3435 -0.1937  1.1186
13823SOL    HW252399   1.157   8.967   1.007  0.7978  0.4648  0.7246
13824SOL     OW52400   8.949   5.347   6.407  0.6884  0.4430  0.2006
13824SOL    HW152401   8.888   5.421   6.378  2.0833  1.3915 -0.3665
13824SOL    HW252402   9.027   5.386   6.455  1.2074 -0.7046  0.2927
13825SOL     OW52403   0.528   4.912   1.997  0.0036  0.2119  0.1988
13825SOL    HW152404   0.496   4.824   2.031  1.4395  0.3667  2.0266
13825SOL    HW252405   0.453   4.959   1.950 -1.7964 -0.4069  2.3825
13826SOL     OW52406   2.842   1.682   4.399  0.3904 -0.4620 -0.2224
13826SOL    HW152407   2.797   1.742   4.466  2.4527  2.2132 -1.1585
13826SOL    HW252408   2.788   1.678   4.315 -0.5836 -1.2771  0.4272
13827SOL     OW52409   7.915   6.572   5.148  0.6141 -0.4937  0.1284
13827SOL    HW152410   7.835   6.560   5.090  0.4689 -0.6659  0.3640
13827SOL    HW252411   7.970   6.488   5.147  0.4922 -0.5768  0.4211
13828SOL     OW52412   2.123   7.429   0.187 -0.0393 -0.2745  0.1879
13828SOL    HW152413   2.179   7.508   0.164 -0.5136  0.3541  1.1205
13828SOL    HW252414   2.181   7.358   0.227  0.1058  0.3915  1.1950
13829SOL     OW52415   0.979   0.895   2.754  0.5917  0.1551 -0.2731
13829SOL    HW152416   0.977   0.990   2.722  0.1379  0.8699  1.8272
13829SOL    HW252417   1.003   0.893   2.851  0.0976 -1.8479 -0.1782
13830SOL     OW52418   6.838   0.201   3.285  0.3165  0.5268  0.4396
13830SOL    HW152419   6.914   0.142   3.259  0.3196  0.0281  1.5493
13830SOL    HW252420   6.752   0.162   3.252 -0.0102 -1.7309  3.7836
13831SOL     OW52421   1.760   4.075   5.332 -0.0031  0.5332 -0.1370
13831SOL    HW152422   1.765   3.976   5.315  1.5848  0.6844 -0.5339
13831SOL    HW252423   1.822   4.123   5.270 -0.1955  1.7247  0.5867
13832SOL     OW52424   3.166   9.349   4.392 -0.2956 -0.1062  0.2494
13832SOL    HW152425   3.196   9.374   4.300  0.5345 -0.7425  0.3375
13832SOL    HW252426   3.243   9.359   4.456 -1.0417  0.9562  0.9938
13833SOL     OW52427   8.932   0.136   0.995  0.5092  0.5406 -0.2645
13833SOL    HW152428   8.934   0.069   1.069  0.4094 -0.7399 -1.4036
13833SOL    HW252429   8.951   0.227   1.032  0.0515 -0.0187  1.3936
13834SOL     OW52430   4.932   5.547   1.945 -0.2270 -0.1630  0.4541
13834SOL    HW152431   4.937   5.642   1.975 -0.0876  0.4269 -1.3769
13834SOL    HW252432   4.991   5.490   2.003  1.6236  1.2790  0.0388
13835SOL     OW52433   0.557   9.034   4.659  0.5041  0.3971 -0.1230
13835SOL    HW152434   0.514   9.123   4.641  0.0921  0.2372  0.0761
13835SOL    HW252435   0.595   9.034   4.751  0.5296  0.3746 -0.1336
13836SOL     OW52436   0.350   1.810   4.425 -0.6498  0.3769 -0.2908
13836SOL    HW152437   0.411   1.787   4.501  1.3630  0.6056 -1.8101
13836SOL    HW252438   0.286   1.735   4.410 -0.3959 -0.1029  0.9678
13837SOL     OW52439   4.837   9.133   2.102 -0.0581  0.3900  0.7732
13837SOL    HW152440   4.766   9.074   2.064  0.5599 -0.0945  0.3612
13837SOL    HW252441   4.825   9.226   2.066 -1.0004  0.5088  1.3847
13838SOL     OW52442   8.913   5.579   2.848 -0.2722  0.1611 -0.5514
13838SOL    HW152443   8.824   5.624   2.853 -0.0132  0.6667 -0.5096
13838SOL    HW252444   8.906   5.488   2.890 -0.8400  0.0799 -0.8060
13839SOL     OW52445   1.031   2.497   2.467 -0.0042 -0.5469  0.0833
13839SOL    HW152446   0.952   2.436   2.464  0.2479 -0.8452 -0.4745
13839SOL    HW252447   1.020   2.568   2.397 -0.1210 -0.1567  0.4868
13840SOL     OW52448   1.685   3.838   4.237  0.0504  0.4470  0.0145
13840SOL    HW152449   1.635   3.802   4.315  0.6120  0.3091  0.3177
13840SOL    HW252450   1.776   3.868   4.267  0.5633 -0.3311 -0.7310
13841SOL     OW52451   2.372   2.264   2.560 -0.3528 -0.0655 -0.8852
13841SOL    HW152452   2.288   2.255   2.507  0.1015  1.1040 -1.8452
13841SOL    HW252453   2.450   2.240   2.502  0.1080  0.7507 -0.6150
13842SOL     OW52454   5.063   9.195   4.194  0.0005 -0.2104  0.2438
13842SOL    HW152455   5.067   9.162   4.100  0.1672  1.2792 -0.2693
13842SOL    HW252456   5.147   9.245   4.216 -0.3945  0.1561  0.9307
13843SOL     OW52457   9.145   0.775   1.055 -0.3952  0.3252 -1.0438
13843SOL    HW152458   9.060   0.734   1.023 -0.9780 -0.4497  1.4232
13843SOL    HW252459   9.153   0.764   1.154  2.3978  0.7181 -1.1697
13844SOL     OW52460   6.799   1.597   0.927 -0.0722  0.0917 -0.0118
13844SOL    HW152461   6.831   1.502   0.925 -1.5513 -0.4261  0.0241
13844SOL    HW252462   6.791   1.631   0.833  1.4441  0.5380  0.0068
13845SOL     OW52463   2.630   4.900   5.073 -0.3559 -0.0359 -0.3776
13845SOL    HW152464   2.618   4.839   5.151 -1.6839  1.2007  0.4125
13845SOL    HW252465   2.653   4.992   5.105 -0.5385  0.3947 -1.4551
13846SOL     OW52466   8.389   1.337   1.003 -0.3531  0.5140 -0.2525
13846SOL    HW152467   8.315   1.404   1.013 -1.1268 -0.8174  4.1010
13846SOL    HW252468   8.477   1.382   1.012 -0.7378  1.4831 -1.2262
13847SOL     OW52469   9.924   1.452   1.112  0.2240 -0.1056  0.2834
13847SOL    HW152470   9.925   1.507   1.195  0.9641  0.7630 -0.2849
13847SOL    HW252471   9.831   1.447   1.076  0.4874  2.7035 -0.8980
13848SOL     OW52472   8.703   6.749   2.128  0.0109 -0.3911 -0.1412
13848SOL    HW152473   8.690   6.802   2.212  1.0746  2.2716 -1.6097
13848SOL    HW252474   8.790   6.700   2.132 -0.8459 -1.8893  1.0914
13849SOL     OW52475   0.494   6.846   5.941 -0.0774 -0.1234  0.0495
13849SOL    HW152476   0.548   6.766   5.916  0.4701  0.5752 -1.0335
13849SOL    HW252477   0.488   6.852   6.041 -1.1504 -2.1820  0.1362
13850SOL     OW52478   8.094   5.644   3.841  0.0738  0.3636 -0.4184
13850SOL    HW152479   8.053   5.732   3.818 -2.8375 -0.4894  1.2376
13850SOL    HW252480   8.053   5.572   3.785  0.2409 -0.3216  0.3226
13851SOL     OW52481   0.406   8.825   4.320  0.1263  0.3833 -0.7554
13851SOL    HW152482   0.382   8.874   4.236 -1.1030  0.4603 -0.3609
13851SOL    HW252483   0.407   8.727   4.303  2.0747  0.4916 -1.4131
13852SOL     OW52484   7.814   1.162   5.385 -0.4455 -0.2974  0.0896
13852SOL    HW152485   7.773   1.071   5.376  0.5795 -0.6686 -0.8879
13852SOL    HW252486   7.841   1.196   5.295  0.9384  0.1518  0.6613
13853SOL     OW52487   9.790   5.767   2.202 -0.0087 -0.6035 -0.5175
13853SOL    HW152488   9.861   5.800   2.264 -0.0720 -0.7476 -0.3670
13853SOL    HW252489   9.741   5.844   2.162 -0.4419 -0.5232  0.1637
13854SOL     OW52490   1.991   6.075   3.620 -0.3666 -0.2578 -0.7195
13854SOL    HW152491   2.041   6.150   3.578 -0.3790 -0.4213 -1.0283
13854SOL    HW252492   2.055   6.004   3.650 -0.2974  0.1556  0.1525
13855SOL     OW52493   0.930   6.448   3.910  0.2451 -0.2965 -0.7789
13855SOL    HW152494   0.994   6.525   3.915  1.5232 -1.2351 -2.1265
13855SOL    HW252495   0.982   6.364   3.895 -1.2056 -1.3122 -0.1711
13856SOL     OW52496   1.464   5.382   3.115 -0.5291 -0.2759  0.3120
13856SOL    HW152497   1.408   5.436   3.052  0.6300 -0.4789 -0.9323
13856SOL    HW252498   1.504   5.305   3.066 -1.3541 -1.7209  1.8353
13857SOL     OW52499   5.265   1.103   3.081 -0.0628 -0.3145  0.2134
13857SOL    HW152500   5.255   1.202   3.072 -3.3823 -0.5538  0.8039
13857SOL    HW252501   5.257   1.061   2.991  0.5922 -0.1361  0.0646
13858SOL     OW52502   4.892   3.103   1.351 -0.1813  0.1758  0.6565
13858SOL    HW152503   4.878   3.073   1.446 -0.3235  1.2092  0.9699
13858SOL    HW252504   4.954   3.181   1.350 -0.0455  0.0578 -0.1261
13859SOL     OW52505   2.013   4.406   3.666  0.0740 -0.5311 -0.2155
13859SOL    HW152506   1.990   4.414   3.569  0.5210 -1.3329 -0.3894
13859SOL    HW252507   2.076   4.479   3.692 -1.2247  0.6034 -0.1618
13860SOL     OW52508   0.182   9.912   0.724  0.2769  0.2538 -0.0911
13860SOL    HW152509   0.095   9.950   0.692 -0.1337  0.2643  1.0197
13860SOL    HW252510   0.175   9.812   0.731  0.1240  0.3109  0.6484
13861SOL     OW52511   9.476   4.823   2.768  0.7767  0.3596 -0.4556
13861SOL    HW152512   9.481   4.921   2.749 -3.6368  0.9271  0.8903
13861SOL    HW252513   9.476   4.808   2.867  0.1079 -0.9206 -0.6400
13862SOL     OW52514   7.544   9.231   1.395 -0.0658 -0.0228 -0.3842
13862SOL    HW152515   7.474   9.159   1.393 -0.2133  0.1394 -2.1723
13862SOL    HW252516   7.604   9.217   1.473 -2.5952  0.3155  1.7033
13863SOL     OW52517   1.910   0.454   1.855  0.3054  0.0863  0.0207
13863SOL    HW152518   1.824   0.504   1.866  1.1168  1.2313  1.2845
13863SOL    HW252519   1.898   0.360   1.885 -0.6319  0.1192 -0.2356
13864SOL     OW52520   3.069   6.114   1.966 -0.2697  0.0692 -0.5484
13864SOL    HW152521   3.065   6.090   1.869 -0.7057  1.0092 -0.7669
13864SOL    HW252522   3.163   6.107   1.998 -0.1925 -0.6973 -0.9144
13865SOL     OW52523   9.196   1.555   3.550  0.4447  0.2275  0.7394
13865SOL    HW152524   9.210   1.648   3.518  0.5117  0.1168  0.4484
13865SOL    HW252525   9.181   1.494   3.472  1.4051 -0.1785  0.8646
13866SOL     OW52526   2.425   7.495   1.201  0.5469 -0.5315 -0.1942
13866SOL    HW152527   2.482   7.492   1.118  1.1901  0.3280  0.2058
13866SOL    HW252528   2.476   7.458   1.278 -0.9287 -3.6583 -0.6513
13867SOL     OW52529   7.837   3.277   0.997 -0.1433  0.1087  0.4727
13867SOL    HW152530   7.743   3.254   1.019 -0.2910  1.5440  1.4425
13867SOL    HW252531   7.863   3.361   1.045  1.0087  0.8085 -1.2888
13868SOL     OW52532   2.470   4.410   3.959 -0.2454  0.1153 -0.4017
13868SOL    HW152533   2.457   4.438   3.864  0.1141  0.4605 -0.3508
13868SOL    HW252534   2.389   4.435   4.012  0.2271  1.4233 -0.2764
13869SOL     OW52535   9.184   5.417   6.546 -0.1559 -0.3619 -0.2612
13869SOL    HW152536   9.136   5.455   6.625 -0.2405 -2.0580  0.5256
13869SOL    HW252537   9.271   5.465   6.534  0.3645 -0.8339  1.5343
13870SOL     OW52538   2.446   7.356   3.870 -0.6129 -0.6922  0.4509
13870SOL    HW152539   2.476   7.418   3.797 -0.0614 -1.5227 -0.0339
13870SOL    HW252540   2.514   7.356   3.944 -0.9064 -0.2701  0.7272
13871SOL     OW52541   4.021   7.825   1.009 -0.6870  0.6537  0.1015
13871SOL    HW152542   4.012   7.925   1.003 -0.8450  0.5561 -1.5866
13871SOL    HW252543   4.101   7.802   1.064  0.8803  1.7591 -1.6354
13872SOL     OW52544   8.749   9.628   1.465 -0.9810  0.1935 -0.3524
13872SOL    HW152545   8.784   9.720   1.484  0.3712 -0.3820  0.0642
13872SOL    HW252546   8.786   9.596   1.378 -1.8623  0.2393 -0.7490
13873SOL     OW52547   8.889   2.132   4.973 -0.0740 -0.4137  0.3319
13873SOL    HW152548   8.974   2.134   4.920 -0.2175 -0.0718  0.1068
13873SOL    HW252549   8.872   2.223   5.012 -0.5574 -0.3613  0.0108
13874SOL     OW52550   9.638   5.922   6.623 -0.0711 -0.1361 -0.1419
13874SOL    HW152551   9.549   5.907   6.667 -0.0449 -1.0508 -0.3743
13874SOL    HW252552   9.708   5.938   6.692 -0.7604  2.6108 -0.0403
13875SOL     OW52553   4.810   5.338   1.338  0.1261 -0.1027 -0.1475
13875SOL    HW152554   4.755   5.299   1.264 -1.2467 -0.3992  1.0038
13875SOL    HW252555   4.767   5.317   1.426  0.4330  2.2921  0.6189
13876SOL     OW52556   0.036   4.076   6.134 -0.5284  0.4093 -0.1869
13876SOL    HW152557   0.069   4.024   6.212  1.4152  0.7095 -0.7958
13876SOL    HW252558   0.092   4.157   6.120 -0.7442  0.2797 -1.9917
13877SOL     OW52559   1.491   8.317   4.582 -0.4403  0.7606  0.6196
13877SOL    HW152560   1.391   8.316   4.581 -0.4507 -1.7064 -1.1731
13877SOL    HW252561   1.523   8.313   4.676 -2.0662 -0.1737  1.1722
13878SOL     OW52562   6.770   9.675   2.558  0.2846  0.0692 -0.4206
13878SOL    HW152563   6.850   9.617   2.544  0.6890  0.4537  0.2704
13878SOL    HW252564   6.724   9.647   2.643  0.4321  0.7026 -0.1296
13879SOL     OW52565   7.225   8.996   1.347  0.6868 -0.3607  0.0191
13879SOL    HW152566   7.172   9.079   1.361  0.8422  0.0909 -2.0070
13879SOL    HW252567   7.298   8.992   1.416  1.0205  1.4564 -0.2029
13880SOL     OW52568   5.135   4.562   0.371 -0.2056  0.3994  0.1099
13880SOL    HW152569   5.234   4.545   0.371  0.1674  2.0791 -3.2934
13880SOL    HW252570   5.089   4.487   0.325 -0.3927  0.2321  0.5674
13881SOL     OW52571   3.858   9.501   3.018 -0.1238 -0.0112  0.0372
13881SOL    HW152572   3.818   9.582   3.061 -0.3162 -0.2952  0.3963
13881SOL    HW252573   3.958   9.512   3.012 -0.3086  0.9914 -1.4774
13882SOL     OW52574   1.893   7.653   5.023 -0.3351  0.2704  0.2988
13882SOL    HW152575   1.862   7.563   4.992 -0.7659  0.9437 -1.2347
13882SOL    HW252576   1.919   7.647   5.120 -1.8672 -1.1194  0.6397
13883SOL     OW52577   7.329   8.449   5.038  0.5585 -0.0268  0.0072
13883SOL    HW152578   7.278   8.364   5.054 -2.1530  1.4690 -0.3060
13883SOL    HW252579   7.323   8.474   4.941  0.6299  0.9346  0.2458
13884SOL     OW52580   8.405   4.853   2.054 -0.1602 -0.0116  0.6683
13884SOL    HW152581   8.500   4.864   2.026  0.0214  0.3638  1.4018
13884SOL    HW252582   8.383   4.919   2.126 -1.3872  0.8306 -0.4516
13885SOL     OW52583   9.201   5.830   2.861  0.0977 -0.5417  0.4263
13885SOL    HW152584   9.247   5.894   2.922  0.9094  0.2849 -1.0054
13885SOL    HW252585   9.117   5.798   2.903 -1.0747  2.5780  0.5897
13886SOL     OW52586   0.463   8.362   2.138 -1.1099 -0.0195  0.4881
13886SOL    HW152587   0.485   8.265   2.143  1.1802  0.4425 -0.2629
13886SOL    HW252588   0.506   8.411   2.214  0.8621  0.9503 -1.2115
13887SOL     OW52589   0.308   9.233   2.713  0.9602  0.4642  0.6892
13887SOL    HW152590   0.277   9.322   2.678  0.1679 -0.0243  0.1407
13887SOL    HW252591   0.244   9.200   2.782 -1.0418 -1.5863 -2.0298
13888SOL     OW52592   8.545   6.853   5.327  0.0124 -0.0062 -0.3371
13888SOL    HW152593   8.593   6.914   5.265  1.7324 -0.5619  0.4364
13888SOL    HW252594   8.474   6.803   5.276  0.5614  0.4713 -1.5768
13889SOL     OW52595   7.384   9.883   2.522 -0.0753  0.4201 -0.4522
13889SOL    HW152596   7.392   9.784   2.534  0.4332  0.5690  0.5721
13889SOL    HW252597   7.442   9.912   2.447  1.0628  0.1377  0.2989
13890SOL     OW52598   8.017   1.753   2.580  0.6015 -0.6244  0.3813
13890SOL    HW152599   8.101   1.699   2.570  1.7080  1.1312 -0.0709
13890SOL    HW252600   8.031   1.843   2.539 -1.1958  0.0302  1.1775
13891SOL     OW52601   3.034   6.962   3.962 -0.3819  0.4889 -0.2303
13891SOL    HW152602   2.981   6.981   4.045  0.0631 -2.1479  0.7251
13891SOL    HW252603   3.130   6.980   3.979 -0.2624 -0.2648 -0.0991
13892SOL     OW52604   6.766   8.270   5.312 -0.5072  0.3554  0.1134
13892SOL    HW152605   6.677   8.305   5.283 -0.3914 -0.0812 -0.7572
13892SOL    HW252606   6.832   8.277   5.237  0.2584  0.8739  0.8132
13893SOL     OW52607   0.608   0.450   1.679  0.5342  0.1014  0.2302
13893SOL    HW152608   0.614   0.353   1.656 -0.0533  0.3175 -0.8372
13893SOL    HW252609   0.641   0.464   1.772  1.7917 -0.9464 -0.0489
13894SOL     OW52610   6.011   0.312   4.843 -0.0970 -0.4496 -0.5294
13894SOL    HW152611   5.952   0.392   4.839  0.2555 -0.1703 -0.1815
13894SOL    HW252612   6.006   0.262   4.756 -1.8997 -1.1872 -0.0056
13895SOL     OW52613   3.876   2.305   3.991 -0.4407 -0.3499 -0.1941
13895SOL    HW152614   3.865   2.267   4.083  1.8407  2.2287  1.2212
13895SOL    HW252615   3.902   2.401   3.998 -0.2639 -0.1065 -3.5725
13896SOL     OW52616   9.138   5.021   3.546 -0.0567  0.1940 -0.2048
13896SOL    HW152617   9.147   4.938   3.601  1.8671 -0.6370 -1.7162
13896SOL    HW252618   9.073   5.006   3.471  0.3449  0.0322 -0.5198
13897SOL     OW52619   1.859   4.476   0.240 -0.6845 -0.2182  0.7668
13897SOL    HW152620   1.883   4.554   0.182 -0.6034 -1.5107 -0.9570
13897SOL    HW252621   1.788   4.422   0.195  0.3436 -1.9940  1.2260
13898SOL     OW52622   0.609   3.093   0.171 -0.4185  0.3085  0.5043
13898SOL    HW152623   0.670   3.020   0.139 -1.7062 -0.4881 -0.2007
13898SOL    HW252624   0.552   3.057   0.245 -0.0974  1.0203  1.0959
13899SOL     OW52625   1.564   9.061   2.652 -0.1352 -0.3352 -0.1866
13899SOL    HW152626   1.532   9.153   2.673  0.7628 -0.2979  1.0937
13899SOL    HW252627   1.568   9.048   2.553 -0.8384  0.7936 -0.3684
13900SOL     OW52628   9.946   3.871   2.914 -0.0720 -0.1675 -0.2182
13900SOL    HW152629   9.927   3.932   2.837  2.3958 -0.0225 -0.7561
13900SOL    HW252630   9.901   3.783   2.898 -0.7523  0.3384 -1.1363
13901SOL     OW52631   0.788   3.778   2.029  0.2344  0.5193 -0.1905
13901SOL    HW152632   0.796   3.824   2.117 -0.7289  1.4922 -0.6001
13901SOL    HW252633   0.791   3.846   1.956 -0.8933 -0.0911 -0.8139
13902SOL     OW52634   3.504   6.200   6.446 -0.4856  0.4756 -0.7189
13902SOL    HW152635   3.506   6.113   6.398 -0.6090  0.2555 -0.3278
13902SOL    HW252636   3.445   6.264   6.396 -1.3249 -0.0315 -0.3967
13903SOL     OW52637   9.321   4.042   4.789  0.0755 -0.3039  0.1935
13903SOL    HW152638   9.388   4.099   4.743 -1.2571  0.9359 -0.2225
13903SOL    HW252639   9.332   4.052   4.888 -0.5832  1.1955  0.1276
13904SOL     OW52640   1.539   8.325   0.125  0.1897 -0.3585 -0.6100
13904SOL    HW152641   1.477   8.378   0.182  1.7129  0.1107  0.6422
13904SOL    HW252642   1.490   8.248   0.084 -1.2364  0.0966  0.2377
13905SOL     OW52643   7.944   0.353   1.319 -0.1104 -0.4117 -0.3013
13905SOL    HW152644   7.917   0.429   1.379  0.1054 -1.3591  1.0088
13905SOL    HW252645   8.042   0.338   1.326 -0.3007 -1.4363  0.1744
13906SOL     OW52646   4.623   2.278   2.122  0.0324 -0.2934 -0.3371
13906SOL    HW152647   4.642   2.181   2.105  1.6455  0.0622 -0.6399
13906SOL    HW252648   4.546   2.286   2.184  0.9946 -1.8141  1.0958
13907SOL     OW52649   0.713   6.053   6.642 -0.0062  0.4046  0.2483
13907SOL    HW152650   0.755   5.978   6.592  0.2700 -0.6317  1.9866
13907SOL    HW252651   0.617   6.033   6.660 -1.3555  2.7680 -3.7077
13908SOL     OW52652   1.122   8.493   1.402 -0.1248 -0.0666 -0.0966
13908SOL    HW152653   1.216   8.503   1.434  0.5487 -0.2110 -1.9178
13908SOL    HW252654   1.094   8.397   1.411 -0.5498  0.2185  1.6213
13909SOL     OW52655   2.931   2.239   1.800 -0.0767 -0.1391  0.2067
13909SOL    HW152656   2.993   2.296   1.746 -0.5575  0.1597 -0.0251
13909SOL    HW252657   2.979   2.155   1.826 -0.3846 -1.0764 -2.1517
13910SOL     OW52658   3.510   0.760   1.209 -0.3407 -0.1037  0.3518
13910SOL    HW152659   3.566   0.841   1.187 -1.9297  0.9758  0.2009
13910SOL    HW252660   3.554   0.679   1.171  0.0095  1.0073 -1.7160
13911SOL     OW52661   7.890   9.954   2.089  0.3021  0.2170 -0.7845
13911SOL    HW152662   7.953   9.944   2.167  1.1272  0.2539 -1.4471
13911SOL    HW252663   7.797   9.968   2.124  0.4372 -1.2152  0.2014
13912SOL     OW52664   2.867   8.432   2.784 -0.1657 -0.2374  0.2227
13912SOL    HW152665   2.896   8.526   2.799 -0.4764 -0.0068 -0.5756
13912SOL    HW252666   2.908   8.397   2.700 -2.3112  0.1733 -1.0424
13913SOL     OW52667   8.213   6.078   1.956  0.1128 -0.3998  0.3307
13913SOL    HW152668   8.289   6.142   1.943  1.1389 -1.7353 -0.4346
13913SOL    HW252669   8.215   6.009   1.883 -2.1933 -0.1029 -0.0212
13914SOL     OW52670   2.174   8.506   4.307 -0.1279 -0.2662 -0.1009
13914SOL    HW152671   2.200   8.419   4.265  0.5955 -1.0836  1.9648
13914SOL    HW252672   2.245   8.574   4.289 -0.5281 -0.1836 -1.4273
13915SOL     OW52673   5.816   7.578   3.416 -0.1699 -0.3669 -0.3038
13915SOL    HW152674   5.850   7.648   3.354  3.7983 -0.9896  1.0257
13915SOL    HW252675   5.801   7.493   3.365  0.9331 -0.2454 -0.8570
13916SOL     OW52676   3.891   1.623   2.661  0.0316 -0.1162 -0.5454
13916SOL    HW152677   3.919   1.565   2.737 -2.7648 -0.1461  0.5180
13916SOL    HW252678   3.791   1.620   2.651  0.1436  1.7202 -2.7393
13917SOL     OW52679   8.141   4.527   1.980 -0.0572  0.1668 -0.0118
13917SOL    HW152680   8.079   4.473   1.922  1.3642 -0.8555 -0.5951
13917SOL    HW252681   8.104   4.620   1.990 -1.1092 -0.0966 -1.2878
13918SOL     OW52682   0.498   7.954   5.791  0.4771  0.2998 -0.6873
13918SOL    HW152683   0.558   8.014   5.739  0.2261  1.3141  0.1795
13918SOL    HW252684   0.545   7.924   5.874  1.0206 -1.6202 -1.6676
13919SOL     OW52685   9.849   4.246   0.663  0.2318 -0.5529 -0.1890
13919SOL    HW152686   9.790   4.173   0.698  0.4272  0.0476  1.4355
13919SOL    HW252687   9.814   4.335   0.694  1.3175 -0.1143 -0.1984
13920SOL     OW52688   0.586   6.379   0.816 -0.1246 -0.2293 -0.2048
13920SOL    HW152689   0.670   6.426   0.791 -0.8258  0.8319 -0.5703
13920SOL    HW252690   0.563   6.399   0.911 -0.5087  0.3036 -0.4076
13921SOL     OW52691   9.997   2.215   2.398 -0.0153  0.1052 -0.4176
13921SOL    HW152692   9.944   2.193   2.481  1.5684  1.7313  1.0716
13921SOL    HW252693   9.943   2.276   2.339 -0.4059  0.5250  0.3613
13922SOL     OW52694   6.681   1.722   4.348  0.5736 -0.0820  0.6969
13922SOL    HW152695   6.699   1.766   4.260 -0.2270  0.4208  0.7890
13922SOL    HW252696   6.677   1.623   4.334 -1.3387  0.0957 -0.1535
13923SOL     OW52697   8.775   3.259   3.806 -0.1240 -0.3398  0.2994
13923SOL    HW152698   8.848   3.190   3.805  0.0497 -0.1492 -0.7077
13923SOL    HW252699   8.759   3.291   3.713 -1.6512 -0.5439  0.4816
13924SOL     OW52700   4.935   8.920   3.000  0.5048 -0.0244  0.2971
13924SOL    HW152701   5.007   8.948   3.063  1.5416 -1.3581 -0.2675
13924SOL    HW252702   4.859   8.881   3.051  0.5118  0.6720  0.8411
13925SOL     OW52703   8.072   8.858   3.643  0.1985  0.3283 -0.4224
13925SOL    HW152704   7.974   8.869   3.627  0.2297  0.7497 -0.3347
13925SOL    HW252705   8.093   8.762   3.664 -0.1765  0.2187 -0.5640
13926SOL     OW52706   3.757   4.003   4.956 -0.0166  0.0920  0.3114
13926SOL    HW152707   3.848   4.018   4.995  0.2526 -0.9213  0.0786
13926SOL    HW252708   3.718   4.091   4.928  1.2467  0.4412 -0.3614
13927SOL     OW52709   9.953   5.673   0.515  0.5091 -0.0951  0.6271
13927SOL    HW152710   9.973   5.630   0.602 -0.0448 -2.6202 -0.4510
13927SOL    HW252711  10.024   5.650   0.448  0.2500  0.7348  0.0485
13928SOL     OW52712   8.817   9.410   5.573 -0.3615 -0.0948  0.3365
13928SOL    HW152713   8.762   9.393   5.655  1.4835 -2.1513  1.2155
13928SOL    HW252714   8.889   9.476   5.594 -0.2544 -0.1734  0.2193
13929SOL     OW52715   5.162   1.991   2.040 -0.4688 -0.3094 -0.2744
13929SOL    HW152716   5.154   1.923   2.113 -0.2210 -0.2100 -0.1549
13929SOL    HW252717   5.116   2.075   2.067 -0.2051 -0.2043 -0.1499
13930SOL     OW52718   6.365   0.569   5.333 -0.2187  0.0665  0.5030
13930SOL    HW152719   6.419   0.611   5.406  1.2227 -0.1281 -0.4451
13930SOL    HW252720   6.416   0.572   5.247 -1.9481  0.3733 -0.5231
13931SOL     OW52721   3.865   5.366   6.258  0.5374 -0.7960 -0.6317
13931SOL    HW152722   3.958   5.347   6.290  0.1345 -0.5594  0.7264
13931SOL    HW252723   3.851   5.465   6.255 -0.5533 -0.8185  1.9051
13932SOL     OW52724   6.845   0.740   2.445 -0.2607  0.2720  0.0456
13932SOL    HW152725   6.764   0.688   2.416  1.2024 -1.8930 -0.3170
13932SOL    HW252726   6.892   0.777   2.364 -1.0800  1.8582  0.2791
13933SOL     OW52727   1.670   8.035   0.022 -0.2500 -0.1386 -0.0427
13933SOL    HW152728   1.597   8.084   0.072 -0.8105 -0.5284 -0.4769
13933SOL    HW252729   1.734   8.101  -0.015 -0.2072  0.1963  0.6135
13934SOL     OW52730   0.488   8.625   4.051  0.1108 -0.0195  0.0238
13934SOL    HW152731   0.564   8.563   4.039 -0.0734 -0.2021 -0.1911
13934SOL    HW252732   0.432   8.596   4.129 -0.4348 -0.5884 -0.5771
13935SOL     OW52733   4.292   8.662   3.091 -0.0095 -0.0546  0.2601
13935SOL    HW152734   4.333   8.620   3.010  0.2926  0.7403 -0.0031
13935SOL    HW252735   4.194   8.675   3.075 -0.3280 -1.6487  0.7652
13936SOL     OW52736   4.270   2.038   2.345  0.1597 -0.2814  0.2373
13936SOL    HW152737   4.328   1.973   2.395  0.9020  1.5321  1.8410
13936SOL    HW252738   4.176   2.032   2.379  0.5025  0.4039  1.3224
13937SOL     OW52739   3.122   2.034   3.820  0.3158 -0.1902 -0.0108
13937SOL    HW152740   3.079   2.099   3.884 -0.6868 -0.8304 -0.0219
13937SOL    HW252741   3.054   2.004   3.753  0.7404 -1.3557  0.0813
13938SOL     OW52742   7.177   9.159   4.104 -0.0677  0.3327  0.2340
13938SOL    HW152743   7.129   9.140   4.018 -0.6969 -1.7322  1.0101
13938SOL    HW252744   7.132   9.110   4.178  1.2508  1.0758  1.5490
13939SOL     OW52745   1.208   0.025   1.282  0.0070  0.4868 -0.1066
13939SOL    HW152746   1.224   0.115   1.242 -0.5669  0.8349  0.4333
13939SOL    HW252747   1.229  -0.046   1.215 -0.2595  1.0447 -0.7891
13940SOL     OW52748   8.606   5.308   3.417 -0.3314 -0.1458  0.3465
13940SOL    HW152749   8.634   5.289   3.511 -0.3490  0.8445  0.5508
13940SOL    HW252750   8.654   5.389   3.383  0.2536 -0.9385 -0.7599
13941SOL     OW52751   3.818   3.654   0.671 -0.0384 -0.1908 -0.0712
13941SOL    HW152752   3.744   3.689   0.728 -0.8539  0.4457 -1.4948
13941SOL    HW252753   3.902   3.704   0.692  0.0013 -0.9135  1.5409
13942SOL     OW52754   3.434   1.049   3.475  0.3454 -0.2964  0.3144
13942SOL    HW152755   3.410   1.132   3.424  0.2374 -1.8915 -2.3365
13942SOL    HW252756   3.448   1.072   3.571  0.2269  2.7682 -0.3415
13943SOL     OW52757   3.194   4.328   6.652 -0.6360  0.1959 -0.3792
13943SOL    HW152758   3.153   4.297   6.737  0.4019 -0.7178 -0.2013
13943SOL    HW252759   3.271   4.389   6.671 -0.4922  0.1056 -0.6544
13944SOL     OW52760   5.290   0.637   3.131  0.9024 -0.3768 -0.3402
13944SOL    HW152761   5.254   0.673   3.045  0.6379 -1.8063 -0.8383
13944SOL    HW252762   5.369   0.579   3.113  1.8962  0.6862  0.5415
13945SOL     OW52763   1.292   1.786   2.260  0.2891 -0.1360  0.2223
13945SOL    HW152764   1.257   1.750   2.174 -1.6784 -0.1530  1.0056
13945SOL    HW252765   1.340   1.872   2.243  0.7887 -0.6497 -1.0106
13946SOL     OW52766   4.079   7.228   3.251  0.2532  0.0712  0.3305
13946SOL    HW152767   4.081   7.223   3.151 -1.9150 -1.5645  0.3401
13946SOL    HW252768   4.153   7.288   3.282  1.2827  0.2027 -2.2077
13947SOL     OW52769   0.698   5.715   2.038 -0.5341 -1.0038  0.0971
13947SOL    HW152770   0.683   5.744   2.133  0.6151 -1.3158  0.3755
13947SOL    HW252771   0.784   5.665   2.032  0.3856  0.7629 -1.5029
13948SOL     OW52772   5.099   7.411   5.593  0.3176 -0.0662  0.5194
13948SOL    HW152773   5.139   7.465   5.518  1.0192 -0.4773  0.5925
13948SOL    HW252774   5.007   7.380   5.566  0.2078  0.5399  0.1856
13949SOL     OW52775   1.857   7.377   3.502 -0.0089  0.2165 -0.0642
13949SOL    HW152776   1.884   7.310   3.433 -1.3444  0.8115 -1.1859
13949SOL    HW252777   1.786   7.338   3.561 -1.3305  0.8928 -1.1932
13950SOL     OW52778   7.355   1.612   6.413  0.1850 -0.3483  0.1330
13950SOL    HW152779   7.341   1.513   6.422 -0.1513 -0.3045  0.1260
13950SOL    HW252780   7.396   1.632   6.324  0.0566 -0.4655  0.0453
13951SOL     OW52781   3.603   7.833   5.121  0.3674 -0.1916  0.2580
13951SOL    HW152782   3.598   7.756   5.185  2.5608 -2.3347 -2.0253
13951SOL    HW252783   3.685   7.887   5.141  0.7417 -0.5281 -0.3427
13952SOL     OW52784   5.534   0.843   3.093  0.2424  0.4803  0.0738
13952SOL    HW152785   5.470   0.896   3.036  1.3322  1.0152 -0.6645
13952SOL    HW252786   5.537   0.749   3.060 -1.1202  0.1353  0.9047
13953SOL     OW52787   9.740   4.027   6.420  0.5617  0.9703 -0.6937
13953SOL    HW152788   9.823   4.015   6.474  0.3531  0.9098 -0.3884
13953SOL    HW252789   9.679   4.092   6.466 -0.4376 -0.4772  0.0884
13954SOL     OW52790   4.201   8.054   0.302 -0.3121 -0.4691  0.0992
13954SOL    HW152791   4.178   8.120   0.374 -0.5212 -0.6530  0.2041
13954SOL    HW252792   4.178   8.092   0.213 -0.9929 -0.6325  0.2010
13955SOL     OW52793   4.382   7.005   1.846 -0.2069 -0.3737 -0.1798
13955SOL    HW152794   4.295   7.043   1.816 -0.1378 -1.9794 -2.5686
13955SOL    HW252795   4.456   7.046   1.794 -0.1617 -3.8961 -3.0599
13956SOL     OW52796   1.070   4.615   2.301  0.4783 -0.1951  0.5206
13956SOL    HW152797   1.145   4.660   2.350  0.4950 -0.3371  0.6245
13956SOL    HW252798   1.004   4.579   2.367  2.2999 -3.5668  0.6004
13957SOL     OW52799   4.126   2.483   1.674 -0.3166 -0.3585  0.2625
13957SOL    HW152800   4.225   2.487   1.660 -0.5133 -0.1393 -1.1160
13957SOL    HW252801   4.102   2.393   1.712  0.0506 -1.7477 -2.6250
13958SOL     OW52802   9.647   1.376   3.919 -0.3382 -0.1138 -0.2007
13958SOL    HW152803   9.647   1.473   3.943  0.3962  0.3772 -2.0907
13958SOL    HW252804   9.561   1.351   3.875  0.8227  0.5970 -3.0440
13959SOL     OW52805   6.975   1.430   2.900  0.4143 -0.1218 -0.6387
13959SOL    HW152806   6.971   1.501   2.830  0.5280 -0.6462 -1.1861
13959SOL    HW252807   6.963   1.340   2.857 -0.2234 -0.4008  0.1078
13960SOL     OW52808   8.080   3.191   3.053 -0.2699  0.5125  0.4993
13960SOL    HW152809   7.987   3.226   3.040 -1.0486 -2.1977 -1.8310
13960SOL    HW252810   8.118   3.228   3.137 -2.4579  3.7482  0.1509
13961SOL     OW52811   3.232   1.794   3.866  1.0317 -0.2543  0.2344
13961SOL    HW152812   3.321   1.772   3.826 -0.1574  0.2964 -2.8397
13961SOL    HW252813   3.211   1.890   3.850  0.6324  0.0538  2.4892
13962SOL     OW52814   6.411   8.470   2.988  0.0644 -0.2210  0.5473
13962SOL    HW152815   6.494   8.451   3.039  1.3159  1.3552 -0.8549
13962SOL    HW252816   6.368   8.384   2.960  1.0924 -1.0385  1.4645
13963SOL     OW52817   4.101   2.099   2.630 -0.3691 -0.7328 -0.1819
13963SOL    HW152818   4.164   2.132   2.700 -0.7065 -0.8548  0.1862
13963SOL    HW252819   4.009   2.093   2.669 -0.6916 -0.1305 -0.8437
13964SOL     OW52820   7.046   8.688   2.129  0.0252 -0.5041  0.4268
13964SOL    HW152821   7.134   8.735   2.122 -0.4208  0.1158 -1.1051
13964SOL    HW252822   7.028   8.637   2.045 -0.4488 -1.7470  1.2714
13965SOL     OW52823   4.722   8.256   4.484 -0.5463  0.0933  0.1864
13965SOL    HW152824   4.681   8.166   4.469 -2.0989  1.0372 -1.3900
13965SOL    HW252825   4.665   8.308   4.548 -0.8053  0.7132 -0.5350
13966SOL     OW52826   9.692   8.714   1.700 -0.3412 -0.1848 -0.1558
13966SOL    HW152827   9.764   8.712   1.770  0.3330  0.9790 -0.7978
13966SOL    HW252828   9.718   8.778   1.627 -2.6619  1.3255  0.2871
13967SOL     OW52829   9.828   6.727   2.782 -0.3554  0.1050  0.5080
13967SOL    HW152830   9.837   6.741   2.683  0.2809 -0.0586  0.5433
13967SOL    HW252831   9.733   6.701   2.803 -0.9505  1.9062  0.1579
13968SOL     OW52832   4.941   0.597   0.935  0.2398  0.0121 -0.4835
13968SOL    HW152833   4.901   0.568   1.022 -0.3123 -1.4240 -1.1888
13968SOL    HW252834   4.875   0.582   0.861  1.5708 -1.1683 -1.4925
13969SOL     OW52835   7.054   0.384   0.421  0.0099  0.1020 -0.0590
13969SOL    HW152836   7.122   0.366   0.492 -1.2628 -1.3393  0.8435
13969SOL    HW252837   7.078   0.467   0.372  2.7988 -0.7614 -0.2367
13970SOL     OW52838   5.439   1.909   0.961  0.4027  0.1996  0.1301
13970SOL    HW152839   5.505   1.889   0.890  0.8032 -0.7003  0.7541
13970SOL    HW252840   5.481   1.969   1.030  0.2281  0.5093 -0.0300
13971SOL     OW52841   1.229   5.228   1.202 -0.0185  0.8937 -0.4499
13971SOL    HW152842   1.284   5.279   1.269  1.8842 -3.1196  1.2005
13971SOL    HW252843   1.289   5.194   1.130 -1.6452  2.8355 -2.7878
13972SOL     OW52844   9.456   2.455   2.169 -0.5568 -0.4977  0.8283
13972SOL    HW152845   9.387   2.411   2.111  0.3490 -0.4007 -0.3273
13972SOL    HW252846   9.539   2.400   2.169  0.9524  1.7363 -1.4557
13973SOL     OW52847   9.377   1.383   1.209 -0.3611  0.1291  0.3445
13973SOL    HW152848   9.370   1.321   1.287  2.1447 -0.7025 -0.0426
13973SOL    HW252849   9.317   1.353   1.136 -0.2548 -0.9968  0.7204
13974SOL     OW52850   1.470   8.979   4.961  0.4455 -0.3287  0.1145
13974SOL    HW152851   1.500   8.901   4.906 -1.0317 -1.1770  0.4916
13974SOL    HW252852   1.509   9.063   4.924 -2.0636 -0.6288 -3.4350
13975SOL     OW52853   0.913   2.796   0.753 -0.4752 -0.1798  0.7845
13975SOL    HW152854   0.865   2.860   0.692  0.1651 -0.3307  0.1071
13975SOL    HW252855   0.985   2.845   0.803 -1.8154  0.2080  2.3735
13976SOL     OW52856   7.359   0.116   1.880 -0.1137 -0.2295  0.6332
13976SOL    HW152857   7.340   0.082   1.972  0.4661  0.3987  0.9842
13976SOL    HW252858   7.452   0.151   1.875  0.1999 -1.1609 -0.4659
13977SOL     OW52859   2.476   4.820   1.864  0.1499  0.1593  0.3014
13977SOL    HW152860   2.461   4.905   1.915  1.5695  0.8014 -0.3163
13977SOL    HW252861   2.475   4.840   1.766  2.1370 -0.2568  0.1883
13978SOL     OW52862   0.554   9.275   1.639  0.2713 -0.7843 -0.5888
13978SOL    HW152863   0.489   9.273   1.563  1.0251  0.9419 -1.2906
13978SOL    HW252864   0.617   9.351   1.628  0.7512 -0.8390  1.4800
13979SOL     OW52865   2.290   4.100   2.294 -0.5305  0.6586  0.0375
13979SOL    HW152866   2.368   4.040   2.309  0.8610  2.2177 -0.7491
13979SOL    HW252867   2.296   4.141   2.203 -3.2351 -0.5548 -0.7373
13980SOL     OW52868   4.763   2.274   3.483 -0.2498 -0.4668  0.3851
13980SOL    HW152869   4.824   2.260   3.405  0.1186 -2.3889  0.9802
13980SOL    HW252870   4.781   2.205   3.553 -0.8304  0.9856  2.0336
13981SOL     OW52871   3.384   7.595   1.365 -0.2120  0.2963  0.6123
13981SOL    HW152872   3.376   7.496   1.360 -0.6472  0.3503  0.1632
13981SOL    HW252873   3.293   7.635   1.379 -0.0617  0.6406  0.6129
13982SOL     OW52874   5.199   7.317   2.561  0.3741 -0.3477 -0.3777
13982SOL    HW152875   5.256   7.264   2.625  0.1732 -0.8692 -0.6241
13982SOL    HW252876   5.210   7.414   2.580 -0.2600 -0.5184  0.9419
13983SOL     OW52877   2.629   5.910   6.332 -0.5962 -0.2639 -0.7659
13983SOL    HW152878   2.725   5.885   6.319 -0.7264 -0.6646 -0.9633
13983SOL    HW252879   2.596   5.872   6.419 -0.3314  0.6063 -0.2814
13984SOL     OW52880   8.501   5.729   2.024  0.1562 -0.1496 -0.0213
13984SOL    HW152881   8.510   5.810   1.966  2.1457 -1.2616 -1.3248
13984SOL    HW252882   8.550   5.744   2.110 -1.0010  0.6960  0.5008
13985SOL     OW52883   9.033   7.290   2.610 -0.3645  0.6782 -0.2689
13985SOL    HW152884   9.000   7.270   2.702  0.4524 -2.0871 -0.5383
13985SOL    HW252885   9.133   7.299   2.612 -0.0643 -2.0771 -1.3013
13986SOL     OW52886   1.579   8.028   4.531  0.5484 -1.0870  0.5513
13986SOL    HW152887   1.538   7.966   4.598  1.1711 -1.2629  0.7691
13986SOL    HW252888   1.541   8.120   4.544  1.1802 -0.9671  1.6049
13987SOL     OW52889   9.406   5.697   0.916 -0.8514 -0.1227 -0.3543
13987SOL    HW152890   9.481   5.656   0.864 -0.5078  0.0344  0.0132
13987SOL    HW252891   9.394   5.647   1.002  0.9233  1.7581  1.0546
13988SOL     OW52892   1.744   1.787   3.389  0.5954 -0.3766  0.5242
13988SOL    HW152893   1.837   1.818   3.373  0.0569  1.6983  1.2531
13988SOL    HW252894   1.698   1.772   3.301  1.2312 -0.2299  0.1673
13989SOL     OW52895   4.839   1.831   4.691 -0.0145 -0.3003 -0.5681
13989SOL    HW152896   4.832   1.732   4.704  2.6542 -0.6232 -1.3223
13989SOL    HW252897   4.914   1.851   4.628  0.1479  2.2587  0.3768
13990SOL     OW52898   3.406   9.893   1.123 -0.4212  0.3202 -0.7835
13990SOL    HW152899   3.320   9.939   1.102 -1.2380 -0.9462 -0.2292
13990SOL    HW252900   3.464   9.955   1.177 -1.3676  0.8332 -0.3516
13991SOL     OW52901   5.105   9.889   3.135  0.1295 -0.3330  0.4567
13991SOL    HW152902   5.182   9.851   3.083  0.8264  0.4027  0.9369
13991SOL    HW252903   5.058   9.816   3.185  1.7482 -0.4917  1.7606
13992SOL     OW52904   5.713   0.905   2.368 -0.2905 -0.6886 -0.0121
13992SOL    HW152905   5.756   0.859   2.445  0.3404  0.7128  0.4867
13992SOL    HW252906   5.690   0.999   2.394  1.3575  0.2985 -2.0269
13993SOL     OW52907   0.126   5.731   3.792 -0.3902  0.1997 -0.0073
13993SOL    HW152908   0.057   5.764   3.729  0.6540  3.3675  0.4258
13993SOL    HW252909   0.217   5.749   3.755  0.2690 -2.8428 -0.0264
13994SOL     OW52910   2.696   5.070   6.026 -0.2959  0.5775 -0.0625
13994SOL    HW152911   2.623   5.129   6.060 -0.6817  0.9759 -1.5583
13994SOL    HW252912   2.657   4.990   5.982  0.2072 -0.0096  0.5488
13995SOL     OW52913   7.920   3.745   2.523  0.0482 -0.2199  0.4481
13995SOL    HW152914   7.993   3.680   2.502  0.2216  0.1127  0.0095
13995SOL    HW252915   7.960   3.831   2.556 -0.1385  0.0024  0.1001
13996SOL     OW52916   9.022   9.199   1.037 -0.0825  0.0817 -0.0648
13996SOL    HW152917   8.982   9.141   0.965 -2.7869  1.2432  0.4228
13996SOL    HW252918   9.021   9.150   1.124  2.3714 -0.9934 -0.6051
13997SOL     OW52919   1.290   3.091   0.014  0.1045  0.2218  0.0574
13997SOL    HW152920   1.251   3.135  -0.067 -0.5480  1.4222  0.9957
13997SOL    HW252921   1.387   3.115   0.021  0.1640  0.1149 -0.3615
13998SOL     OW52922   0.652   3.812   3.494 -0.1575  0.8804  0.1263
13998SOL    HW152923   0.644   3.720   3.456 -0.9647  1.9365 -2.3666
13998SOL    HW252924   0.560   3.852   3.504  0.1813  1.3956  1.2343
13999SOL     OW52925   0.633   5.034   6.144  0.8020 -0.2776 -0.2800
13999SOL    HW152926   0.697   5.023   6.220  0.8196  0.5208 -0.1767
13999SOL    HW252927   0.673   5.092   6.074  0.6380 -0.7088 -0.7332
14000SOL     OW52928   8.526   4.271   3.179 -0.2696 -0.1066 -0.2161
14000SOL    HW152929   8.427   4.268   3.167 -0.5424  0.7047  1.6983
14000SOL    HW252930   8.549   4.328   3.258  1.6150 -1.8849  0.5820
14001SOL     OW52931   1.643   6.333   5.310  0.5447  0.0344  0.9152
14001SOL    HW152932   1.632   6.395   5.232  0.1152  0.6806  1.4863
14001SOL    HW252933   1.574   6.261   5.305  1.9347 -1.2350 -0.5215
14002SOL     OW52934   1.410   0.894   4.348  0.4972  0.0671 -0.1740
14002SOL    HW152935   1.471   0.879   4.426 -1.5486 -0.7837  1.2896
14002SOL    HW252936   1.452   0.856   4.265  2.5305  0.6782  0.5325
14003SOL     OW52937   9.592   1.627   0.508 -0.0429  0.6022  0.1409
14003SOL    HW152938   9.574   1.608   0.604 -2.3233 -0.4815 -0.4667
14003SOL    HW252939   9.506   1.650   0.462  0.9263  0.4465 -1.7882
14004SOL     OW52940   8.371   8.101   2.476  0.0132  0.2831 -0.4318
14004SOL    HW152941   8.305   8.083   2.549  0.1991  0.1066 -0.3038
14004SOL    HW252942   8.323   8.119   2.390 -0.1872 -0.7223 -0.5351
14005SOL     OW52943   3.908   3.774   1.050  0.2073  0.1215  0.4496
14005SOL    HW152944   3.997   3.803   1.014  0.1000  0.2632  0.3023
14005SOL    HW252945   3.870   3.703   0.990 -0.0397  0.4625  0.2033
14006SOL     OW52946   3.491   7.066   1.024  0.6235  0.1681  0.2419
14006SOL    HW152947   3.549   6.984   1.023 -2.0269 -1.8409  2.8108
14006SOL    HW252948   3.421   7.059   0.952  1.4377  1.0213 -0.6541
14007SOL     OW52949   9.909   6.513   1.218  0.2206  0.0480 -0.0103
14007SOL    HW152950   9.925   6.511   1.120 -0.6250 -0.2843 -0.1446
14007SOL    HW252951   9.811   6.510   1.236  0.3906 -0.5080  0.8604
14008SOL     OW52952   2.808   6.746   6.331  0.5525 -0.0156  0.5043
14008SOL    HW152953   2.851   6.681   6.394 -1.7505 -0.9410  1.1857
14008SOL    HW252954   2.710   6.753   6.352  0.2689  1.7271 -1.2430
14009SOL     OW52955   1.426   7.834   2.550 -0.2147  0.7390 -0.0376
14009SOL    HW152956   1.349   7.800   2.604 -1.0641  2.3698 -0.1790
14009SOL    HW252957   1.488   7.759   2.529 -0.9367 -0.3042  1.4435
14010SOL     OW52958   8.443   9.927   3.060 -0.3373 -0.4067 -0.1251
14010SOL    HW152959   8.360   9.959   3.106  0.5657  1.3679  0.3029
14010SOL    HW252960   8.444   9.827   3.060 -0.8804 -0.4753  2.8058
14011SOL     OW52961   4.201   0.029   2.436  0.2244 -0.0542  0.0312
14011SOL    HW152962   4.288  -0.015   2.412  0.6712  1.4453 -1.1902
14011SOL    HW252963   4.174   0.001   2.528  1.9152 -0.6633  0.3673
14012SOL     OW52964   3.720   0.904   1.709  0.9678  0.6673  0.3909
14012SOL    HW152965   3.678   0.905   1.618  0.0895 -0.1922  0.7790
14012SOL    HW252966   3.649   0.909   1.779  1.6227  1.0147  1.0387
14013SOL     OW52967   2.768   7.067   5.224 -0.2874 -0.2885  0.1768
14013SOL    HW152968   2.710   7.024   5.155  0.4886 -1.2639  0.1120
14013SOL    HW252969   2.798   7.157   5.192 -2.6898  0.7486  0.7094
14014SOL     OW52970   7.801   0.390   3.588  0.7003  0.5251  0.0857
14014SOL    HW152971   7.886   0.416   3.633  1.4001 -0.4407 -0.6584
14014SOL    HW252972   7.797   0.433   3.497  0.4577  0.4687  0.0702
14015SOL     OW52973   6.138   7.592   3.291 -0.0710 -0.5887 -0.1064
14015SOL    HW152974   6.056   7.647   3.307 -0.1568 -1.3207  2.2101
14015SOL    HW252975   6.216   7.652   3.272 -0.2186  0.3610  2.1349
14016SOL     OW52976   8.318   2.048   3.037  0.3043  0.0820  0.2062
14016SOL    HW152977   8.353   1.954   3.034 -0.4827 -0.2490  1.1636
14016SOL    HW252978   8.281   2.072   2.948  2.4294  0.2365 -0.6660
14017SOL     OW52979   9.040   3.800   0.744  0.6116 -0.5611 -0.7164
14017SOL    HW152980   8.954   3.761   0.713 -0.1725  1.1541 -0.7883
14017SOL    HW252981   9.037   3.810   0.844  0.6607 -0.3519 -0.7360
14018SOL     OW52982   3.242   6.089   4.882 -0.1378 -0.1970  0.3155
14018SOL    HW152983   3.252   5.996   4.847  1.8719 -0.2191  0.8639
14018SOL    HW252984   3.222   6.086   4.980  0.7420 -0.0588  0.5066
14019SOL     OW52985   8.911   3.167   0.430 -0.0925  0.0853 -0.1403
14019SOL    HW152986   8.944   3.233   0.362 -0.1865 -1.5120 -1.7728
14019SOL    HW252987   8.948   3.077   0.409 -1.0711 -0.6509  1.2672
14020SOL     OW52988   9.055   1.925   1.301  0.1131  0.1165 -0.0892
14020SOL    HW152989   8.963   1.905   1.269  1.1721 -1.5153 -2.2422
14020SOL    HW252990   9.059   1.915   1.401 -1.9652 -0.0022  0.0020
14021SOL     OW52991   0.103   1.298   0.954  0.2763 -0.0255 -0.0528
14021SOL    HW152992   0.045   1.341   1.023  1.1183 -0.7596  1.1439
14021SOL    HW252993   0.055   1.219   0.915 -0.5227  0.8721 -0.8974
14022SOL     OW52994   8.072   2.659   5.544  0.1634  0.8854 -0.0251
14022SOL    HW152995   8.136   2.729   5.578  0.8937 -0.2868  1.0782
14022SOL    HW252996   8.048   2.597   5.619 -1.6081  0.7906 -0.6496
14023SOL     OW52997   1.841   3.487   3.311 -0.1218  0.8719  0.1314
14023SOL    HW152998   1.837   3.500   3.212  0.4832 -1.6599 -0.2361
14023SOL    HW252999   1.752   3.456   3.344  0.4121 -0.8784 -0.0238
14024SOL     OW53000   9.435   0.289   1.481  0.3213 -0.1334  0.3689
14024SOL    HW153001   9.411   0.319   1.388 -0.1661  1.0519  0.8589
14024SOL    HW253002   9.381   0.209   1.505  0.4068 -0.4147 -0.3517
14025SOL     OW53003   4.145   1.624   2.590 -0.2907  0.0413 -0.3117
14025SOL    HW153004   4.056   1.647   2.628  0.0527  0.9156 -0.0330
14025SOL    HW253005   4.138   1.622   2.490 -0.7955 -0.6244 -0.2675
14026SOL     OW53006   2.060   3.880   2.611 -0.3687  0.2233  0.7328
14026SOL    HW153007   1.984   3.816   2.597 -1.4137  1.8105 -1.0523
14026SOL    HW253008   2.146   3.829   2.615 -1.1397 -1.2660 -1.0516
14027SOL     OW53009   1.898   3.219   0.093  0.3023 -0.1502 -1.0918
14027SOL    HW153010   1.857   3.202   0.183 -0.2884  0.2532 -1.2797
14027SOL    HW253011   1.980   3.275   0.105  1.1341 -1.4469 -0.6635
14028SOL     OW53012   7.963   1.932   6.091 -0.4911  0.0960 -0.5054
14028SOL    HW153013   7.914   1.978   6.165  0.5666  0.4778 -0.0417
14028SOL    HW253014   7.939   1.975   6.004 -1.8266 -0.4288 -0.4159
14029SOL     OW53015   9.971   3.991   1.499  0.2518 -0.0396 -0.3104
14029SOL    HW153016   9.884   3.976   1.546  0.0937 -0.2634 -0.6819
14029SOL    HW253017   9.955   4.034   1.410  0.6259  1.3661  0.2729
14030SOL     OW53018   5.238   5.673   0.609  0.4061 -0.2348 -0.4927
14030SOL    HW153019   5.324   5.715   0.638  0.6589 -1.2109  0.1877
14030SOL    HW253020   5.257   5.595   0.549  0.0617 -1.4761  0.9945
14031SOL     OW53021   1.418   0.040   1.972 -0.3119  0.0571 -1.2970
14031SOL    HW153022   1.369  -0.028   2.026  0.3346  0.9885  0.5131
14031SOL    HW253023   1.396   0.132   2.006  2.6419  0.4923 -0.4458
14032SOL     OW53024   9.645   6.428   5.979 -0.3391  0.0893  0.5356
14032SOL    HW153025   9.702   6.424   5.897 -1.1254 -1.0656  0.0289
14032SOL    HW253026   9.634   6.335   6.016 -1.6920  0.3462  0.7746
14033SOL     OW53027   4.460   7.696   1.335 -0.4553  0.0977  0.2386
14033SOL    HW153028   4.443   7.677   1.432  0.0449  1.5800  0.6333
14033SOL    HW253029   4.545   7.652   1.307 -0.9444 -0.8848  0.3007
14034SOL     OW53030   7.847   2.461   1.324  0.6022 -0.3652 -0.5805
14034SOL    HW153031   7.923   2.525   1.332  0.2768  0.0359 -0.7137
14034SOL    HW253032   7.773   2.489   1.385  0.4836 -0.6506 -0.5906
14035SOL     OW53033   1.629   7.617   2.461  0.0648 -0.6124 -0.4402
14035SOL    HW153034   1.711   7.642   2.411  0.3882 -0.2185  0.2756
14035SOL    HW253035   1.590   7.533   2.423  0.7894 -0.7914 -0.7837
14036SOL     OW53036   5.207   0.503   0.909  0.1830  0.1120 -0.6550
14036SOL    HW153037   5.110   0.526   0.901  0.1115  0.4226  0.9520
14036SOL    HW253038   5.245   0.484   0.818 -1.2446  0.5353 -1.3445
14037SOL     OW53039   8.642   1.748   2.347  0.0654  0.3211  0.3126
14037SOL    HW153040   8.605   1.745   2.440 -1.1568 -1.2546 -0.1987
14037SOL    HW253041   8.648   1.655   2.311 -0.4599  0.9996 -1.5725
14038SOL     OW53042   2.112   7.668   0.518 -0.1055 -0.0596  0.4369
14038SOL    HW153043   2.196   7.644   0.470 -0.0700  0.6072  0.1547
14038SOL    HW253044   2.136   7.717   0.602 -0.2414  1.2042 -0.2534
14039SOL     OW53045   4.476   3.785   1.301 -0.3469  0.3000 -0.1479
14039SOL    HW153046   4.561   3.811   1.346 -0.3234 -0.2599  0.1432
14039SOL    HW253047   4.400   3.795   1.366 -0.3867 -0.0010 -0.1484
14040SOL     OW53048   9.629   3.871   6.038 -0.3025 -0.3987  0.1637
14040SOL    HW153049   9.620   3.838   6.132  0.5044 -2.8768 -0.5895
14040SOL    HW253050   9.677   3.959   6.039 -2.0718  0.5896  2.1909
14041SOL     OW53051   6.998   7.050   3.892 -0.0430  0.1708 -0.5842
14041SOL    HW153052   6.899   7.066   3.898  0.2575  3.1154 -2.3841
14041SOL    HW253053   7.016   6.982   3.820 -0.8467 -2.1151  1.3096
14042SOL     OW53054   0.482   1.813   3.056 -0.4602  0.0544 -0.1070
14042SOL    HW153055   0.560   1.752   3.040  0.8959  1.0484  2.3201
14042SOL    HW253056   0.407   1.760   3.096  0.6784 -0.1066  1.9107
14043SOL     OW53057   7.403   0.833   4.807  0.3691  0.6275 -0.2654
14043SOL    HW153058   7.490   0.786   4.795  0.9116  1.7087 -0.6220
14043SOL    HW253059   7.328   0.772   4.782  0.9905 -0.5178  0.6312
14044SOL     OW53060   6.991   1.232   1.087 -0.6910 -0.2844 -0.2615
14044SOL    HW153061   7.082   1.253   1.125 -2.0026  2.8729  1.3013
14044SOL    HW253062   6.962   1.142   1.119  0.5830  0.0106  1.8541
14045SOL     OW53063   0.967   7.920   3.556 -0.0202 -0.7093  0.1328
14045SOL    HW153064   1.035   7.985   3.523 -0.5665  1.2003  2.6037
14045SOL    HW253065   0.988   7.895   3.651 -1.4918 -1.8742  0.1783
14046SOL     OW53066   2.422   9.934   1.683 -0.5009 -0.4367 -0.1157
14046SOL    HW153067   2.415  10.022   1.636  0.0210 -0.6389 -0.5828
14046SOL    HW253068   2.368   9.937   1.767 -1.9285 -0.2808 -1.0298
14047SOL     OW53069   7.641   1.088   6.621  0.0371  0.2242 -0.0915
14047SOL    HW153070   7.663   1.143   6.541 -4.0070 -1.8050 -2.7873
14047SOL    HW253071   7.698   1.005   6.621  1.6929  1.3463  0.4755
14048SOL     OW53072   4.115   8.352   1.769 -0.2070  0.2798  0.3986
14048SOL    HW153073   4.121   8.368   1.671  0.4489  0.9993  0.5472
14048SOL    HW253074   4.198   8.305   1.800  0.3206  1.5020  0.8691
14049SOL     OW53075   8.349   7.366   4.758  0.1172 -0.3024 -0.5154
14049SOL    HW153076   8.253   7.340   4.753 -0.2472  1.3583 -3.6802
14049SOL    HW253077   8.398   7.323   4.682  1.1877  1.5144 -0.8672
14050SOL     OW53078   8.092   1.260   1.042 -0.0397  0.3090 -0.3602
14050SOL    HW153079   8.169   1.198   1.030  0.0481  0.7814 -2.5498
14050SOL    HW253080   8.051   1.247   1.132  3.0055  0.5137  1.1176
14051SOL     OW53081   2.240   1.897   3.234 -0.1588  0.5670  0.3453
14051SOL    HW153082   2.310   1.890   3.306  1.8777 -2.1175 -1.7582
14051SOL    HW253083   2.248   1.985   3.188  1.1149  0.7200  0.8434
14052SOL     OW53084   0.926   2.122   4.160  0.0762 -0.0461  0.5425
14052SOL    HW153085   0.858   2.118   4.086  0.4003  0.1405  0.2352
14052SOL    HW253086   0.879   2.124   4.248 -0.3164 -0.0782  0.3355
14053SOL     OW53087   8.645   1.092   1.554  0.1321 -0.1422 -0.0055
14053SOL    HW153088   8.725   1.153   1.562  0.5549 -0.7668  0.5652
14053SOL    HW253089   8.562   1.147   1.552  0.6130  0.5861 -1.5449
14054SOL     OW53090   8.792   0.803   4.991  0.3278 -0.0079  0.8192
14054SOL    HW153091   8.740   0.718   4.998 -1.2972  0.9250  0.3949
14054SOL    HW253092   8.890   0.783   4.985  0.0559 -1.7772  2.0278
14055SOL     OW53093   9.351   4.342   6.575  0.2392  0.1447 -0.5322
14055SOL    HW153094   9.295   4.367   6.496  0.0332  0.0920 -0.4026
14055SOL    HW253095   9.296   4.348   6.659  1.0811  2.5029 -0.1112
14056SOL     OW53096   5.776   1.223   2.590  0.2724  0.1860  0.0457
14056SOL    HW153097   5.761   1.231   2.689 -0.7117  0.4551 -0.1212
14056SOL    HW253098   5.874   1.213   2.572  0.3156 -1.5424  1.1595
14057SOL     OW53099   1.744   6.489   6.739 -0.2071 -0.8665  0.0222
14057SOL    HW153100   1.774   6.452   6.652  0.2438  1.5081 -0.8786
14057SOL    HW253101   1.824   6.522   6.791 -0.6364 -0.5416  0.4867
14058SOL     OW53102   8.848   8.928   4.924 -0.0411 -0.2585  0.3257
14058SOL    HW153103   8.809   8.837   4.912 -0.9600  0.1311  0.2415
14058SOL    HW253104   8.845   8.953   5.021  0.6825 -0.5230  0.4157
14059SOL     OW53105   6.688   1.760   4.054 -0.2755  0.0019  1.0435
14059SOL    HW153106   6.787   1.762   4.068 -0.1566  1.9072  0.0178
14059SOL    HW253107   6.666   1.689   3.987  0.4559  0.0027  0.7890
14060SOL     OW53108   6.324   2.296   3.731 -0.5336  0.4310  0.0417
14060SOL    HW153109   6.237   2.343   3.715  0.0748  1.4918 -0.1653
14060SOL    HW253110   6.314   2.199   3.709 -1.3011  0.7952 -1.2126
14061SOL     OW53111   8.769   5.268   0.380 -0.6009 -0.1980 -0.1974
14061SOL    HW153112   8.854   5.310   0.410 -0.3630 -0.1993 -0.8486
14061SOL    HW253113   8.709   5.338   0.342 -0.5157 -0.3300 -0.5793
14062SOL     OW53114   0.317   2.203   1.079  0.5068  0.0276 -0.1150
14062SOL    HW153115   0.307   2.139   1.002  0.0020  0.1666 -0.1671
14062SOL    HW253116   0.382   2.274   1.054  1.0480 -0.4474 -0.0700
14063SOL     OW53117   3.703   2.305   3.466  0.5005  0.5117 -0.2424
14063SOL    HW153118   3.668   2.269   3.380  0.8634  1.4735 -0.8005
14063SOL    HW253119   3.766   2.381   3.448 -0.8065  1.9146  0.9203
14064SOL     OW53120   8.902   5.948   5.590 -0.0959 -0.4929 -0.2718
14064SOL    HW153121   8.990   5.968   5.548 -0.4591  0.4340 -0.6032
14064SOL    HW253122   8.853   5.881   5.533  0.2143 -0.6911 -0.3065
14065SOL     OW53123   1.670   7.624   6.266 -0.3847 -0.4411  0.3467
14065SOL    HW153124   1.596   7.660   6.324  0.5397 -1.1803  2.0249
14065SOL    HW253125   1.646   7.531   6.238  0.4348 -1.1588  1.9320
14066SOL     OW53126   6.408   3.844   0.792  0.2046 -0.2510 -0.3357
14066SOL    HW153127   6.322   3.810   0.828  0.2423  1.8324  1.8646
14066SOL    HW253128   6.481   3.780   0.812 -0.3978 -0.7969  0.1188
14067SOL     OW53129   9.685   9.086   0.494 -0.3406 -0.1505  0.5976
14067SOL    HW153130   9.695   9.184   0.509 -2.0625  0.3350 -1.1884
14067SOL    HW253131   9.768   9.049   0.452 -1.3084  1.4602 -2.9221
14068SOL     OW53132   1.685   6.347   5.795 -0.3489 -0.0470 -0.0582
14068SOL    HW153133   1.703   6.406   5.873 -0.0235  1.4757 -1.2514
14068SOL    HW253134   1.771   6.323   5.750 -0.6510  0.5383 -0.9756
14069SOL     OW53135   3.363   2.160   3.712  0.1853 -0.2895 -0.5267
14069SOL    HW153136   3.271   2.124   3.722  0.2568 -0.3150  0.0473
14069SOL    HW253137   3.414   2.145   3.797  1.2832 -1.9148 -1.4480
14070SOL     OW53138   3.187   4.793   2.902  0.2934  0.2684 -0.6723
14070SOL    HW153139   3.177   4.793   3.001  2.5475  2.0192 -0.3865
14070SOL    HW253140   3.241   4.713   2.873  0.0015 -0.0101 -0.4405
14071SOL     OW53141   7.179   0.437   4.640 -0.6575  0.3464  0.0079
14071SOL    HW153142   7.193   0.437   4.541 -0.5513  0.9777  0.0222
14071SOL    HW253143   7.223   0.356   4.679 -3.8556 -1.9634 -0.8850
14072SOL     OW53144   2.188   3.187   1.287  0.0914 -0.5198  0.2739
14072SOL    HW153145   2.114   3.250   1.267  0.6707  0.2517  0.5176
14072SOL    HW253146   2.246   3.225   1.359  1.4444 -0.5293 -0.7786
14073SOL     OW53147   1.717   4.641   5.213 -0.1554  0.1415 -0.1211
14073SOL    HW153148   1.700   4.739   5.210 -0.2704  0.2232  1.9998
14073SOL    HW253149   1.641   4.595   5.260  0.2526 -0.8549 -0.4229
14074SOL     OW53150   5.369   4.170   1.530 -0.2267  0.6273  0.5011
14074SOL    HW153151   5.380   4.231   1.608 -0.5531  1.5464 -0.1727
14074SOL    HW253152   5.441   4.100   1.533  0.2405  1.1267  1.1889
14075SOL     OW53153   9.842   6.550   5.295  0.0267  0.2334 -0.1492
14075SOL    HW153154   9.909   6.620   5.319  1.7188 -1.0570 -0.9930
14075SOL    HW253155   9.853   6.526   5.198 -2.4044  0.7757 -0.6073
14076SOL     OW53156   3.882   6.280   0.570 -0.2419  0.2230 -0.4016
14076SOL    HW153157   3.837   6.369   0.555  0.9344  0.9279  0.1729
14076SOL    HW253158   3.910   6.242   0.482  3.2011  2.5341 -0.4099
14077SOL     OW53159   0.120   7.323   0.980 -0.2996  0.1409  0.3636
14077SOL    HW153160   0.031   7.284   0.954 -1.4317  1.6011  1.9660
14077SOL    HW253161   0.187   7.301   0.909 -2.2067  0.0259 -1.4787
14078SOL     OW53162   5.833   8.569   2.007 -0.1115 -0.4056 -0.1600
14078SOL    HW153163   5.791   8.629   1.939 -1.0375 -1.0398 -0.1565
14078SOL    HW253164   5.765   8.506   2.043  0.4167 -0.2429  1.1908
14079SOL     OW53165   1.368   3.706   5.985  0.2929 -0.6561 -0.1790
14079SOL    HW153166   1.275   3.669   5.990 -0.2997  0.8343 -0.1768
14079SOL    HW253167   1.400   3.701   5.890 -1.4676  2.8742 -1.0258
14080SOL     OW53168   3.490   2.239   1.073  0.0453  0.3243 -0.2346
14080SOL    HW153169   3.562   2.309   1.077  0.3736  0.1117 -2.1793
14080SOL    HW253170   3.431   2.256   0.994 -0.1457 -1.3382 -0.4691
14081SOL     OW53171   6.232   9.477   3.055  0.2496  0.3879 -0.1958
14081SOL    HW153172   6.314   9.511   3.102 -0.6795  0.5639  1.3303
14081SOL    HW253173   6.178   9.422   3.119 -0.9836  0.5353 -1.0960
14082SOL     OW53174   9.891   3.730   4.262 -0.0650  0.4543  0.5174
14082SOL    HW153175   9.812   3.673   4.283 -0.4662  1.0980  0.7561
14082SOL    HW253176   9.860   3.822   4.237  0.2282 -0.6741 -4.6122
14083SOL     OW53177   9.233   1.464   1.650  0.1142 -0.0677 -0.0929
14083SOL    HW153178   9.195   1.498   1.736  2.0123  0.5846  0.5115
14083SOL    HW253179   9.164   1.471   1.578 -0.3762  2.5987  0.6010
14084SOL     OW53180   0.267   7.403   0.449  0.2432  0.0914  0.4851
14084SOL    HW153181   0.362   7.376   0.437  0.4371  0.2871  1.5411
14084SOL    HW253182   0.208   7.337   0.403  0.9369  0.6689 -1.2612
14085SOL     OW53183   2.680   9.957   1.843  0.9416  0.1724 -0.0318
14085SOL    HW153184   2.597   9.970   1.790  0.7501 -2.4568 -0.4489
14085SOL    HW253185   2.755  10.007   1.801  0.1352  0.4962 -1.0997
14086SOL     OW53186   3.590   4.881   1.972  0.2308  0.2654 -0.2647
14086SOL    HW153187   3.506   4.933   1.955  1.1188  1.8975  0.2187
14086SOL    HW253188   3.613   4.887   2.070  1.2831  0.4138 -0.5168
14087SOL     OW53189   0.977   8.799   4.957 -0.3235 -0.1500  0.0394
14087SOL    HW153190   0.918   8.792   4.876  0.0811  0.2562 -0.2882
14087SOL    HW253191   1.053   8.861   4.939  0.0640 -0.4655  0.5572
14088SOL     OW53192   1.319   3.088   1.420 -0.0840  0.3484  0.3995
14088SOL    HW153193   1.248   3.058   1.483 -0.4031  0.5379  0.1302
14088SOL    HW253194   1.283   3.159   1.359  0.0689 -0.2152 -0.3520
14089SOL     OW53195   1.971   2.236   2.131  0.1982 -0.1468 -0.6597
14089SOL    HW153196   1.887   2.279   2.098 -1.6128 -1.6301  1.7376
14089SOL    HW253197   2.038   2.306   2.154 -2.3899  1.4614  2.4507
14090SOL     OW53198   5.942   7.602   2.724 -0.5859 -0.1442 -0.1872
14090SOL    HW153199   5.895   7.675   2.774 -2.9268 -0.6002 -1.6392
14090SOL    HW253200   5.886   7.520   2.724  0.9289 -1.2018 -0.6510
14091SOL     OW53201   3.372   3.090   4.631 -0.2544 -0.3315  0.1608
14091SOL    HW153202   3.451   3.136   4.589  0.4895 -0.6195  1.2304
14091SOL    HW253203   3.288   3.126   4.591  0.3679  0.9339 -0.0367
14092SOL     OW53204   2.748   0.556   2.639  0.1533 -0.4050 -0.5709
14092SOL    HW153205   2.772   0.592   2.549 -0.7457  0.2637 -0.5554
14092SOL    HW253206   2.806   0.599   2.709  0.1570 -0.1643 -0.7235
14093SOL     OW53207   8.938   8.209   1.508 -0.0848  0.2828 -0.0319
14093SOL    HW153208   9.010   8.150   1.545 -2.4344 -2.8898 -0.3263
14093SOL    HW253209   8.936   8.201   1.408 -0.0288  1.3477 -0.1237
14094SOL     OW53210   7.549   1.504   0.205 -0.3987 -0.2504 -0.2537
14094SOL    HW153211   7.459   1.475   0.174  0.0325 -1.9066 -0.0061
14094SOL    HW253212   7.539   1.574   0.276 -1.5073 -1.2388  0.5789
14095SOL     OW53213   6.418   1.781   4.132 -0.7900 -0.2211  0.2896
14095SOL    HW153214   6.434   1.815   4.225 -0.0663  1.9011 -0.5802
14095SOL    HW253215   6.502   1.786   4.079 -1.3036 -0.9972 -0.6196
14096SOL     OW53216   1.855   5.129   4.152  0.5279  0.3675 -0.3201
14096SOL    HW153217   1.864   5.089   4.061  0.3026 -0.6623  0.1006
14096SOL    HW253218   1.874   5.227   4.148 -0.0478  0.4326 -1.5763
14097SOL     OW53219   1.061   4.448   1.895 -0.0796  0.2500  0.5078
14097SOL    HW153220   1.147   4.437   1.945  0.2010  0.3467  0.0593
14097SOL    HW253221   1.008   4.523   1.935  0.4254  0.7406  0.2747
14098SOL     OW53222   0.780   3.391   4.603 -1.0242  0.3455 -0.4203
14098SOL    HW153223   0.789   3.467   4.667 -3.1497  0.4614 -0.2534
14098SOL    HW253224   0.852   3.398   4.534  2.7036 -0.9498  3.0883
14099SOL     OW53225   8.604   1.017   3.153  0.1425 -0.0667  0.3928
14099SOL    HW153226   8.524   1.078   3.150  0.6253  0.5523 -0.0189
14099SOL    HW253227   8.595   0.954   3.230  0.1549  1.2437  1.4905
14100SOL     OW53228   2.841   0.700   1.081  0.0685 -0.6407  0.3709
14100SOL    HW153229   2.917   0.670   1.024  0.9297  0.0496  1.1517
14100SOL    HW253230   2.827   0.799   1.068  2.8847  0.3870  4.3228
14101SOL     OW53231   0.184   7.128   1.200 -0.1754  0.4722 -0.7062
14101SOL    HW153232   0.281   7.102   1.199 -0.3564 -0.2828  1.0175
14101SOL    HW253233   0.175   7.221   1.165  1.2328  0.7501 -0.3807
14102SOL     OW53234   0.881   4.945   5.300 -0.3204 -0.4319 -0.0529
14102SOL    HW153235   0.972   4.964   5.262 -0.6067  0.8938 -0.1118
14102SOL    HW253236   0.836   4.874   5.245  0.2931 -0.4013 -0.6097
14103SOL     OW53237   4.266   3.267   3.357  0.0434 -0.5675  0.0709
14103SOL    HW153238   4.171   3.238   3.347 -0.6238  1.0721  1.4432
14103SOL    HW253239   4.270   3.355   3.403  2.2616 -0.8657  0.5367
14104SOL     OW53240   2.424   4.648   6.447 -0.0215  0.2809  0.0059
14104SOL    HW153241   2.516   4.614   6.428 -0.8541 -1.0163 -1.9506
14104SOL    HW253242   2.359   4.572   6.444 -1.0990  1.0635  2.0293
14105SOL     OW53243   1.503   7.966   5.700 -0.3954  0.3433 -0.0042
14105SOL    HW153244   1.592   8.001   5.670 -1.8013  2.7781 -1.4963
14105SOL    HW253245   1.459   7.918   5.624 -1.9178  2.3875 -0.4549
14106SOL     OW53246   3.012   4.552   3.742 -0.3693 -0.0605 -0.1523
14106SOL    HW153247   2.985   4.635   3.693  2.1980 -0.7008 -2.8158
14106SOL    HW253248   3.106   4.528   3.716 -0.6847 -3.1678  1.4372
14107SOL     OW53249   8.696   0.565   1.662 -0.2348  0.2953 -0.5655
14107SOL    HW153250   8.756   0.646   1.658  2.4030 -1.6262 -1.3114
14107SOL    HW253251   8.630   0.576   1.736  0.1061  3.0980 -0.6187
14108SOL     OW53252   1.991   7.563   0.942  0.2515  0.1448  0.1013
14108SOL    HW153253   1.965   7.546   0.846 -0.8550  0.1123  0.4015
14108SOL    HW253254   1.958   7.489   0.999  2.7338 -0.9153  0.2420
14109SOL     OW53255   0.163   9.029   4.784  0.1269  0.4112 -0.6141
14109SOL    HW153256   0.199   8.939   4.760 -1.2274 -0.4196  0.3756
14109SOL    HW253257   0.075   9.043   4.739  0.3953  1.3082 -0.8753
14110SOL     OW53258   8.355   8.575   2.812  0.4491 -0.5230 -0.3063
14110SOL    HW153259   8.336   8.585   2.910 -0.7867 -2.3337 -0.3309
14110SOL    HW253260   8.453   8.580   2.796  0.5854  0.9350  0.8792
14111SOL     OW53261   7.674   1.777   1.028  0.1240  0.0672 -0.3501
14111SOL    HW153262   7.731   1.855   1.053  2.9407 -1.6625 -1.1679
14111SOL    HW253263   7.691   1.753   0.932 -0.1891 -1.9874  0.0963
14112SOL     OW53264   8.996   1.591   4.778  0.4644  0.6332 -0.3648
14112SOL    HW153265   9.013   1.493   4.781  0.1805  0.5711 -0.6608
14112SOL    HW253266   9.041   1.630   4.697  0.9275  0.8184 -0.0183
14113SOL     OW53267   4.968   8.446   4.375 -0.0314 -0.1830 -0.5601
14113SOL    HW153268   4.883   8.399   4.398 -0.0205  0.1479  0.1702
14113SOL    HW253269   4.992   8.426   4.280 -0.9675 -0.2089 -0.7985
14114SOL     OW53270   3.808   8.913   1.990 -0.6519  0.1167  0.0527
14114SOL    HW153271   3.799   9.001   2.037  0.3643 -0.1298  0.7195
14114SOL    HW253272   3.874   8.920   1.915  0.3614 -0.3724  0.8782
14115SOL     OW53273   3.372   8.992   4.118 -0.6312  0.5317  0.2075
14115SOL    HW153274   3.283   9.022   4.084 -0.9600 -0.3226  0.2991
14115SOL    HW253275   3.369   8.894   4.138  0.8384  0.1340 -1.4210
14116SOL     OW53276   0.470   8.521   3.746 -0.6739  0.1467 -0.6511
14116SOL    HW153277   0.438   8.605   3.788 -1.3841 -0.8857  0.9278
14116SOL    HW253278   0.410   8.496   3.670 -1.4858  0.1595 -0.0238
14117SOL     OW53279   5.517   8.950   3.572 -0.7657 -0.2834  0.1894
14117SOL    HW153280   5.459   8.995   3.639  0.0929 -0.6750  1.2058
14117SOL    HW253281   5.613   8.972   3.590 -0.2330 -3.2515  1.2904
14118SOL     OW53282   2.803   0.109   1.574  0.0220  0.1206  0.2941
14118SOL    HW153283   2.842   0.164   1.500  0.4413 -0.5222  0.0333
14118SOL    HW253284   2.722   0.155   1.610  0.1690  0.7382 -0.1551
14119SOL     OW53285   0.047   9.172   2.920 -0.3087  0.0857 -0.1799
14119SOL    HW153286   0.101   9.110   2.977  1.8894  2.1650  0.0648
14119SOL    HW253287   0.101   9.253   2.898 -3.5193  2.5521  0.5871
14120SOL     OW53288   6.369   4.333   0.502 -0.5182 -0.0027 -0.5536
14120SOL    HW153289   6.467   4.328   0.521 -0.5683  2.2662  0.5313
14120SOL    HW253290   6.351   4.302   0.409  0.9887 -2.1330 -0.1717
14121SOL     OW53291   2.827   9.916   3.958  0.2959  0.1258  0.4484
14121SOL    HW153292   2.883   9.900   3.876  0.1953 -0.8075  0.5530
14121SOL    HW253293   2.847   9.844   4.026  0.9253  1.3046  1.5407
14122SOL     OW53294   4.767   9.400   1.943  0.1955 -0.8358 -0.0257
14122SOL    HW153295   4.747   9.440   1.854 -1.9030 -1.5794  0.0729
14122SOL    HW253296   4.687   9.349   1.975  1.8439 -2.7920  1.0924
14123SOL     OW53297   5.028   7.644   3.272  0.0585  0.2283  0.4124
14123SOL    HW153298   5.091   7.604   3.339  0.3027 -1.1286 -0.5884
14123SOL    HW253299   5.020   7.742   3.287  2.4580  0.4393  0.5376
14124SOL     OW53300   8.914   8.236   2.429  0.6023 -0.0179  0.2476
14124SOL    HW153301   9.012   8.232   2.406  0.3111 -0.4433 -0.9551
14124SOL    HW253302   8.865   8.284   2.357 -0.1525 -0.2283  0.6164
14125SOL     OW53303   7.364   9.434   1.414 -0.0989 -0.2224 -0.4774
14125SOL    HW153304   7.344   9.437   1.512  1.1750  0.9098 -0.2340
14125SOL    HW253305   7.439   9.370   1.397  2.1135  2.1929 -0.2228
14126SOL     OW53306   1.734   8.282   2.894 -0.4532  0.8312  0.1891
14126SOL    HW153307   1.719   8.351   2.823  0.8209  0.6673 -0.2427
14126SOL    HW253308   1.830   8.257   2.897 -0.5808  0.4590  1.6465
14127SOL     OW53309   8.006   2.331   0.114 -0.2483  0.6754  0.1448
14127SOL    HW153310   8.094   2.286   0.128 -1.1105 -1.3893 -0.9288
14127SOL    HW253311   7.949   2.317   0.195 -0.7580 -0.7755 -0.4480
14128SOL     OW53312   3.647   7.711   3.904  0.5057  0.0765  0.0072
14128SOL    HW153313   3.547   7.709   3.900  0.5503  1.0135 -2.2837
14128SOL    HW253314   3.677   7.770   3.979 -0.6235 -1.3661  1.6427
14129SOL     OW53315   3.219   3.221   5.198 -0.3237  0.1585 -0.4432
14129SOL    HW153316   3.236   3.152   5.268 -4.8714 -0.1516  0.4858
14129SOL    HW253317   3.225   3.312   5.240 -1.3658  0.0377 -0.0204
14130SOL     OW53318   2.869   5.059   6.257 -0.5436  0.0095  0.2319
14130SOL    HW153319   2.812   5.069   6.175 -0.5048  1.2736  0.3478
14130SOL    HW253320   2.954   5.012   6.233  0.2814  1.9771 -0.8503
14131SOL     OW53321   2.548   4.689   2.820 -0.2225 -0.3585  0.2443
14131SOL    HW153322   2.564   4.774   2.771 -1.9303 -0.1393  0.0346
14131SOL    HW253323   2.627   4.669   2.878  0.3558  1.1687  0.0200
14132SOL     OW53324   0.387   3.183   3.277 -0.4899  0.4928 -0.5578
14132SOL    HW153325   0.382   3.106   3.213 -1.1660  0.0560  0.0093
14132SOL    HW253326   0.478   3.223   3.275  0.5142 -1.6445  0.6404
14133SOL     OW53327   8.944   0.815   4.044  0.6804  0.7874  0.0166
14133SOL    HW153328   8.879   0.871   4.096  0.8715 -1.0175  2.3140
14133SOL    HW253329   9.037   0.841   4.068  0.7698 -0.4016  1.0576
14134SOL     OW53330   7.530   0.667   3.354  0.4267 -0.2727 -0.5589
14134SOL    HW153331   7.529   0.577   3.310  1.5119 -0.4690 -0.1981
14134SOL    HW253332   7.563   0.659   3.448 -1.7728  0.1708  0.2614
14135SOL     OW53333   0.503   8.388   5.002  0.1639  0.4894  0.4236
14135SOL    HW153334   0.538   8.331   5.077 -0.2526 -0.8189 -0.3489
14135SOL    HW253335   0.407   8.367   4.987  0.8549 -1.1013 -2.1020
14136SOL     OW53336   9.888   7.683   0.959 -0.1482 -0.1913 -0.1915
14136SOL    HW153337   9.978   7.724   0.953 -1.1687  2.0714 -0.4002
14136SOL    HW253338   9.839   7.696   0.873 -0.7904 -1.1369  0.0187
14137SOL     OW53339   5.473   1.108   4.567  0.3460 -0.3136 -0.1180
14137SOL    HW153340   5.436   1.016   4.575 -1.1522  0.3270  0.6181
14137SOL    HW253341   5.501   1.140   4.658  0.2263  0.2057 -0.2638
14138SOL     OW53342   2.353   7.895   0.608  0.6861 -0.0417  0.5723
14138SOL    HW153343   2.368   7.835   0.530  1.7506 -2.3288  2.4396
14138SOL    HW253344   2.286   7.853   0.670 -1.3470  2.4647  0.2008
14139SOL     OW53345   4.492   2.388   2.844  0.2960 -0.1005 -0.5293
14139SOL    HW153346   4.411   2.444   2.861  0.9070  0.6769 -0.1539
14139SOL    HW253347   4.495   2.312   2.910  1.3787  1.5084  1.3163
14140SOL     OW53348   4.951   3.074   1.998 -0.0217 -0.3300  0.0336
14140SOL    HW153349   4.946   3.002   1.929 -1.6098 -0.9575  0.7913
14140SOL    HW253350   4.949   3.163   1.953  0.1625 -0.7396 -0.7948
14141SOL     OW53351   8.890   7.731   0.187 -0.3295 -0.5322  0.9418
14141SOL    HW153352   8.963   7.691   0.132  0.2290  0.7646  0.7459
14141SOL    HW253353   8.923   7.812   0.233 -1.3892 -0.4582  1.5823
14142SOL     OW53354   5.674   4.125   0.791 -0.0681  0.2633  0.2841
14142SOL    HW153355   5.627   4.166   0.713  1.1132  0.8972 -0.1087
14142SOL    HW253356   5.628   4.152   0.876 -0.0064  1.4280 -0.0480
14143SOL     OW53357   4.752   8.436   4.929  0.1721  0.0073 -0.5797
14143SOL    HW153358   4.784   8.351   4.970  0.3468  0.4457  0.1903
14143SOL    HW253359   4.658   8.454   4.958 -0.1666 -0.3715 -1.4364
14144SOL     OW53360   4.633   4.988   0.993 -0.5111 -0.2205 -0.0936
14144SOL    HW153361   4.628   4.897   0.951  1.2921  0.2346 -1.3953
14144SOL    HW253362   4.556   5.044   0.962  0.1291 -0.2936 -1.9158
14145SOL     OW53363   9.008   4.598   1.109  0.5462 -0.0462 -0.2663
14145SOL    HW153364   9.100   4.559   1.110  0.7908  0.5419  1.2109
14145SOL    HW253365   8.950   4.550   1.175  0.4885  1.1922  0.6042
14146SOL     OW53366   7.326   2.857   1.615 -0.2187 -0.0913 -0.2826
14146SOL    HW153367   7.379   2.898   1.541 -1.2956 -0.2035 -1.1338
14146SOL    HW253368   7.252   2.801   1.577  1.0481 -2.6316  0.8601
14147SOL     OW53369   0.221   5.741   6.026  0.2238  0.0896  0.1047
14147SOL    HW153370   0.292   5.755   5.957  0.0604 -1.0127 -0.2914
14147SOL    HW253371   0.264   5.710   6.111  0.4189  1.3923  0.4940
14148SOL     OW53372   1.212   4.706   1.822 -0.0762  0.0910  0.2718
14148SOL    HW153373   1.255   4.707   1.912  0.1638  1.4265  0.1530
14148SOL    HW253374   1.248   4.630   1.769 -0.3412 -0.8014  1.3557
14149SOL     OW53375   5.537   4.213   1.033 -0.2889 -0.7860  1.0259
14149SOL    HW153376   5.537   4.189   1.130 -2.1893 -2.4936  0.6400
14149SOL    HW253377   5.443   4.233   1.004  0.6101  2.3762  0.1480
14150SOL     OW53378   8.703   6.162   5.174 -0.0730 -0.7159  0.2207
14150SOL    HW153379   8.658   6.251   5.166  0.5954 -0.5357 -1.8090
14150SOL    HW253380   8.746   6.155   5.264 -1.3321  0.4344  0.9278
14151SOL     OW53381   0.436   0.920   3.679 -0.4361 -0.3618 -0.2188
14151SOL    HW153382   0.450   0.825   3.649 -0.0223 -0.8683  1.5180
14151SOL    HW253383   0.513   0.949   3.735 -0.5650  1.0098 -0.7475
14152SOL     OW53384   6.197   0.038   5.130 -0.0153  0.0421 -0.0627
14152SOL    HW153385   6.242  -0.049   5.108 -1.8654 -1.2828  1.2634
14152SOL    HW253386   6.265   0.111   5.130  1.6433 -1.4532 -0.7965
14153SOL     OW53387   4.223   4.297   2.192  0.2092  0.1756  0.6327
14153SOL    HW153388   4.193   4.310   2.098 -1.4754 -0.1959  1.1046
14153SOL    HW253389   4.274   4.211   2.199 -1.5794 -0.9236  0.4842
14154SOL     OW53390   6.690   0.826   4.898  0.2632  0.0072  0.8157
14154SOL    HW153391   6.779   0.834   4.854 -0.1880 -0.7712 -0.2869
14154SOL    HW253392   6.656   0.732   4.888  0.6409 -0.5039  3.8476
14155SOL     OW53393   8.728   7.002   4.745  0.0906  0.0464 -0.0107
14155SOL    HW153394   8.643   7.002   4.693  0.6476  1.1027 -0.9591
14155SOL    HW253395   8.750   7.096   4.772  0.6143 -0.3056  0.7939
14156SOL     OW53396   5.849   0.185   5.385  0.7202  0.1462  0.1158
14156SOL    HW153397   5.903   0.262   5.420  1.1982  0.7043 -1.7992
14156SOL    HW253398   5.767   0.174   5.441  0.8720  1.7767  0.7007
14157SOL     OW53399   3.783   1.175   3.025  0.0705  0.1270  0.1820
14157SOL    HW153400   3.738   1.179   2.935 -1.6449  0.7505  1.0508
14157SOL    HW253401   3.751   1.094   3.074  0.8828 -0.1194  0.3182
14158SOL     OW53402   4.338   7.151   3.445 -0.1838  0.4551 -0.2457
14158SOL    HW153403   4.420   7.128   3.498 -1.2792  0.8137  1.6565
14158SOL    HW253404   4.259   7.150   3.505 -1.5256  0.5387 -1.9837
14159SOL     OW53405   4.990   0.523   3.522  0.1412 -0.7200 -0.1742
14159SOL    HW153406   5.024   0.570   3.441 -0.5287  1.7161  0.9023
14159SOL    HW253407   5.066   0.479   3.569  0.6845 -1.2919 -1.5561
14160SOL     OW53408   9.382   3.814   4.493 -0.3362  0.6415 -0.0959
14160SOL    HW153409   9.316   3.740   4.485  0.2838 -0.0830  1.1751
14160SOL    HW253410   9.392   3.861   4.405  0.5442 -1.9023 -1.4210
14161SOL     OW53411   2.994   9.754   3.456  0.0088  0.1940  0.0735
14161SOL    HW153412   3.059   9.826   3.481  0.8615 -1.1825  1.8959
14161SOL    HW253413   2.913   9.761   3.514 -0.5913  0.6169 -0.8000
14162SOL     OW53414   5.636   1.300   3.673 -0.2498 -0.3320 -0.1978
14162SOL    HW153415   5.707   1.362   3.706 -0.9353  0.1783  0.3318
14162SOL    HW253416   5.674   1.208   3.660  0.7169  0.1519 -0.7934
14163SOL     OW53417   8.661   5.918   4.612 -0.3653 -0.7552 -0.1901
14163SOL    HW153418   8.620   5.888   4.699 -0.4313 -0.9505 -0.2866
14163SOL    HW253419   8.756   5.889   4.608  0.2722  1.1250  0.7432
14164SOL     OW53420   5.010   2.854   0.234  0.4727 -0.5657 -0.1880
14164SOL    HW153421   4.943   2.905   0.180 -0.1790 -1.7561 -0.5151
14164SOL    HW253422   5.020   2.762   0.197  2.1290 -0.4865 -0.0003
14165SOL     OW53423   9.512   1.923   3.996 -0.0826  0.1936 -0.1053
14165SOL    HW153424   9.424   1.968   4.009  0.2193  0.6353  0.4470
14165SOL    HW253425   9.574   1.949   4.070  0.6926  0.3293 -0.7940
14166SOL     OW53426   1.670   2.136   0.858 -0.1831  0.1929 -0.1371
14166SOL    HW153427   1.625   2.101   0.941 -1.1368 -1.9764 -1.5449
14166SOL    HW253428   1.601   2.176   0.798  0.1927 -0.2696 -0.8768
14167SOL     OW53429   0.193   0.451   2.914 -0.1387  0.0344 -0.3388
14167SOL    HW153430   0.202   0.362   2.959  0.1047 -0.7484 -1.9033
14167SOL    HW253431   0.249   0.518   2.962  2.8610 -1.5523 -1.4393
14168SOL     OW53432   5.342   1.531   2.351  0.1242 -0.2797  0.0627
14168SOL    HW153433   5.322   1.447   2.302 -2.9112  0.1657  0.4180
14168SOL    HW253434   5.256   1.574   2.381  1.4984  3.6111 -1.2303
14169SOL     OW53435   3.489   5.852   0.277  0.1267 -0.0894 -0.2311
14169SOL    HW153436   3.525   5.759   0.281  1.9295  0.5747 -0.2917
14169SOL    HW253437   3.458   5.872   0.184 -0.4044 -0.6761 -0.1803
14170SOL     OW53438   2.673   7.338   3.058 -0.0897  0.8457 -0.0832
14170SOL    HW153439   2.765   7.314   3.027 -0.7693  0.8795 -2.1873
14170SOL    HW253440   2.638   7.266   3.118  0.2224 -0.5441 -1.5516
14171SOL     OW53441   8.710   0.955   4.124  0.2883 -0.7021 -0.5357
14171SOL    HW153442   8.751   1.046   4.120  1.8641 -1.4483 -2.0286
14171SOL    HW253443   8.644   0.952   4.199 -0.6004  1.9898 -1.1166
14172SOL     OW53444   4.654   8.950   1.909 -0.5346 -0.1474 -0.2016
14172SOL    HW153445   4.662   8.859   1.868  0.3590 -0.3217  0.3472
14172SOL    HW253446   4.567   8.956   1.958 -1.1432 -0.2907 -1.2304
14173SOL     OW53447   1.806   3.942   3.485  0.3271  0.2246  0.6939
14173SOL    HW153448   1.813   4.006   3.562 -0.4492  2.0875 -0.7257
14173SOL    HW253449   1.724   3.887   3.495  0.5270  0.0647  1.4851
14174SOL     OW53450   0.407   5.823   0.459  0.0370 -0.2235 -0.1758
14174SOL    HW153451   0.494   5.831   0.506  0.5541  0.6270 -1.2537
14174SOL    HW253452   0.356   5.909   0.466 -1.0692 -0.9735  1.1247
14175SOL     OW53453   9.718   2.473   0.440  0.3962 -0.2176 -0.2235
14175SOL    HW153454   9.735   2.390   0.387 -0.5349 -1.5838  1.5135
14175SOL    HW253455   9.763   2.465   0.529  0.3909  1.2016 -0.0825
14176SOL     OW53456   6.767   9.959   4.016  0.1405  0.1237  0.1910
14176SOL    HW153457   6.760   9.927   4.111  1.5074  0.3316  0.3624
14176SOL    HW253458   6.759  10.059   4.014  0.4659  0.1495  0.1253
14177SOL     OW53459   0.400   5.526   0.463 -0.4124 -0.2729 -0.2735
14177SOL    HW153460   0.401   5.625   0.478  1.0892 -0.0115 -1.9549
14177SOL    HW253461   0.450   5.480   0.537  0.9092  0.4242 -0.7222
14178SOL     OW53462   3.656   5.595   1.905 -0.5671  0.0895 -0.2578
14178SOL    HW153463   3.703   5.671   1.950  0.0762  1.4669 -3.1507
14178SOL    HW253464   3.718   5.516   1.899 -0.1358  0.4172 -0.1249
14179SOL     OW53465   0.410   2.713   5.919 -0.0930 -0.5258  1.0524
14179SOL    HW153466   0.321   2.746   5.890  1.4011  2.2188 -0.7042
14179SOL    HW253467   0.451   2.779   5.982  1.0678 -1.2883  1.1144
14180SOL     OW53468   8.656   5.691   0.720 -0.4007  0.6992 -0.5183
14180SOL    HW153469   8.628   5.780   0.755 -0.2187  2.1874 -3.9421
14180SOL    HW253470   8.750   5.696   0.686 -1.1040 -0.1438 -2.7029
14181SOL     OW53471   2.743   3.228   0.207  0.2985 -0.0319 -0.2871
14181SOL    HW153472   2.742   3.212   0.306 -2.3099 -1.1771 -0.4809
14181SOL    HW253473   2.838   3.226   0.175  1.0994 -0.8077  2.0009
14182SOL     OW53474   4.884   3.726   0.350 -0.1560 -0.4415  0.1680
14182SOL    HW153475   4.916   3.682   0.434  1.1357  0.1492 -0.0147
14182SOL    HW253476   4.845   3.657   0.289  0.2878 -1.0888  0.6089
14183SOL     OW53477   1.108   5.428   3.607 -0.1203 -0.0715  0.6192
14183SOL    HW153478   1.178   5.498   3.594 -0.8357  0.0701 -2.9111
14183SOL    HW253479   1.141   5.341   3.571 -1.1889 -0.3495  0.3040
14184SOL     OW53480   6.919   7.413   3.924 -0.0722  0.3459  0.1306
14184SOL    HW153481   6.924   7.314   3.910  0.5906  0.1672  1.5028
14184SOL    HW253482   6.917   7.459   3.835 -1.4792 -0.9369 -0.5297
14185SOL     OW53483   2.327   2.235   1.956  0.0939  0.7731  0.3535
14185SOL    HW153484   2.317   2.335   1.948  2.1781  0.9383 -0.5101
14185SOL    HW253485   2.343   2.196   1.865 -0.3165 -0.3168  0.7404
14186SOL     OW53486   8.662   6.170   4.211 -0.4113 -0.7928  0.1365
14186SOL    HW153487   8.598   6.120   4.269  0.2928 -0.2184  1.4489
14186SOL    HW253488   8.755   6.135   4.226 -0.2122 -0.6055 -0.6135
14187SOL     OW53489   8.444   2.264   2.123 -0.2441  0.7161  0.4055
14187SOL    HW153490   8.490   2.352   2.136 -1.7373  1.5596  0.2095
14187SOL    HW253491   8.492   2.211   2.054  1.8223  0.5210  1.9565
14188SOL     OW53492   0.364   0.209   3.014 -0.2575 -0.3144 -0.2971
14188SOL    HW153493   0.382   0.112   3.032  0.3338 -0.6442 -2.4909
14188SOL    HW253494   0.288   0.240   3.070  0.4344 -1.6843  1.4330
14189SOL     OW53495   7.151   0.204   3.023 -0.1771  0.1911 -0.8627
14189SOL    HW153496   7.091   0.138   3.068 -0.9134 -0.1484 -2.3045
14189SOL    HW253497   7.146   0.292   3.070  1.1939 -0.8732  1.3863
14190SOL     OW53498   4.948   4.418   1.296 -0.0184 -0.1565 -0.0483
14190SOL    HW153499   4.946   4.484   1.371  1.6310 -0.9644  0.7504
14190SOL    HW253500   4.870   4.356   1.305 -0.4022  0.3832  0.4107
14191SOL     OW53501   2.199   7.929   1.017  0.0325  0.2460  0.3724
14191SOL    HW153502   2.275   7.957   1.075  2.1614 -3.0207 -0.7319
14191SOL    HW253503   2.127   7.888   1.073 -0.5485  2.4602  1.3058
14192SOL     OW53504   3.799   6.946   0.662  0.3517 -0.3497 -0.2151
14192SOL    HW153505   3.800   7.040   0.695 -0.4719  0.1006 -1.4560
14192SOL    HW253506   3.849   6.888   0.727  2.2836  1.2010 -0.2604
14193SOL     OW53507   0.865   4.009   0.505 -0.0979  0.1243  0.0969
14193SOL    HW153508   0.923   4.086   0.528  2.2757 -1.2240 -1.1710
14193SOL    HW253509   0.918   3.924   0.509 -2.3035 -1.3162  0.1465
14194SOL     OW53510   9.731   2.901   4.674 -0.5198  0.2272  0.2125
14194SOL    HW153511   9.796   2.887   4.599 -0.4464 -0.9232  0.4974
14194SOL    HW253512   9.639   2.883   4.642 -0.6828  1.5118 -0.0917
14195SOL     OW53513   7.134   2.105   3.665 -0.4110 -0.1809  0.2115
14195SOL    HW153514   7.062   2.129   3.601 -0.4058  2.2213  1.0615
14195SOL    HW253515   7.102   2.120   3.759  0.5485 -0.8951  0.6608
14196SOL     OW53516   2.649   8.620   0.894 -0.0657 -0.0994  0.0199
14196SOL    HW153517   2.583   8.563   0.945 -0.1064  0.3882  0.5140
14196SOL    HW253518   2.672   8.700   0.949  1.8401 -0.8530  0.3550
14197SOL     OW53519   2.380   9.245   4.584 -0.6803  0.1521  0.0893
14197SOL    HW153520   2.294   9.251   4.534 -0.0860 -0.3948 -1.0267
14197SOL    HW253521   2.438   9.174   4.543  0.7381  1.2601  0.1378
14198SOL     OW53522   6.678   0.341   5.452  0.0732  0.0863  0.5219
14198SOL    HW153523   6.760   0.287   5.430 -0.4585 -0.1232 -1.0195
14198SOL    HW253524   6.676   0.422   5.394 -0.5926  0.3054  0.8505
14199SOL     OW53525   8.120   0.191   0.732 -0.4305  0.1191  0.5228
14199SOL    HW153526   8.125   0.291   0.741  0.6916  0.0455  0.8677
14199SOL    HW253527   8.211   0.156   0.708 -0.0485 -1.1036  3.4787
14200SOL     OW53528   4.722   1.753   1.433 -0.1428  0.1061  0.0197
14200SOL    HW153529   4.782   1.820   1.477 -0.2878  1.0405 -1.1984
14200SOL    HW253530   4.737   1.754   1.335  0.6078 -2.4108  0.0555
14201SOL     OW53531   1.143   2.243   2.753  0.6178 -0.3818 -0.1828
14201SOL    HW153532   1.198   2.162   2.774 -0.0725 -0.3985  1.6462
14201SOL    HW253533   1.047   2.218   2.748  0.5498  0.0613 -1.1094
14202SOL     OW53534   1.241   3.526   5.432 -0.4380 -0.3155 -0.1850
14202SOL    HW153535   1.166   3.499   5.372 -0.0370  0.7528 -1.2014
14202SOL    HW253536   1.216   3.610   5.480  0.0054 -0.0924 -0.3408
14203SOL     OW53537   7.607   0.392   4.368  0.2330 -0.4379  0.4524
14203SOL    HW153538   7.602   0.400   4.467  2.4781 -0.1029  0.5839
14203SOL    HW253539   7.535   0.332   4.335 -0.1962 -0.9982  2.3531
14204SOL     OW53540   3.594   9.432   1.335  0.2270 -0.3006 -0.0139
14204SOL    HW153541   3.681   9.466   1.371 -0.3865 -1.1478  2.3280
14204SOL    HW253542   3.541   9.509   1.298  0.6834  0.6629  1.3082
14205SOL     OW53543   1.904   5.883   1.728 -0.2168  0.0996 -0.3017
14205SOL    HW153544   1.954   5.798   1.745 -0.6907 -0.3378 -1.0317
14205SOL    HW253545   1.963   5.961   1.743 -0.1264 -0.3151  1.6475
14206SOL     OW53546   1.269   7.669   2.139 -0.4065 -0.4564  0.2757
14206SOL    HW153547   1.216   7.585   2.128 -2.2290  0.8303 -0.9856
14206SOL    HW253548   1.235   7.720   2.218 -1.2997  0.5250 -0.7218
14207SOL     OW53549   2.360   6.974   3.550 -0.4092  0.3550 -0.0361
14207SOL    HW153550   2.400   6.919   3.476  0.2399 -0.4948  0.9392
14207SOL    HW253551   2.312   7.053   3.510  0.0995  0.0192 -1.3501
14208SOL     OW53552   6.528   0.189   1.295  0.3248 -0.3380  0.2099
14208SOL    HW153553   6.527   0.244   1.378  1.2398  0.1002 -0.0718
14208SOL    HW253554   6.473   0.106   1.310  0.9525 -0.5485  1.4515
14209SOL     OW53555   4.625   9.822   4.599  0.1610 -0.6346 -0.6467
14209SOL    HW153556   4.649   9.756   4.671  1.4758  0.6267  0.0987
14209SOL    HW253557   4.536   9.863   4.620  0.6365 -0.1100  0.4145
14210SOL     OW53558   2.645   1.838   2.709 -0.0006 -0.3189  0.3845
14210SOL    HW153559   2.552   1.855   2.743  1.1106 -1.0543  4.0861
14210SOL    HW253560   2.660   1.740   2.701 -0.3452 -0.1429 -2.7431
14211SOL     OW53561   3.196   2.540   3.113 -0.1845  0.4749  0.5072
14211SOL    HW153562   3.237   2.529   3.023 -0.9870  0.5005  0.1296
14211SOL    HW253563   3.266   2.569   3.179  0.2924  1.0097 -0.2298
14212SOL     OW53564   7.261   1.935   3.938  0.0586  0.7755  0.0536
14212SOL    HW153565   7.355   1.961   3.960 -0.0874 -0.0327  1.6379
14212SOL    HW253566   7.206   2.018   3.925  1.0749  1.2526 -1.3424
14213SOL     OW53567   9.542   3.754   1.614  0.5056 -0.3557  0.0444
14213SOL    HW153568   9.546   3.673   1.673 -1.3944 -0.2198  0.3924
14213SOL    HW253569   9.449   3.764   1.577  0.6545  1.7723  0.1864
14214SOL     OW53570   1.122   6.704   4.513  0.3696 -1.2481 -0.1489
14214SOL    HW153571   1.058   6.660   4.576  1.0910 -0.4694  1.1602
14214SOL    HW253572   1.074   6.731   4.430 -0.8570 -1.2335  0.5535
14215SOL     OW53573   4.603   3.807   4.240  0.9528 -0.2800  0.6659
14215SOL    HW153574   4.600   3.884   4.303  1.2865  0.6008 -0.3909
14215SOL    HW253575   4.650   3.730   4.284  0.9048  0.2187  1.6004
14216SOL     OW53576   4.488   8.594   1.662  0.3772 -0.5318 -0.5418
14216SOL    HW153577   4.415   8.644   1.617 -0.2684  0.7629  1.8394
14216SOL    HW253578   4.461   8.499   1.674 -0.6652 -0.2043 -0.2325
14217SOL     OW53579   4.520   8.313   1.711 -0.0193 -0.1593  0.7057
14217SOL    HW153580   4.568   8.351   1.790  0.6441 -1.0285  0.7324
14217SOL    HW253581   4.573   8.238   1.672 -0.5978 -0.0925 -0.2464
14218SOL     OW53582   1.574   1.001   1.306 -1.2951  0.0680 -0.2677
14218SOL    HW153583   1.561   1.057   1.388 -2.4792  0.5287 -0.7658
14218SOL    HW253584   1.661   1.027   1.263  0.3031 -1.5079  1.8631
14219SOL     OW53585   9.009   2.055   3.027  0.0063 -0.0780 -0.2149
14219SOL    HW153586   9.046   2.144   3.051 -0.9074  0.3851 -0.5174
14219SOL    HW253587   9.042   2.027   2.937 -0.3085  0.2941 -0.4467
14220SOL     OW53588   8.095   0.155   3.355  0.3399 -0.2621 -0.3931
14220SOL    HW153589   8.115   0.233   3.414 -0.5303 -0.4835  0.1906
14220SOL    HW253590   8.080   0.188   3.261  0.9166  0.1658 -0.3397
14221SOL     OW53591   6.595   1.394   4.322 -0.8349 -0.4340  0.5751
14221SOL    HW153592   6.607   1.391   4.223 -0.0472 -0.9843  0.6755
14221SOL    HW253593   6.535   1.320   4.351 -0.5461 -0.6674  0.5770
14222SOL     OW53594   9.883   6.096   0.707  0.2710 -0.1688 -0.0183
14222SOL    HW153595   9.879   5.998   0.688 -3.9126 -0.1672  0.4689
14222SOL    HW253596   9.913   6.145   0.625 -0.8599 -1.5586 -1.2789
14223SOL     OW53597   4.203   5.922   0.500 -0.8132 -0.3245  0.6109
14223SOL    HW153598   4.227   5.959   0.590  0.8746  1.0909 -0.4015
14223SOL    HW253599   4.286   5.895   0.451 -1.6862 -0.7214 -0.6865
14224SOL     OW53600   4.402   8.834   3.949  0.1002  0.0485  0.8822
14224SOL    HW153601   4.477   8.781   3.911  1.1994  2.1671 -0.0062
14224SOL    HW253602   4.315   8.797   3.918  0.7594 -2.3062  1.7505
14225SOL     OW53603   5.383   8.166   5.057 -0.0646  0.7566 -0.1609
14225SOL    HW153604   5.427   8.081   5.084 -0.9971  0.2365 -0.2840
14225SOL    HW253605   5.449   8.241   5.066  0.2190  0.3092  1.6886
14226SOL     OW53606   5.382   8.859   4.704  0.0033 -0.1584 -0.0914
14226SOL    HW153607   5.340   8.804   4.633 -0.8795  0.4185 -0.0233
14226SOL    HW253608   5.364   8.818   4.794 -0.9942  0.4424 -0.0085
14227SOL     OW53609   6.946   0.927   1.185 -0.1064  0.0121  0.3239
14227SOL    HW153610   7.038   0.902   1.156  0.6673  2.1409  0.8374
14227SOL    HW253611   6.890   0.845   1.192  2.1213 -1.4831  1.3000
14228SOL     OW53612   9.855   5.162   3.983  0.2150  0.1540 -0.0256
14228SOL    HW153613   9.791   5.112   3.925  2.3845 -1.9770 -0.6538
14228SOL    HW253614   9.918   5.214   3.926  1.0473 -0.3046  0.4634
14229SOL     OW53615   8.564   4.185   2.122  0.0277  0.0226  0.0397
14229SOL    HW153616   8.648   4.146   2.160 -0.4449  0.8456  1.9769
14229SOL    HW253617   8.566   4.178   2.022  2.9444  1.1260 -0.0272
14230SOL     OW53618   4.549   2.152   3.983 -0.2972  0.0935 -0.5017
14230SOL    HW153619   4.486   2.187   4.052  0.8231  1.0403  0.0764
14230SOL    HW253620   4.612   2.226   3.956  0.6113 -0.8450 -0.9806
14231SOL     OW53621   1.441   7.265   6.581 -0.2753  0.8691 -0.4223
14231SOL    HW153622   1.494   7.269   6.496  1.6100  0.1727  0.6956
14231SOL    HW253623   1.385   7.182   6.580  1.1762 -0.1408 -0.1865
14232SOL     OW53624   8.991   3.407   4.456  0.1513 -0.3750  0.1416
14232SOL    HW153625   8.916   3.469   4.436 -1.7273 -1.7155  2.6476
14232SOL    HW253626   9.007   3.346   4.378 -2.1704 -0.8215 -0.0069
14233SOL     OW53627   1.342   0.950   3.170 -0.1972 -0.4525 -0.6548
14233SOL    HW153628   1.282   0.952   3.251 -2.2772  0.2442 -2.1557
14233SOL    HW253629   1.359   0.855   3.144  0.4580 -0.6826  0.5731
14234SOL     OW53630   5.087   0.666   3.313 -0.2409  0.7381 -0.2740
14234SOL    HW153631   5.008   0.712   3.272 -0.9482 -1.4575 -1.4903
14234SOL    HW253632   5.162   0.662   3.246  0.0883  0.8209  0.0879
14235SOL     OW53633   8.663   7.507   2.581 -0.4465 -0.5328 -0.2634
14235SOL    HW153634   8.761   7.488   2.581 -0.6661 -1.8754  2.0983
14235SOL    HW253635   8.627   7.498   2.488  1.4637 -1.1083 -0.9625
14236SOL     OW53636   5.149   3.163   5.169  0.0430 -0.1072 -0.2194
14236SOL    HW153637   5.170   3.068   5.145 -0.2995 -0.9880  2.7036
14236SOL    HW253638   5.202   3.224   5.111 -0.0062 -2.0817 -2.3998
14237SOL     OW53639   3.646   9.772   2.085 -0.7726 -0.6871  0.4941
14237SOL    HW153640   3.564   9.759   2.141 -0.8138  1.2367  0.9399
14237SOL    HW253641   3.619   9.807   1.995 -0.5880 -2.1789 -0.1494
14238SOL     OW53642   1.239   2.768   0.651 -0.0141  0.0347 -0.3289
14238SOL    HW153643   1.237   2.764   0.551 -1.5644  0.5803 -0.3481
14238SOL    HW253644   1.206   2.681   0.688 -1.8388  0.6856 -0.3468
14239SOL     OW53645   4.067   4.159   4.482  0.0557 -0.0637 -0.5978
14239SOL    HW153646   4.015   4.235   4.444 -0.7477 -0.1982  0.1961
14239SOL    HW253647   4.066   4.082   4.417 -0.4911  0.0395 -0.7163
14240SOL     OW53648   2.368   8.115   3.214  0.0602 -0.3793  0.2472
14240SOL    HW153649   2.336   8.035   3.264  0.9019 -0.8601  0.0177
14240SOL    HW253650   2.410   8.087   3.128 -0.2012  0.3504 -0.1265
14241SOL     OW53651   8.263   5.477   4.783  0.4266  0.3407  0.0348
14241SOL    HW153652   8.220   5.388   4.772  0.3737  0.2661  0.8193
14241SOL    HW253653   8.195   5.549   4.771  0.2061  0.2381  0.6466
14242SOL     OW53654   3.954   3.992   2.414  0.0020  0.5665 -0.1295
14242SOL    HW153655   3.957   4.074   2.356 -0.2304  2.0687  1.8925
14242SOL    HW253656   4.045   3.953   2.422  0.4398  1.6121  0.1845
14243SOL     OW53657   1.231   3.321   3.462 -0.6560  0.1410 -0.1383
14243SOL    HW153658   1.186   3.231   3.466 -1.2637  0.3720 -1.5346
14243SOL    HW253659   1.208   3.373   3.544 -0.5524 -0.8675  0.5376
14244SOL     OW53660   8.565   5.416   1.412 -0.3027 -0.0861 -0.0974
14244SOL    HW153661   8.636   5.365   1.363 -0.8114 -2.4330  1.5434
14244SOL    HW253662   8.480   5.413   1.359 -0.0613 -0.0701 -0.4860
14245SOL     OW53663   7.576   9.550   0.475 -0.0438  0.1862  0.0206
14245SOL    HW153664   7.575   9.565   0.376  3.2784 -1.7050 -0.3619
14245SOL    HW253665   7.535   9.629   0.521 -5.7701 -0.8246 -2.9894
14246SOL     OW53666   2.907   1.310   1.114 -0.5724 -0.0626  0.2536
14246SOL    HW153667   2.825   1.357   1.081 -0.0426 -0.5044 -1.7140
14246SOL    HW253668   2.977   1.377   1.138 -0.6095  0.2309 -0.4591
14247SOL     OW53669   6.437   9.624   3.598 -0.0930  0.0382 -0.0682
14247SOL    HW153670   6.339   9.607   3.588  0.0952 -0.6745 -0.8500
14247SOL    HW253671   6.487   9.540   3.573  0.6758  0.1559  1.0823
14248SOL     OW53672   2.723   4.278   1.002  0.1339  0.0124 -0.3142
14248SOL    HW153673   2.657   4.204   0.996  1.8137 -1.5226 -0.2166
14248SOL    HW253674   2.704   4.346   0.931 -1.8317 -0.1584  0.0337
14249SOL     OW53675   5.099   9.059   1.987 -0.2291  0.1519 -0.5908
14249SOL    HW153676   5.016   9.114   1.975  0.8446  1.8349 -0.3709
14249SOL    HW253677   5.150   9.057   1.901  0.3538  0.5304 -0.2553
14250SOL     OW53678   9.728   4.374   3.909 -0.2658  0.0261 -0.2793
14250SOL    HW153679   9.636   4.383   3.947  0.0471  0.1351  0.4668
14250SOL    HW253680   9.730   4.297   3.845 -0.7699 -0.2619  0.0441
14251SOL     OW53681   7.553   1.381   2.741  0.3918  0.1731 -0.1019
14251SOL    HW153682   7.648   1.378   2.708  0.5090  0.8196  0.1654
14251SOL    HW253683   7.493   1.407   2.666  0.5957  1.1188  0.0537
14252SOL     OW53684   3.268   4.049   4.291 -0.3890  0.5005 -0.3338
14252SOL    HW153685   3.315   4.056   4.379  0.8955 -0.8985 -0.8969
14252SOL    HW253686   3.282   4.134   4.240  0.3332  0.6369  0.0847
14253SOL     OW53687   9.096   9.624   1.623 -0.2499 -0.4313 -0.0197
14253SOL    HW153688   9.187   9.588   1.602  0.0866  0.5208 -0.1855
14253SOL    HW253689   9.085   9.714   1.582 -2.0788 -1.4774 -1.9701
14254SOL     OW53690   1.288   9.485   1.402 -0.0825  0.5830  0.9861
14254SOL    HW153691   1.222   9.558   1.386 -0.8530 -0.4386 -0.7268
14254SOL    HW253692   1.276   9.449   1.494 -0.2440  2.0601  1.5487
14255SOL     OW53693   3.030   0.681   3.916 -0.1828  0.4537 -0.3834
14255SOL    HW153694   3.120   0.684   3.871 -0.2282  1.2501 -0.4289
14255SOL    HW253695   3.022   0.596   3.968  0.0519 -0.2815 -1.5128
14256SOL     OW53696   1.799   7.786   0.024  0.4774  0.1345 -0.1913
14256SOL    HW153697   1.783   7.734  -0.060 -0.0800 -0.2521  0.1503
14256SOL    HW253698   1.753   7.874   0.018 -0.8521 -0.5075  0.3156
14257SOL     OW53699   8.628   1.781   4.924 -0.4184 -0.1631 -0.3214
14257SOL    HW153700   8.654   1.855   4.861 -1.1192  0.3154 -0.0615
14257SOL    HW253701   8.609   1.820   5.014 -2.0098 -0.4865 -0.5013
14258SOL     OW53702   5.316   9.058   1.378  0.5607 -0.0384  0.0090
14258SOL    HW153703   5.344   8.965   1.402  1.5192  0.3828  0.5405
14258SOL    HW253704   5.361   9.085   1.293  0.5603  0.0613  0.0405
14259SOL     OW53705   5.857   9.602   3.645  0.0979  0.3277 -0.6738
14259SOL    HW153706   5.877   9.517   3.694  0.2267 -0.8062 -2.6473
14259SOL    HW253707   5.917   9.610   3.565 -1.9571  0.7605 -2.2395
14260SOL     OW53708   7.286   0.559   1.260  0.7104  0.7493 -0.4043
14260SOL    HW153709   7.357   0.503   1.217  1.5811 -0.2068  2.1517
14260SOL    HW253710   7.263   0.520   1.349 -1.2846  2.4484 -0.1547
14261SOL     OW53711   1.332   6.987   1.872  0.0897  0.1632  0.2328
14261SOL    HW153712   1.400   7.008   1.802 -0.2004  0.1279 -0.0581
14261SOL    HW253713   1.298   6.894   1.859 -0.6987  0.5086 -0.1844
14262SOL     OW53714   7.705   7.110   4.534  0.3270  0.1587  0.3932
14262SOL    HW153715   7.800   7.084   4.520  0.0203  0.5233 -2.6836
14262SOL    HW253716   7.682   7.100   4.631  3.0255 -1.4169  0.9320
14263SOL     OW53717   6.608   9.437   1.742  0.2488  0.3574  0.1898
14263SOL    HW153718   6.645   9.404   1.655 -1.1736  1.9311 -1.0358
14263SOL    HW253719   6.532   9.377   1.769  0.4366  0.0979  0.1505
14264SOL     OW53720   5.244   9.709   2.834  0.7406  0.0992  0.2253
14264SOL    HW153721   5.196   9.747   2.754 -0.4526  1.1546  1.4168
14264SOL    HW253722   5.325   9.765   2.853  1.0281 -0.1539 -0.2465
14265SOL     OW53723   2.440   5.144   0.218 -0.2453 -0.7381 -0.1736
14265SOL    HW153724   2.505   5.074   0.246  1.3754  0.8528  0.1200
14265SOL    HW253725   2.400   5.187   0.299 -0.1352 -0.3170 -0.3395
14266SOL     OW53726   8.304   3.669   1.179  0.2068 -0.3452  0.1539
14266SOL    HW153727   8.336   3.626   1.263 -0.2880 -3.3776 -1.1520
14266SOL    HW253728   8.381   3.717   1.135  2.3895 -4.9872 -1.3858
14267SOL     OW53729   4.652   9.426   0.980 -0.5137  0.3870 -1.1807
14267SOL    HW153730   4.635   9.379   1.067 -0.8829 -1.2382 -2.1087
14267SOL    HW253731   4.701   9.512   0.998 -1.4529  0.5686  0.7114
14268SOL     OW53732   3.176   1.441   4.319 -0.2819 -0.1817 -0.2501
14268SOL    HW153733   3.144   1.403   4.232 -0.2726  1.4820 -0.9942
14268SOL    HW253734   3.242   1.514   4.301 -1.5653  1.3393  1.0930
14269SOL     OW53735   2.589   3.286   4.270 -0.5335  0.5841 -0.6125
14269SOL    HW153736   2.619   3.196   4.240  0.2819  0.4056  0.7037
14269SOL    HW253737   2.499   3.306   4.232 -0.1960 -0.2764 -1.8785
14270SOL     OW53738   9.855   3.885   4.703 -0.2759  0.0208 -0.3268
14270SOL    HW153739   9.887   3.979   4.718 -0.4352  0.3592 -1.9154
14270SOL    HW253740   9.772   3.869   4.755 -0.5397  0.9423 -0.4587
14271SOL     OW53741   8.920   6.587   2.239  0.1252  0.2607  0.1401
14271SOL    HW153742   8.928   6.614   2.335  0.2678  0.4041  0.0880
14271SOL    HW253743   9.009   6.597   2.194  0.1478 -0.1708  0.0882
14272SOL     OW53744   5.667   9.985   3.961 -0.1107 -0.4288 -0.2595
14272SOL    HW153745   5.670  10.053   3.887  1.7556 -1.1333 -0.8458
14272SOL    HW253746   5.576   9.943   3.964 -0.8213  1.0277 -0.8495
14273SOL     OW53747   2.915   8.511   1.965  0.4223  0.0355 -0.7948
14273SOL    HW153748   2.943   8.425   1.924  2.0183  0.8762 -1.4875
14273SOL    HW253749   2.942   8.587   1.906 -0.9370  1.0291 -0.1754
14274SOL     OW53750   9.331   6.275   0.009 -1.1968 -0.6631 -0.0386
14274SOL    HW153751   9.357   6.191   0.057 -0.5776 -1.2190 -1.3273
14274SOL    HW253752   9.307   6.253  -0.086  1.4004  0.9107 -1.1151
14275SOL     OW53753   9.311   6.237   1.160 -0.3857 -0.6152 -0.1703
14275SOL    HW153754   9.298   6.293   1.242 -2.2522 -0.2496 -0.6958
14275SOL    HW253755   9.246   6.161   1.161 -0.3046 -0.7070 -1.2464
14276SOL     OW53756   8.269   6.918   2.300 -0.1933  0.4012 -0.1321
14276SOL    HW153757   8.297   6.883   2.211 -0.5820 -0.8826  0.2298
14276SOL    HW253758   8.169   6.912   2.309  0.1517 -4.2923  2.2618
14277SOL     OW53759   2.379   9.510   3.217  0.3542  0.4650 -0.0262
14277SOL    HW153760   2.373   9.600   3.173  2.5990  0.7511  0.2342
14277SOL    HW253761   2.383   9.523   3.317  3.2819  0.2438 -0.0777
14278SOL     OW53762   4.206   7.079   4.009 -0.1177  0.0189  0.3584
14278SOL    HW153763   4.304   7.097   4.003  0.1173 -1.7310 -1.7066
14278SOL    HW253764   4.156   7.144   3.952 -0.0960  0.3075  0.6636
14279SOL     OW53765   5.570   9.353   3.374  0.1821  0.3689  0.4839
14279SOL    HW153766   5.478   9.334   3.408  0.2295 -0.1181  0.3457
14279SOL    HW253767   5.604   9.273   3.324 -0.2129  1.3753 -1.4416
14280SOL     OW53768   8.837   8.410   5.327 -0.0293  0.7677  0.1558
14280SOL    HW153769   8.826   8.507   5.347  0.4565  0.3581  2.5223
14280SOL    HW253770   8.933   8.384   5.337  0.1590  0.3709 -2.1929
14281SOL     OW53771   0.978   3.317   5.043 -0.1560  0.1331 -0.3855
14281SOL    HW153772   1.070   3.290   5.015 -0.0204  0.9832 -0.7888
14281SOL    HW253773   0.921   3.236   5.052  0.9267 -0.5014  0.9700
14282SOL     OW53774   7.422   1.863   1.184 -0.1936 -0.0356  0.1901
14282SOL    HW153775   7.330   1.824   1.183 -0.7892  1.3617 -0.6089
14282SOL    HW253776   7.480   1.814   1.118 -0.3789 -0.8487  0.6222
14283SOL     OW53777   9.350   5.247   2.697 -0.5162  0.0640 -0.0650
14283SOL    HW153778   9.392   5.336   2.713 -2.2729  0.8013  0.5448
14283SOL    HW253779   9.307   5.215   2.782  1.9073 -2.3554  0.3297
14284SOL     OW53780   6.871   9.390   2.219  0.0409 -0.1150  0.3414
14284SOL    HW153781   6.815   9.342   2.152 -0.7205  0.3275  0.6571
14284SOL    HW253782   6.819   9.404   2.303  1.2309 -1.3066  1.3020
14285SOL     OW53783   2.922   1.702   2.153 -0.2646  0.4402 -0.9385
14285SOL    HW153784   2.836   1.720   2.202  0.8223  0.5171  0.9551
14285SOL    HW253785   2.974   1.787   2.146  0.7514 -0.1080  0.0135
14286SOL     OW53786   2.623   5.870   5.587  0.1356  0.3653  0.6147
14286SOL    HW153787   2.547   5.928   5.618 -0.5764  0.0446 -0.4969
14286SOL    HW253788   2.673   5.835   5.666 -1.4499 -0.1836  1.3931
14287SOL     OW53789   1.103   5.529   2.345  0.1890  0.2603  0.2673
14287SOL    HW153790   1.006   5.517   2.369  0.5589 -0.1177  1.6147
14287SOL    HW253791   1.149   5.441   2.349  0.8603  0.6309  0.8843
14288SOL     OW53792   0.293   5.283   6.488  0.2214  0.3170 -0.0321
14288SOL    HW153793   0.343   5.326   6.563 -1.8156  0.1176  1.4861
14288SOL    HW253794   0.301   5.184   6.495  0.4820  0.3147 -0.3854
14289SOL     OW53795   3.735   8.487   3.732 -0.7989 -0.3938  0.2051
14289SOL    HW153796   3.814   8.531   3.690 -2.3533 -0.6166 -3.1167
14289SOL    HW253797   3.754   8.389   3.742 -0.4049 -0.3479 -0.0536
14290SOL     OW53798   2.573   4.637   1.549  0.4928  0.2236 -0.9514
14290SOL    HW153799   2.601   4.575   1.476 -3.1282  0.1668 -2.3830
14290SOL    HW253800   2.511   4.589   1.611  3.2575  0.3636  2.0557
14291SOL     OW53801   8.992   5.255   3.631 -0.2019 -0.5061 -0.1682
14291SOL    HW153802   9.038   5.166   3.637  1.8358  0.2912 -3.1843
14291SOL    HW253803   9.007   5.295   3.541 -2.5980  2.1332  0.5233
14292SOL     OW53804   8.616   8.535   2.771 -0.7336  0.4264 -0.2110
14292SOL    HW153805   8.673   8.552   2.851 -0.6145 -2.8806  0.4822
14292SOL    HW253806   8.665   8.566   2.689  0.3413  1.2782  0.7316
14293SOL     OW53807   2.723   9.856   3.500  0.0974 -0.0870  0.2827
14293SOL    HW153808   2.748   9.948   3.472 -0.4049 -0.2718 -0.7767
14293SOL    HW253809   2.673   9.860   3.587 -2.6405  0.9157 -1.2859
14294SOL     OW53810   2.528   5.358   6.580  0.0277 -0.0709  0.4670
14294SOL    HW153811   2.520   5.325   6.674 -2.2030 -1.2472 -0.1037
14294SOL    HW253812   2.458   5.427   6.562 -0.5022 -0.9000 -0.7352
14295SOL     OW53813   0.778   0.822   3.110  0.1778  0.3086  0.1943
14295SOL    HW153814   0.784   0.822   3.011 -0.4752 -2.2222  0.1322
14295SOL    HW253815   0.747   0.733   3.142  0.9585  0.8883  2.7079
14296SOL     OW53816   3.335   7.104   4.860 -0.0939 -0.4082 -0.4097
14296SOL    HW153817   3.410   7.074   4.801  0.0240 -0.6199 -0.1515
14296SOL    HW253818   3.258   7.135   4.803  0.9396  1.7226 -0.6944
14297SOL     OW53819   6.155   7.469   2.622 -0.2254  0.3211  0.0627
14297SOL    HW153820   6.203   7.539   2.568  0.7212 -0.8253 -0.6027
14297SOL    HW253821   6.081   7.512   2.674  0.2193  1.7870 -0.4908
14298SOL     OW53822   5.374   5.051   2.560  0.3407 -0.0929  0.2345
14298SOL    HW153823   5.438   4.986   2.519  1.1285 -0.4223  1.9425
14298SOL    HW253824   5.293   5.060   2.502  1.0035 -1.2837 -0.8806
14299SOL     OW53825   1.024   4.327   3.825  1.0796  0.0990 -0.1671
14299SOL    HW153826   1.096   4.274   3.781  1.8203  1.2425 -0.3545
14299SOL    HW253827   1.064   4.405   3.872  0.1059 -0.0583  0.9535
14300SOL     OW53828   9.590   9.369   3.388  0.2291  0.0591  0.7238
14300SOL    HW153829   9.509   9.319   3.417  0.7698 -1.3207 -0.0830
14300SOL    HW253830   9.617   9.433   3.459 -1.6083  0.5923  0.9616
14301SOL     OW53831   5.022   9.974   1.995  0.1263  0.1954 -0.2423
14301SOL    HW153832   5.019   9.920   2.080  1.2756  0.3362 -0.0955
14301SOL    HW253833   5.103   9.948   1.943 -1.1457 -0.6682 -1.8324
14302SOL     OW53834   4.828   6.015   2.004  0.0234 -0.3346 -0.2587
14302SOL    HW153835   4.754   6.009   1.936  1.6134  0.5186 -2.1081
14302SOL    HW253836   4.831   5.930   2.057 -0.4638 -1.5254 -2.0753
14303SOL     OW53837   4.164   8.713   4.786 -0.2111  0.1738 -0.1318
14303SOL    HW153838   4.212   8.727   4.700 -1.3994  1.5790 -0.6088
14303SOL    HW253839   4.229   8.698   4.859  0.9174  1.4472 -0.8626
14304SOL     OW53840   4.605   8.830   5.032  0.4033 -0.3744  0.2397
14304SOL    HW153841   4.544   8.789   5.100 -0.5935 -2.1493 -1.6603
14304SOL    HW253842   4.551   8.888   4.970  1.1548  0.4934  0.3934
14305SOL     OW53843   5.717   1.668   2.137 -0.2136  0.1507  0.0472
14305SOL    HW153844   5.633   1.690   2.186 -0.3194  0.1400 -0.1286
14305SOL    HW253845   5.795   1.704   2.187 -0.3849  0.9400 -0.2435
14306SOL     OW53846   2.513   2.179   2.128 -0.4450  0.8406 -0.5595
14306SOL    HW153847   2.448   2.182   2.052 -0.7721 -0.2726 -0.3311
14306SOL    HW253848   2.577   2.255   2.120 -1.6390  1.8300 -0.9080
14307SOL     OW53849   3.843   5.312   1.099  0.1581  0.1322  0.9660
14307SOL    HW153850   3.876   5.382   1.034 -0.2122 -0.4743  0.1147
14307SOL    HW253851   3.915   5.291   1.164  0.9297 -0.0555  0.0632
14308SOL     OW53852   7.609   0.629   2.982 -0.1854 -0.3809 -0.4497
14308SOL    HW153853   7.563   0.552   3.026 -0.6685  0.3105  0.2747
14308SOL    HW253854   7.554   0.712   2.994 -0.0043 -0.0553 -1.8029
14309SOL     OW53855   9.580   7.561   3.273 -0.0696  0.4734  0.3046
14309SOL    HW153856   9.513   7.487   3.271  0.8471 -0.4215  1.6292
14309SOL    HW253857   9.634   7.554   3.357  0.5694  2.1685  0.0456
14310SOL     OW53858   2.827   4.186   4.087  0.3545  0.3928 -0.1475
14310SOL    HW153859   2.895   4.136   4.141 -0.9640 -1.1114  0.1485
14310SOL    HW253860   2.826   4.150   3.994 -1.3151 -0.8510  0.3359
14311SOL     OW53861   4.586   2.481   3.488 -0.3140  0.2258  0.0490
14311SOL    HW153862   4.658   2.412   3.495  0.7008  1.3458  0.8685
14311SOL    HW253863   4.521   2.469   3.562  0.0228  0.3232  0.3622
14312SOL     OW53864   3.232   7.322   2.408  0.1937  0.5619 -0.2132
14312SOL    HW153865   3.323   7.321   2.367  0.4180  0.9861  0.2651
14312SOL    HW253866   3.191   7.232   2.401  1.4120 -0.1353  1.2279
14313SOL     OW53867   1.969   7.924   4.991  0.3550  0.2021  0.3373
14313SOL    HW153868   1.963   7.969   4.902 -1.1077 -0.4707  0.0919
14313SOL    HW253869   1.971   7.825   4.978  0.2984  0.1051  1.0498
14314SOL     OW53870   3.411   5.075   2.123  0.2643  0.0268 -0.6596
14314SOL    HW153871   3.323   5.048   2.084 -1.2285  2.8390  0.6714
14314SOL    HW253872   3.417   5.043   2.218  0.5350  0.1380 -0.6376
14315SOL     OW53873   4.477   7.951   2.339 -0.6682 -0.6489 -0.4655
14315SOL    HW153874   4.402   7.945   2.405 -1.1165 -0.2123 -0.9305
14315SOL    HW253875   4.559   7.984   2.385 -1.8708  3.0304 -0.7784
14316SOL     OW53876   9.578   2.533   1.536  0.4923  0.1984 -0.8828
14316SOL    HW153877   9.587   2.566   1.442 -1.6075  0.8914 -0.8633
14316SOL    HW253878   9.622   2.444   1.545 -0.5504 -0.5417 -2.8867
14317SOL     OW53879   8.763   5.482   6.270  0.2586 -0.6296 -0.3439
14317SOL    HW153880   8.831   5.497   6.198  0.9049  0.0860  0.4097
14317SOL    HW253881   8.679   5.531   6.247 -0.4081 -2.3935 -1.8157
14318SOL     OW53882   6.659   0.998   5.779 -0.3305  0.3440  0.5310
14318SOL    HW153883   6.682   1.025   5.685 -0.1585 -0.5107  0.3267
14318SOL    HW253884   6.724   1.040   5.842  0.9396 -0.9155  0.0762
14319SOL     OW53885   2.819   2.589   1.307 -0.2362  0.3367 -0.5733
14319SOL    HW153886   2.816   2.581   1.406 -5.2976 -1.2934 -0.7328
14319SOL    HW253887   2.822   2.686   1.281 -1.1269  0.8415  1.1734
14320SOL     OW53888   3.092   1.658   3.660  0.0254  0.4917  0.2764
14320SOL    HW153889   3.068   1.564   3.682 -0.0926  0.6635  0.8855
14320SOL    HW253890   3.158   1.693   3.726 -0.1826  0.9438  0.2515
14321SOL     OW53891   7.329   0.991   5.029  0.1853 -0.4142 -0.7095
14321SOL    HW153892   7.234   0.962   5.016  0.9580 -3.0847 -0.5933
14321SOL    HW253893   7.388   0.944   4.964  1.4694  1.1562 -0.7198
14322SOL     OW53894   9.170   3.359   1.216 -0.5615  0.0391  0.3306
14322SOL    HW153895   9.230   3.284   1.188 -1.4714 -1.1876  1.6508
14322SOL    HW253896   9.195   3.442   1.165  1.6744 -0.6662  0.2353
14323SOL     OW53897   1.040   5.609   0.891 -0.2679  0.5918  0.7705
14323SOL    HW153898   1.056   5.706   0.877  0.3324  0.2858 -0.6731
14323SOL    HW253899   1.123   5.557   0.870 -0.3800 -0.1891  2.1602
14324SOL     OW53900   9.042   6.894   0.832 -0.1956 -0.0693  0.0118
14324SOL    HW153901   9.120   6.869   0.890  0.6337 -0.3205 -1.2041
14324SOL    HW253902   9.057   6.985   0.795 -0.4939 -0.1160 -0.2193
14325SOL     OW53903   1.156   9.689   3.794 -0.4095 -0.5328  0.0664
14325SOL    HW153904   1.251   9.688   3.824 -0.3060 -1.6465 -0.2832
14325SOL    HW253905   1.121   9.783   3.797  0.0450 -0.4230  2.2404
14326SOL     OW53906   2.789   6.240   2.359 -0.2850 -0.3323  0.6657
14326SOL    HW153907   2.782   6.314   2.426 -0.4054  0.9411 -0.7279
14326SOL    HW253908   2.848   6.168   2.395  0.5736  0.8556  1.6708
14327SOL     OW53909   3.282   6.300   5.546 -0.3277 -0.1344 -0.2531
14327SOL    HW153910   3.356   6.289   5.613 -0.1048  2.8086  0.0399
14327SOL    HW253911   3.201   6.336   5.590 -0.8129  0.0067 -1.2356
14328SOL     OW53912   8.825   6.969   3.882  0.1299 -0.3610  0.3985
14328SOL    HW153913   8.734   6.954   3.845  0.0291 -0.9607  0.8712
14328SOL    HW253914   8.832   6.924   3.971  1.7781 -2.7313 -0.8777
14329SOL     OW53915   2.939   9.862   1.604  0.1528  0.5581  0.2679
14329SOL    HW153916   2.896   9.780   1.567  0.2254  1.0165 -0.8734
14329SOL    HW253917   2.872   9.937   1.605  0.0840  0.4866  1.3088
14330SOL     OW53918   9.712   6.184   6.563  0.4847 -0.3022  0.2807
14330SOL    HW153919   9.810   6.207   6.565  0.3279  0.2869  1.3857
14330SOL    HW253920   9.701   6.085   6.556  1.1543 -0.3316 -0.5058
14331SOL     OW53921   0.650   3.759   6.648 -0.0276  0.4121  0.6533
14331SOL    HW153922   0.563   3.753   6.598 -0.3843  1.2558  1.1594
14331SOL    HW253923   0.692   3.848   6.631  0.7136  0.0314  0.4627
14332SOL     OW53924   8.545   7.001   0.375 -0.0154  0.0181 -0.3446
14332SOL    HW153925   8.510   6.971   0.286 -0.4192  3.1737 -1.3112
14332SOL    HW253926   8.643   7.020   0.369 -0.0824  0.4376 -0.1838
14333SOL     OW53927   2.345   3.417   1.989 -0.2759  0.3448 -0.0618
14333SOL    HW153928   2.351   3.433   1.890 -0.9960  0.5636 -0.0770
14333SOL    HW253929   2.252   3.388   2.012  0.1895 -0.8264  0.3967
14334SOL     OW53930   3.376   4.984   1.476 -0.3873 -0.0847  0.1527
14334SOL    HW153931   3.437   4.908   1.501  0.5471  1.1895  1.8528
14334SOL    HW253932   3.385   5.003   1.378  1.4711 -0.3479  0.2506
14335SOL     OW53933   3.238   1.034   2.247  0.3239 -0.3934 -0.9129
14335SOL    HW153934   3.168   1.089   2.202 -0.7797 -1.6037 -0.7229
14335SOL    HW253935   3.282   0.975   2.179  0.6769 -0.1307 -0.9115
14336SOL     OW53936   2.110   5.968   6.640 -0.4339  0.0598  0.1392
14336SOL    HW153937   2.152   5.885   6.677 -1.4258 -1.1111 -1.2668
14336SOL    HW253938   2.053   6.011   6.710  1.0326  0.2199  1.2456
14337SOL     OW53939   9.431   8.708   3.448 -0.4843 -0.2788 -0.5966
14337SOL    HW153940   9.459   8.614   3.469 -1.5010 -0.2194  1.1287
14337SOL    HW253941   9.384   8.747   3.527  1.1248  2.1565 -0.7894
14338SOL     OW53942   4.967   8.963   2.584 -0.6367  0.2731  0.1240
14338SOL    HW153943   5.008   8.966   2.493 -0.8904 -0.4257 -0.0194
14338SOL    HW253944   4.872   8.993   2.580 -1.3904 -2.0643 -0.2832
14339SOL     OW53945   1.561   7.447   4.616 -0.5317 -0.5771  0.2469
14339SOL    HW153946   1.507   7.456   4.700  0.3851 -3.2345  1.1845
14339SOL    HW253947   1.658   7.452   4.638 -0.3015  0.0315 -0.8575
14340SOL     OW53948   2.125   3.594   0.705 -0.1843  0.0583  0.0002
14340SOL    HW153949   2.093   3.553   0.790 -0.8806 -1.1899 -0.8564
14340SOL    HW253950   2.051   3.648   0.664 -0.8670 -1.8402 -1.3594
14341SOL     OW53951   0.661   7.556   3.023  0.0906 -0.4303 -0.0388
14341SOL    HW153952   0.677   7.562   3.122  1.0883 -2.2433 -0.0785
14341SOL    HW253953   0.599   7.480   3.005  0.6998 -0.7206 -0.9002
14342SOL     OW53954   0.155   6.083   3.059  0.1532  0.2755 -0.2859
14342SOL    HW153955   0.063   6.120   3.048 -0.6206 -1.4240  0.2223
14342SOL    HW253956   0.208   6.100   2.976 -0.9057  0.5152 -0.9227
14343SOL     OW53957   3.791   6.408   4.030 -0.0835  0.4313 -0.2288
14343SOL    HW153958   3.744   6.321   4.018 -0.3272  0.7551 -1.6904
14343SOL    HW253959   3.861   6.419   3.959 -0.6379  1.7940 -0.5915
14344SOL     OW53960   7.070   9.971   3.942 -0.5048  0.0632 -0.1800
14344SOL    HW153961   6.972   9.954   3.937 -0.2036 -1.9851  0.4033
14344SOL    HW253962   7.101   9.962   4.037  0.1752  1.1423 -0.2917
14345SOL     OW53963   9.186   4.392   6.214  0.5218 -0.2048  0.0559
14345SOL    HW153964   9.187   4.426   6.120  1.1968  2.5877  1.0034
14345SOL    HW253965   9.108   4.432   6.263 -0.2091 -2.1661  0.5162
14346SOL     OW53966   6.079   2.159   3.475  0.1643  0.4153 -0.2991
14346SOL    HW153967   6.001   2.139   3.416  0.4381 -0.9417 -0.2129
14346SOL    HW253968   6.156   2.100   3.450  1.3114  2.0387 -0.6719
14347SOL     OW53969   3.535   3.419   1.164  0.2498  0.1306  0.1113
14347SOL    HW153970   3.549   3.516   1.143 -2.8764  0.8868  1.1561
14347SOL    HW253971   3.587   3.393   1.245 -1.2090  1.7738  1.6154
14348SOL     OW53972   1.091   0.860   3.987 -0.2872 -0.8173 -0.5371
14348SOL    HW153973   1.152   0.798   3.937  0.5339  0.3856 -1.0761
14348SOL    HW253974   1.125   0.873   4.080 -0.9439 -1.8448 -0.1511
14349SOL     OW53975   0.149   3.015   0.141 -0.3281 -0.1821 -0.4426
14349SOL    HW153976   0.187   3.102   0.109  1.2713 -0.5276  0.4902
14349SOL    HW253977   0.186   2.993   0.231 -2.8577 -0.4674  0.5801
14350SOL     OW53978   3.943   5.692   1.249 -0.0577 -0.1972 -0.3909
14350SOL    HW153979   3.997   5.774   1.265 -1.3490  0.5587  0.2029
14350SOL    HW253980   3.871   5.712   1.182  0.1607 -1.0878 -0.9028
14351SOL     OW53981   3.942   9.278   2.007 -0.2539 -1.0055 -0.1247
14351SOL    HW153982   3.940   9.310   2.102  0.5382  0.1110 -0.4655
14351SOL    HW253983   3.881   9.335   1.952  2.2275  0.9025 -1.0095
14352SOL     OW53984   0.698   8.236   4.570  0.0350  0.2984 -0.6966
14352SOL    HW153985   0.777   8.208   4.516 -0.7058 -2.1371 -0.5691
14352SOL    HW253986   0.717   8.222   4.667 -0.1841  0.6355 -0.6045
14353SOL     OW53987   9.483   5.418   4.746 -0.0830  0.1117  0.6633
14353SOL    HW153988   9.524   5.353   4.811  0.0645 -0.7471 -0.2679
14353SOL    HW253989   9.550   5.440   4.675 -0.9619 -0.6950 -0.4382
14354SOL     OW53990   2.774   7.042   6.021  0.5125  0.1839 -0.0569
14354SOL    HW153991   2.731   7.109   6.082  0.3359  0.3423 -0.3480
14354SOL    HW253992   2.854   7.002   6.065 -0.4272 -0.7395  0.8349
14355SOL     OW53993   7.436   0.808   6.174  0.4476 -0.1555 -0.2120
14355SOL    HW153994   7.338   0.823   6.187  0.4559 -0.1930 -0.0990
14355SOL    HW253995   7.457   0.808   6.077  0.7601  2.6715 -0.1915
14356SOL     OW53996   3.165   4.502   2.670  0.2966 -0.2580 -0.5192
14356SOL    HW153997   3.078   4.547   2.649  0.9214  0.6746 -1.1723
14356SOL    HW253998   3.185   4.434   2.599  1.0746  0.9620 -1.4953
14357SOL     OW53999   5.768   9.376   3.941  0.2701  0.7064 -0.4105
14357SOL    HW154000   5.789   9.321   4.022  2.1938 -0.5325 -1.7220
14357SOL    HW254001   5.785   9.472   3.961 -1.8939  0.7549  1.4964
14358SOL     OW54002   4.790   8.435   2.529  0.4064 -0.0342  0.0818
14358SOL    HW154003   4.810   8.507   2.464 -2.7257  1.1983  0.4221
14358SOL    HW254004   4.846   8.447   2.611  0.3491  1.6595 -0.1244
14359SOL     OW54005   4.129   2.017   4.136 -0.1648 -0.2647  0.2147
14359SOL    HW154006   4.188   1.989   4.060 -0.7843  0.4013 -0.5247
14359SOL    HW254007   4.185   2.044   4.214  0.4613 -2.5522  0.5937
14360SOL     OW54008   1.268   4.619   5.257 -0.0554 -0.2984 -0.0115
14360SOL    HW154009   1.178   4.638   5.218 -0.1657  0.1931  0.4790
14360SOL    HW254010   1.293   4.691   5.322  1.1677  0.1473 -0.9519
14361SOL     OW54011   1.985   6.253   2.733  0.6911  1.0696  1.0975
14361SOL    HW154012   1.976   6.276   2.830  0.6793 -0.9770  1.5993
14361SOL    HW254013   2.029   6.164   2.724 -0.9605  0.4162 -0.7495
14362SOL     OW54014   4.167   0.705   2.121 -0.4964 -0.7211 -0.2807
14362SOL    HW154015   4.118   0.650   2.053 -1.1095  1.5868 -1.7536
14362SOL    HW254016   4.263   0.680   2.121 -0.7056 -1.5574 -1.1737
14363SOL     OW54017   2.813   2.951   4.529  0.1631  0.0479 -0.0120
14363SOL    HW154018   2.870   2.915   4.602  2.6897 -0.0923 -2.0008
14363SOL    HW254019   2.720   2.914   4.538  0.8479 -1.2273  2.1475
14364SOL     OW54020   7.458   1.449   0.893 -0.0592  0.2524  0.0734
14364SOL    HW154021   7.395   1.377   0.866  0.6329  0.2470 -1.5756
14364SOL    HW254022   7.546   1.409   0.917 -0.6472  0.2580  2.3924
14365SOL     OW54023   9.083   0.862   4.450 -0.1915  0.1532 -0.2289
14365SOL    HW154024   8.987   0.837   4.436 -0.9097  2.7263 -0.1689
14365SOL    HW254025   9.090   0.961   4.467  2.5708  0.2001 -1.3013
14366SOL     OW54026   1.025   5.693   2.857 -0.4887 -0.1285 -0.0884
14366SOL    HW154027   1.074   5.755   2.795 -2.2074  0.6490 -0.6953
14366SOL    HW254028   1.057   5.707   2.950  0.0861  0.7206 -0.4055
14367SOL     OW54029   2.461   4.763   6.718  0.2720  0.3394 -0.0595
14367SOL    HW154030   2.449   4.702   6.640  1.9357  1.1955 -1.0095
14367SOL    HW254031   2.499   4.850   6.687 -1.0215  1.4835  1.4221
14368SOL     OW54032   2.639   9.345   3.217  0.4413 -0.2537  0.0485
14368SOL    HW154033   2.542   9.371   3.219  0.0151 -1.6699 -1.1828
14368SOL    HW254034   2.693   9.419   3.178 -0.2711  0.2093 -0.0659
14369SOL     OW54035   3.219   6.098   5.146  0.6954 -0.1042 -0.4202
14369SOL    HW154036   3.245   6.059   5.234  5.1864  1.2397 -1.0301
14369SOL    HW254037   3.172   6.185   5.161  0.6077 -0.3322  0.6593
14370SOL     OW54038   2.368   6.293   0.029  0.1908 -0.4844 -0.1310
14370SOL    HW154039   2.444   6.323   0.087 -0.7566  2.0031 -0.1237
14370SOL    HW254040   2.312   6.228   0.080  2.1289 -2.1357 -0.0361
14371SOL     OW54041   1.508   1.820   1.286 -0.3156 -0.4599  0.1053
14371SOL    HW154042   1.579   1.758   1.319  0.5409  0.7509  0.5777
14371SOL    HW254043   1.535   1.857   1.197  0.0417  0.6185  0.6497
14372SOL     OW54044   0.057   5.049   2.147 -0.1103 -0.1036  0.0437
14372SOL    HW154045   0.025   5.086   2.059  0.4718  1.0855  0.3247
14372SOL    HW254046   0.123   4.975   2.129 -1.3865 -1.1364 -0.5192
14373SOL     OW54047   9.459   2.753   4.723  0.3929 -0.7430  0.8535
14373SOL    HW154048   9.501   2.710   4.803 -0.1809 -3.3387 -0.1841
14373SOL    HW254049   9.361   2.733   4.723 -0.0160  1.1772  0.6984
14374SOL     OW54050   6.210   1.507   3.620  0.0693  0.5403 -0.3412
14374SOL    HW154051   6.200   1.604   3.599 -0.1657  0.6483  0.2420
14374SOL    HW254052   6.175   1.452   3.545  0.2123  0.9054 -0.6781
14375SOL     OW54053   3.235   9.854   3.930  0.1739 -0.5752  0.4287
14375SOL    HW154054   3.196   9.857   4.022 -0.3480 -1.0575  0.2296
14375SOL    HW254055   3.241   9.758   3.900  3.5565 -0.6919  1.3156
14376SOL     OW54056   8.321   3.466   3.859 -0.0510 -0.1166  0.6983
14376SOL    HW154057   8.375   3.406   3.918  2.0426  2.0884  1.1113
14376SOL    HW254058   8.237   3.493   3.907  0.6094 -0.0439  1.8300
14377SOL     OW54059   9.755   4.581   6.484 -0.0275  0.0483  0.2344
14377SOL    HW154060   9.812   4.555   6.563  1.2898  1.8207 -0.0983
14377SOL    HW254061   9.680   4.639   6.516  0.2293  0.3721  0.2565
14378SOL     OW54062   0.858   0.664   2.089 -0.1565 -0.4361 -0.0625
14378SOL    HW154063   0.948   0.650   2.049 -0.3894 -1.0506 -0.3732
14378SOL    HW254064   0.811   0.738   2.040 -1.4521 -2.8914 -2.6332
14379SOL     OW54065   4.928   8.467   5.247 -0.0728  0.1935 -0.4895
14379SOL    HW154066   4.866   8.542   5.269  1.1017  0.6312  1.4725
14379SOL    HW254067   5.006   8.501   5.196 -0.9793 -0.2093 -2.1784
14380SOL     OW54068   5.869   9.946   1.470 -0.0795  0.0433  0.3906
14380SOL    HW154069   5.811   9.892   1.410 -1.2810  0.5480  1.0623
14380SOL    HW254070   5.957   9.900   1.482 -0.7975 -1.3794  0.3573
14381SOL     OW54071   0.485   9.637   1.529  0.2282 -0.7653  0.2464
14381SOL    HW154072   0.474   9.726   1.485 -2.0125 -1.1674 -0.0364
14381SOL    HW254073   0.425   9.570   1.485  1.4120 -2.2834  0.8777
14382SOL     OW54074   1.308   3.637   0.417  0.0490  0.2429  0.8290
14382SOL    HW154075   1.392   3.654   0.366 -0.0642  0.7907  0.8319
14382SOL    HW254076   1.287   3.539   0.415  0.3032  0.2026  0.2282
14383SOL     OW54077   1.602   6.688   5.768 -0.2128  0.5248 -0.0701
14383SOL    HW154078   1.558   6.617   5.823  2.1742  0.2377  1.5689
14383SOL    HW254079   1.625   6.651   5.678 -0.1507 -0.3855  0.3159
14384SOL     OW54080   2.176   7.324   4.024  0.5172  0.0526 -0.1031
14384SOL    HW154081   2.274   7.337   4.006  1.1893 -2.2529  1.6853
14384SOL    HW254082   2.151   7.229   4.003 -1.4187  0.7042 -0.8214
  10.00000  10.00000   6.74838
