chitosan Film  in water:acetic acid 2%
13542
    1CHTO  H203    1   5.246   6.715   2.003 -0.2940  1.8667 -0.6289
    1CHTO   O82    2   5.331   6.720   1.964  0.2601 -0.1358  0.2529
    1CHTO  C123    3   5.434   6.678   2.053  0.2937 -0.1521 -0.1327
    1CHTO  H227    4   5.437   6.743   2.142  2.9087 -0.8246  0.2970
    1CHTO   O77    5   5.392   6.542   2.087 -0.4066 -0.0323  0.6715
    1CHTO  C118    6   5.485   6.479   2.174 -0.4099  0.3639  0.1456
    1CHTO  H222    7   5.485   6.543   2.263 -0.0492  0.6496 -0.0605
    1CHTO  C125    8   5.440   6.335   2.217 -0.1544 -0.0963  0.4259
    1CHTO   O84    9   5.464   6.304   2.355 -0.4500  0.0740 -0.0818
    1CHTO  H205   10   5.430   6.377   2.402  0.7223  0.9007 -0.5021
    1CHTO  C114   11   5.622   6.462   2.112 -0.1005 -0.4155 -0.4581
    1CHTO  H218   12   5.608   6.409   2.018  0.6960  0.4028 -1.0388
    1CHTO  C116   13   5.678   6.597   2.064 -0.6386 -0.5107 -0.3950
    1CHTO  H220   14   5.706   6.661   2.150  0.4657 -0.8069 -0.5226
    1CHTO   O79   15   5.802   6.564   2.001 -0.3166 -0.0750  0.2482
    1CHTO  H201   16   5.870   6.619   2.033  0.5058 -1.1665  0.4037
    1CHTO  C120   17   5.575   6.675   1.975  0.5619 -0.5880  0.0387
    1CHTO  H224   18   5.562   6.617   1.881 -0.8243  1.7686 -1.2718
    1CHTO   N21   19   5.624   6.813   1.950  0.2355  0.2517 -0.0404
    1CHTO  H211   20   5.583   6.848   1.857 -1.6466  0.1104  0.6971
    1CHTO  H212   21   5.732   6.812   1.952  0.2351  1.5571  1.3617
    1CHTO   O75   22   5.709   6.400   2.215  0.2195 -0.4916  0.2671
    1CHTO  C112   23   5.790   6.270   2.159 -0.2985 -0.6219 -0.0205
    1CHTO  H216   24   5.793   6.280   2.049 -0.1003  1.4647  0.1587
    1CHTO   O73   25   5.710   6.155   2.201 -0.1903  0.2941  0.0762
    1CHTO  C113   26   5.756   6.036   2.140  0.2138 -0.2729  0.4560
    1CHTO  H217   27   5.764   6.044   2.030  1.5005 -3.1408  0.2812
    1CHTO  C124   28   5.649   5.924   2.167 -0.0657 -0.0753 -0.0476
    1CHTO   O83   29   5.674   5.792   2.107  0.3378 -0.2024  0.4000
    1CHTO  H204   30   5.732   5.795   2.033  0.8104 -0.1137  0.7688
    1CHTO  C109   31   5.897   6.003   2.187 -0.0443 -0.1526 -0.7646
    1CHTO  H213   32   5.888   5.994   2.297 -0.3146  0.2975 -0.7489
    1CHTO  C110   33   5.994   6.119   2.156 -0.2617  0.5016  0.2504
    1CHTO  H214   34   6.009   6.128   2.049  0.7112  1.5873  0.4682
    1CHTO   O78   35   6.127   6.081   2.210 -0.2942  0.1157  0.1802
    1CHTO  H200   36   6.136   5.988   2.205  1.9178  0.2592  0.8810
    1CHTO  C111   37   5.937   6.249   2.211  0.5117 -0.6160 -0.5900
    1CHTO  H215   38   5.941   6.235   2.320  0.3213 -1.2587 -0.6609
    1CHTO   N19   39   6.013   6.369   2.181 -0.3114  0.1665 -0.3947
    1CHTO  H207   40   6.117   6.345   2.200  0.2828  1.1210 -2.3400
    1CHTO  H208   41   5.981   6.400   2.082  0.2807  1.4533 -0.1899
    1CHTO   O74   42   5.939   5.876   2.127  0.4185 -0.4437  0.1483
    1CHTO  C115   43   6.012   5.784   2.238  0.4894 -0.4584 -0.0832
    1CHTO  H219   44   6.004   5.831   2.336 -1.7746  0.4870 -0.6941
    1CHTO   O76   45   5.953   5.641   2.250 -0.1605 -0.3634  0.3433
    1CHTO  C122   46   5.941   5.576   2.124  0.3026  0.0216  0.2446
    1CHTO  H226   47   5.854   5.618   2.073  1.8495  2.2741 -0.5605
    1CHTO  C126   48   5.912   5.419   2.145  0.0685 -0.3429 -0.1570
    1CHTO   O85   49   5.857   5.343   2.040  0.2160  0.3846 -0.1048
    1CHTO  H206   50   5.784   5.291   2.068  0.2275 -0.4471 -1.5991
    1CHTO  C121   51   6.068   5.582   2.030  0.5465 -0.6306  0.3629
    1CHTO  H225   52   6.098   5.490   1.975  1.8810  0.6831 -1.1432
    1CHTO   O81   53   6.035   5.668   1.924  0.5085  0.1822 -0.7664
    1CHTO  H202   54   6.005   5.746   1.966  1.8655 -1.5347  3.7936
    1CHTO  C119   55   6.192   5.634   2.110  0.6461 -0.5884 -0.0109
    1CHTO  H223   56   6.212   5.560   2.187 -0.5684 -2.8213 -1.7747
    1CHTO  C117   57   6.163   5.772   2.187 -0.7507  0.3841 -0.0032
    1CHTO  H221   58   6.180   5.853   2.116 -0.5761  0.6077  0.2937
    1CHTO   N20   59   6.258   5.797   2.298 -0.2344 -0.2389 -0.4195
    1CHTO  H209   60   6.222   5.872   2.366 -0.6570 -0.9149  0.1103
    1CHTO  H210   61   6.262   5.703   2.352 -0.4076  0.7032  1.2566
    1CHTO   O80   62   6.321   5.634   2.026  0.3866 -0.3018  0.3774
    1CHTO  C103   63   6.415   5.522   2.043 -0.0251  0.8649  0.3828
    1CHTO  H190   64   6.412   5.482   2.144  1.0597  1.5764  0.7021
    1CHTO  C101   65   6.413   5.392   1.944  0.5773 -0.5632 -0.6634
    1CHTO  H188   66   6.421   5.435   1.844  0.8930  0.2771 -0.2770
    1CHTO   O68   67   6.293   5.326   1.969  0.5323 -0.3439  0.3973
    1CHTO  H168   68   6.285   5.307   2.061 -0.3918 -0.3432  0.3179
    1CHTO   C99   69   6.542   5.302   1.981  0.2199 -0.2970 -0.0761
    1CHTO  H186   70   6.535   5.282   2.090 -1.8227 -0.5699 -0.2419
    1CHTO   N17   71   6.546   5.169   1.910 -0.5997  0.3014 -0.5276
    1CHTO  H174   72   6.526   5.192   1.806  2.8646  0.4290 -1.2136
    1CHTO  H175   73   6.639   5.115   1.914 -0.1475  0.9411 -2.0659
    1CHTO   C97   74   6.675   5.383   1.970  0.0501  0.2729 -0.5194
    1CHTO  H184   75   6.676   5.412   1.864  1.2729 -0.0123 -0.5904
    1CHTO   O64   76   6.665   5.497   2.060 -0.0855 -0.0937  0.2260
    1CHTO  C104   77   6.557   5.588   2.026  0.0344 -0.6490  0.0016
    1CHTO  H191   78   6.564   5.630   1.926  0.8042 -1.2953 -0.2256
    1CHTO  C108   79   6.577   5.713   2.118 -0.1808 -0.4133  0.0233
    1CHTO   O71   80   6.684   5.804   2.084 -0.0830 -0.4999 -0.1925
    1CHTO  H171   81   6.668   5.876   2.142 -0.6456 -0.8354  0.0861
    1CHTO   O62   82   6.795   5.326   2.025 -0.0633 -0.0664  0.0099
    1CHTO   C91   83   6.904   5.308   1.932  0.2028  0.1050  0.4945
    1CHTO  H178   84   6.864   5.309   1.831  0.7005  0.7509  0.2990
    1CHTO   C92   85   6.960   5.159   1.951 -0.0906  0.0896 -0.0285
    1CHTO  H179   86   6.986   5.149   2.057  1.6328  1.0678 -0.3338
    1CHTO   O66   87   6.855   5.067   1.917  0.5984  0.3799  0.3312
    1CHTO  H166   88   6.827   5.077   1.828  1.1633  1.7900  0.2992
    1CHTO   C93   89   7.088   5.134   1.862 -0.6383  0.6815  0.3203
    1CHTO  H180   90   7.055   5.147   1.758 -1.4489 -0.3288  0.4417
    1CHTO   N16   91   7.143   4.998   1.873 -0.0797  0.5397 -0.8792
    1CHTO  H172   92   7.247   5.004   1.903  0.4691 -0.6052 -2.4552
    1CHTO  H173   93   7.084   4.938   1.940  1.0719  0.6531  0.2535
    1CHTO   C94   94   7.187   5.248   1.898 -0.0365 -0.2786 -0.0752
    1CHTO  H181   95   7.204   5.255   2.005  0.2738  0.1445 -0.1503
    1CHTO   O61   96   7.135   5.375   1.860  0.2057  0.0665 -0.1913
    1CHTO   C95   97   7.019   5.407   1.939 -1.2183 -0.4115  0.5186
    1CHTO  H182   98   7.049   5.427   2.041 -1.6707 -1.0013  0.7701
    1CHTO  C106   99   6.974   5.551   1.884 -0.2778  0.3737 -0.2528
    1CHTO   O69  100   6.959   5.550   1.740 -0.3612  0.3807 -0.2161
    1CHTO  H169  101   6.911   5.625   1.711 -1.6742 -0.2870  0.1867
    1CHTO   O63  102   7.329   5.233   1.822  0.5124 -0.3400 -0.0933
    1CHTO   C96  103   7.449   5.298   1.911  1.0524 -0.6094 -0.4576
    1CHTO  H183  104   7.402   5.368   1.979  0.2586 -0.3281 -1.3009
    1CHTO   C98  105   7.572   5.375   1.845 -0.0896 -0.0653 -0.1623
    1CHTO  H185  106   7.530   5.456   1.784 -1.2187 -0.1428  0.5007
    1CHTO   O67  107   7.656   5.443   1.942  0.2376 -0.0608  0.1004
    1CHTO  H167  108   7.685   5.527   1.912  0.4010 -0.4350 -0.8096
    1CHTO  C102  109   7.662   5.275   1.768 -0.0885 -0.0182  0.1393
    1CHTO  H189  110   7.759   5.325   1.757  0.5348 -1.6599 -2.1609
    1CHTO   N18  111   7.614   5.250   1.627 -0.2307 -0.3458 -1.0735
    1CHTO  H176  112   7.661   5.163   1.583 -1.1019 -0.8754 -0.9708
    1CHTO  H177  113   7.510   5.223   1.638 -0.2326  0.2217  0.4050
    1CHTO  C105  114   7.670   5.134   1.843  0.3118 -0.4375  0.3977
    1CHTO  H192  115   7.595   5.068   1.799  0.8700 -0.4064 -0.5986
    1CHTO   O65  116   7.643   5.159   1.988 -0.1996  0.5288  0.0397
    1CHTO  C100  117   7.501   5.178   2.008  0.4505  0.1317 -0.2866
    1CHTO  H187  118   7.456   5.082   1.979  0.7175  0.6279 -2.5024
    1CHTO  C107  119   7.476   5.209   2.162  0.5538 -0.1943 -0.0214
    1CHTO   O70  120   7.334   5.225   2.189  0.0305 -0.0427  0.3450
    1CHTO  H170  121   7.286   5.155   2.150 -0.2752  0.0851  0.4965
    1CHTO   O57  122   7.830   5.086   1.820 -0.9092 -0.0883 -0.2895
    1CHTO   C85  123   7.833   4.954   1.774 -0.1121  0.0468  0.8329
    1CHTO  H157  124   7.747   4.940   1.706  0.2988 -1.2743  0.5753
    1CHTO   C83  125   7.828   4.856   1.897  0.7936  0.5078 -0.1553
    1CHTO  H155  126   7.728   4.870   1.938  0.1148 -0.3915 -1.4570
    1CHTO   O56  127   7.928   4.887   1.996  0.1435  0.4493 -0.1984
    1CHTO  H135  128   7.993   4.820   2.008  0.2202  0.6165  0.3284
    1CHTO   C81  129   7.841   4.709   1.846 -0.0509 -0.3198  0.2233
    1CHTO  H153  130   7.760   4.686   1.777  1.4608 -1.2273 -1.2721
    1CHTO   N14  131   7.813   4.615   1.957 -0.2083 -0.1733  0.2779
    1CHTO  H141  132   7.892   4.616   2.030  0.2088  1.7029 -0.1709
    1CHTO  H142  133   7.811   4.519   1.909 -1.3483 -0.4752  0.9230
    1CHTO   C79  134   7.979   4.692   1.771  0.4925  0.5594 -0.6939
    1CHTO  H151  135   7.983   4.589   1.735  4.8500  1.0064 -1.7334
    1CHTO   O52  136   7.986   4.787   1.656 -0.1612 -0.2179 -0.2007
    1CHTO   C86  137   7.969   4.928   1.698 -0.2919 -0.2558 -0.1043
    1CHTO  H158  138   8.058   4.952   1.759  1.0081 -2.3278 -1.1271
    1CHTO   C90  139   7.985   5.018   1.570  0.2917  0.2675 -0.0190
    1CHTO   O60  140   8.004   5.151   1.619  0.2599  0.3988 -0.0328
    1CHTO  H138  141   7.944   5.205   1.571 -1.8211 -1.7410  0.0879
    1CHTO   O50  142   8.101   4.696   1.852 -0.3735 -0.3973 -0.0969
    1CHTO   C73  143   8.224   4.640   1.815 -0.4440 -0.4817  0.0312
    1CHTO  H145  144   8.242   4.653   1.708 -0.2583 -0.0305  0.1171
    1CHTO   C74  145   8.228   4.491   1.858 -0.1407 -0.3536 -0.5481
    1CHTO  H146  146   8.155   4.432   1.801  0.9648 -1.1940 -1.1122
    1CHTO   O54  147   8.356   4.439   1.831  0.5104 -0.4611  0.4049
    1CHTO  H133  148   8.359   4.346   1.846 -0.3571 -0.1900  2.4555
    1CHTO   C75  149   8.198   4.483   2.015 -0.8866 -0.9144 -0.1789
    1CHTO  H147  150   8.094   4.515   2.025 -0.6254  0.3022 -1.1917
    1CHTO   N13  151   8.202   4.342   2.072 -0.1177  0.5646  0.3441
    1CHTO  H139  152   8.160   4.337   2.171  1.4257 -0.7508  0.9527
    1CHTO  H140  153   8.298   4.295   2.064 -0.3222  0.3780 -1.2676
    1CHTO   C76  154   8.299   4.588   2.100  0.6353  0.6410 -0.9205
    1CHTO  H148  155   8.399   4.547   2.096  0.8271  0.4643  3.4144
    1CHTO   O49  156   8.303   4.719   2.029 -1.0630  0.5125 -0.0130
    1CHTO   C77  157   8.334   4.722   1.891 -0.6445 -0.0552 -0.0770
    1CHTO  H149  158   8.432   4.683   1.866 -0.5496 -1.0200  1.6938
    1CHTO   C88  159   8.337   4.863   1.836 -0.1343 -0.0242  0.6177
    1CHTO   O58  160   8.419   4.943   1.897 -0.3858  0.1631 -0.1580
    1CHTO  H136  161   8.419   5.022   1.846 -1.1969  0.1968 -0.1190
    1CHTO   O51  162   8.260   4.604   2.227 -0.3324 -0.1738  0.1525
    1CHTO   C78  163   8.199   4.764   2.279  0.4374 -0.4163  0.5254
    1CHTO  H150  164   8.182   4.829   2.191  2.9978  1.0805  1.0686
    1CHTO   C80  165   8.305   4.832   2.368 -0.5138  0.0687 -0.1141
    1CHTO  H152  166   8.343   4.755   2.439  1.0606  1.2062  0.3050
    1CHTO   O55  167   8.427   4.852   2.288 -0.1498 -0.3789  0.6758
    1CHTO  H134  168   8.401   4.867   2.200  3.4811 -1.9096 -0.7549
    1CHTO   C84  169   8.265   4.960   2.446  0.2995 -0.4957  0.4979
    1CHTO  H156  170   8.272   5.045   2.378 -2.1760 -1.6048 -1.1833
    1CHTO   N15  171   8.364   5.002   2.546 -0.2785 -0.1117  0.1683
    1CHTO  H143  172   8.388   4.927   2.619 -0.2576 -1.3076 -1.0322
    1CHTO  H144  173   8.355   5.097   2.593  1.2724 -0.9808  2.3298
    1CHTO   C87  174   8.126   4.947   2.506  0.4874 -0.2304 -0.4281
    1CHTO  H159  175   8.122   4.896   2.602 -0.2763 -0.8660 -0.7962
    1CHTO   O53  176   8.031   4.884   2.402  0.3509  0.7135  0.3081
    1CHTO   C82  177   8.068   4.754   2.362 -0.0175 -0.5554  0.3351
    1CHTO  H154  178   8.084   4.690   2.448 -1.1656 -1.0720  0.1644
    1CHTO   C89  179   7.953   4.699   2.289 -0.0510 -0.5249 -0.2607
    1CHTO   O59  180   7.967   4.559   2.262 -0.0151 -0.5374 -0.3818
    1CHTO  H137  181   7.891   4.508   2.240  0.0854 -0.8803  0.0692
    1CHTO   O45  182   8.074   5.091   2.540  0.3570 -0.2198 -0.0212
    1CHTO   C67  183   8.016   5.161   2.427 -0.4161 -0.0240 -0.1062
    1CHTO  H124  184   8.048   5.112   2.335 -0.1767 -0.8594  0.4122
    1CHTO   C65  185   7.860   5.148   2.429 -0.4163  0.4050 -0.0367
    1CHTO  H122  186   7.830   5.044   2.445 -1.8690  0.9499  0.9191
    1CHTO   O44  187   7.806   5.178   2.302 -0.2879 -0.3522 -0.2333
    1CHTO  H102  188   7.863   5.144   2.236 -1.7310  1.5733 -2.5333
    1CHTO   C63  189   7.819   5.225   2.558 -0.2091  0.2473  0.7509
    1CHTO  H120  190   7.884   5.197   2.641  2.3085  0.6320 -1.0203
    1CHTO   N11  191   7.685   5.203   2.618  0.3179  0.4647 -0.2632
    1CHTO  H108  192   7.647   5.103   2.611 -1.0902  0.7706  2.3680
    1CHTO  H109  193   7.608   5.275   2.597 -0.3551  0.2716  1.4018
    1CHTO   C61  194   7.845   5.382   2.530  0.0033 -0.3329  0.0401
    1CHTO  H118  195   7.830   5.437   2.624 -0.9430  0.2928 -0.4680
    1CHTO   O40  196   7.986   5.404   2.489 -0.1645 -0.0778 -0.2371
    1CHTO   C68  197   8.066   5.304   2.424  0.4397 -0.0199 -0.1674
    1CHTO  H125  198   8.165   5.304   2.475  0.4107 -0.6754 -0.1054
    1CHTO   C72  199   8.089   5.356   2.281 -0.1816  0.1407  0.1840
    1CHTO   O48  200   8.196   5.286   2.229  0.2086  0.1300 -0.2906
    1CHTO  H105  201   8.172   5.206   2.186  0.8972 -0.0869 -0.2749
    1CHTO   O38  202   7.758   5.438   2.425 -0.3214  0.1077 -0.1628
    1CHTO   C55  203   7.696   5.562   2.455 -0.3190 -0.2987  0.4873
    1CHTO  H112  204   7.766   5.623   2.515  0.6205  2.0870 -2.8971
    1CHTO   C56  205   7.552   5.556   2.518 -0.0706  0.2576 -0.7087
    1CHTO  H113  206   7.489   5.492   2.455  0.7995 -0.3902 -0.9398
    1CHTO   O42  207   7.564   5.484   2.648 -0.3445  0.5715  0.3092
    1CHTO  H100  208   7.605   5.402   2.630  2.3178  1.9575 -0.1686
    1CHTO   C57  209   7.508   5.711   2.535 -0.0941  0.4031 -0.5744
    1CHTO  H114  210   7.580   5.760   2.601 -0.8320  0.6441  0.0590
    1CHTO   N10  211   7.368   5.715   2.591 -0.4276 -0.0675 -0.2501
    1CHTO  H106  212   7.305   5.695   2.506  0.6134 -2.4543 -0.5016
    1CHTO  H107  213   7.348   5.811   2.636  0.0651 -1.1635  2.4522
    1CHTO   C58  214   7.517   5.790   2.403 -0.0216  0.0620 -0.0795
    1CHTO  H115  215   7.434   5.759   2.336  0.7104  0.6343 -1.2872
    1CHTO   O37  216   7.644   5.770   2.332  0.2275 -0.1747  0.2441
    1CHTO   C59  217   7.692   5.634   2.315 -0.8024  0.0728 -0.6170
    1CHTO  H116  218   7.630   5.578   2.245  1.3108 -2.9228 -0.1639
    1CHTO   C70  219   7.833   5.630   2.253  0.2381  0.2327  0.7266
    1CHTO   O46  220   7.837   5.652   2.113 -0.7021  0.0443 -0.1203
    1CHTO  H103  221   7.885   5.586   2.067  0.9467 -0.0679  1.6745
    1CHTO   O39  222   7.509   5.943   2.433  0.1901 -0.3302  0.1739
    1CHTO   C60  223   7.436   6.017   2.330  0.5029 -0.4944  0.0995
    1CHTO  H117  224   7.464   5.975   2.233 -0.9897  1.0022 -1.0125
    1CHTO   C62  225   7.285   6.008   2.351 -0.2630  0.0325 -0.0665
    1CHTO  H119  226   7.253   5.901   2.346  1.8928 -0.6813  0.5866
    1CHTO   O43  227   7.240   6.044   2.483 -0.8292  0.1223  0.5781
    1CHTO  H101  228   7.310   6.078   2.537 -1.7791  0.3331  1.6926
    1CHTO   C66  229   7.217   6.092   2.225  0.4152 -0.9374  0.2786
    1CHTO  H123  230   7.259   6.054   2.132  1.1974  0.8297 -0.1220
    1CHTO   N12  231   7.066   6.082   2.227  0.7652  0.1965 -0.4319
    1CHTO  H110  232   7.027   6.112   2.323  1.3417  1.7498 -0.6640
    1CHTO  H111  233   7.012   6.004   2.176 -1.8243  1.1690  0.7568
    1CHTO   C69  234   7.263   6.242   2.241  0.5317 -0.3387 -0.4491
    1CHTO  H126  235   7.237   6.276   2.344  1.8886 -0.2325 -0.1345
    1CHTO   O41  236   7.401   6.251   2.235  0.1070  0.1569  0.3513
    1CHTO   C64  237   7.484   6.161   2.334 -0.0815 -0.1594  0.6867
    1CHTO  H121  238   7.476   6.203   2.437 -1.1335  1.3080  0.0270
    1CHTO   C71  239   7.629   6.165   2.279 -0.3879  0.2193  0.0822
    1CHTO   O47  240   7.698   6.281   2.320 -0.0841  0.4400 -0.5825
    1CHTO  H104  241   7.710   6.293   2.412 -1.5717 -1.2908 -0.1251
    1CHTO   O34  242   7.199   6.339   2.131  0.0092 -0.2648 -0.4665
    1CHTO   C49  243   7.128   6.475   2.144  0.1401  0.0385  0.1696
    1CHTO   H91  244   7.035   6.462   2.087 -0.4405 -1.4332  1.4120
    1CHTO   C47  245   7.210   6.582   2.083 -0.0255  0.4513  0.9170
    1CHTO   H89  246   7.145   6.672   2.089 -0.3113  0.3149 -0.1562
    1CHTO   O33  247   7.239   6.559   1.950 -0.2277  0.0750 -0.1180
    1CHTO   H70  248   7.274   6.639   1.916 -1.7082  0.3069 -1.1033
    1CHTO   C45  249   7.344   6.605   2.178  0.1722  0.4954 -0.0240
    1CHTO   H87  250   7.397   6.510   2.193 -0.7965 -0.1136 -0.4087
    1CHTO    N8  251   7.440   6.698   2.117 -0.5166  0.0031  0.4462
    1CHTO   H75  252   7.506   6.641   2.053  0.3137 -0.9171  2.0940
    1CHTO   H76  253   7.500   6.755   2.186  0.2083 -1.9609  1.4636
    1CHTO   C43  254   7.298   6.652   2.321  0.4281 -0.1290 -0.2621
    1CHTO   H85  255   7.390   6.647   2.379 -0.5307 -1.4502  1.1721
    1CHTO   O29  256   7.198   6.563   2.373 -0.4867  0.2437  0.9238
    1CHTO   C50  257   7.089   6.517   2.289 -0.1202 -0.4844 -0.5536
    1CHTO   H92  258   7.045   6.431   2.342  1.7030 -1.7560 -1.0603
    1CHTO   C54  259   6.974   6.625   2.297  0.1643 -0.8682 -0.3626
    1CHTO   O36  260   6.859   6.577   2.219 -0.2232  0.3827 -0.7344
    1CHTO   H72  261   6.786   6.574   2.277  0.7538 -1.3374  0.4736
    1CHTO   O27  262   7.251   6.788   2.323 -0.1608 -0.4865 -0.0667
    1CHTO   C37  263   7.281   6.894   2.409 -0.0850  0.3092  0.2911
    1CHTO   H79  264   7.303   6.845   2.504  2.6564 -2.9399 -1.9154
    1CHTO   C38  265   7.404   6.979   2.362  0.1705  0.4549 -0.4526
    1CHTO   H80  266   7.394   7.001   2.255 -1.9368  0.9401 -0.1733
    1CHTO   O31  267   7.519   6.890   2.392 -0.3374 -0.1192 -0.0442
    1CHTO   H68  268   7.576   6.890   2.318  1.0364 -0.6677  0.9821
    1CHTO   C39  269   7.413   7.105   2.451  0.1680  0.3815  0.2877
    1CHTO   H81  270   7.420   7.081   2.557 -0.3223 -0.7259  0.0750
    1CHTO    N7  271   7.537   7.184   2.418  0.6742 -0.1819  0.0500
    1CHTO   H73  272   7.528   7.268   2.486 -0.9855 -1.3826  1.3486
    1CHTO   H74  273   7.623   7.124   2.444  0.2993 -0.2047  1.2587
    1CHTO   C40  274   7.279   7.179   2.427  0.5512  0.4036 -0.0394
    1CHTO   H82  275   7.263   7.199   2.321  0.3658  1.7394  0.2206
    1CHTO   O26  276   7.174   7.106   2.486 -0.1108  0.8156  0.6715
    1CHTO   C41  277   7.144   6.979   2.422  0.0171 -0.0742 -0.0418
    1CHTO   H83  278   7.092   7.004   2.328  3.0432  2.5714 -1.1311
    1CHTO   C52  279   7.059   6.909   2.524  0.3989 -0.2569  0.4737
    1CHTO   O35  280   7.123   6.885   2.667  0.0077 -0.2051 -0.3980
    1CHTO   H71  281   7.055   6.855   2.724  0.8768 -0.3880  0.5416
    1CHTO   O28  282   7.254   7.297   2.504  0.0529 -0.3932  0.2359
    1CHTO   C42  283   7.212   7.417   2.438  0.5970 -0.1759  0.3029
    1CHTO   H84  284   7.238   7.410   2.333 -1.8759 -2.6036 -0.2182
    1CHTO   C44  285   7.266   7.557   2.496 -0.1576  0.0783  0.1279
    1CHTO   H86  286   7.218   7.570   2.593 -1.0643  3.9121 -0.7164
    1CHTO   O32  287   7.408   7.548   2.501  0.2464 -0.1761  0.0923
    1CHTO   H69  288   7.444   7.624   2.541 -0.1199 -0.7013  1.4211
    1CHTO   C48  289   7.220   7.678   2.402  1.0261 -0.3588  0.6210
    1CHTO   H90  290   7.255   7.666   2.299  0.7917  0.8765  0.3787
    1CHTO    N9  291   7.285   7.807   2.453 -0.1585 -0.2438  0.6264
    1CHTO   H77  292   7.257   7.836   2.553  0.9832  1.6754  0.4215
    1CHTO   H78  293   7.256   7.891   2.392  1.2744 -0.5270 -0.4914
    1CHTO   C51  294   7.065   7.688   2.414 -0.5688 -0.5975 -0.1552
    1CHTO   H93  295   7.042   7.689   2.520 -0.4341  2.5510 -0.1051
    1CHTO   O30  296   7.023   7.572   2.348  0.1686  0.2882 -0.5230
    1CHTO   C46  297   7.053   7.447   2.444  0.2178  0.2028  0.1759
    1CHTO   H88  298   7.015   7.476   2.542 -1.7774  0.6285 -0.6878
    1CHTO   C53  299   6.974   7.334   2.386 -0.2888 -0.2118 -0.1064
    1CHTO   O72  300   6.841   7.378   2.367  0.2753  0.4455  0.7053
    1CHTO  H199  301   6.832   7.413   2.280 -0.1750  0.4283  0.7416
    1CHTO   O22  302   7.007   7.805   2.347  0.4834  0.2702 -0.3106
    1CHTO   C31  303   6.962   7.818   2.212  0.5696 -0.1899 -0.0897
    1CHTO   H59  304   6.915   7.918   2.209 -1.9581 -1.3432 -0.7364
    1CHTO   C29  305   7.077   7.815   2.108 -0.2010  0.0119 -0.1739
    1CHTO   H57  306   7.141   7.728   2.128 -0.6085 -0.0817  0.7353
    1CHTO   O21  307   7.153   7.931   2.137 -0.3547 -0.2167 -0.1892
    1CHTO   H37  308   7.244   7.907   2.142 -0.6884 -1.4550  0.1631
    1CHTO   C27  309   7.033   7.809   1.953 -0.6189 -0.1848 -0.2561
    1CHTO   H55  310   6.995   7.908   1.923 -2.6580 -0.6901  0.5671
    1CHTO    N5  311   7.153   7.769   1.868  0.2023  0.1878  0.4359
    1CHTO   H43  312   7.223   7.705   1.920 -0.5578 -0.4431  0.6930
    1CHTO   H44  313   7.191   7.848   1.805  1.0111 -1.5614 -1.3313
    1CHTO   C25  314   6.923   7.702   1.938 -0.5030 -0.4723 -0.1753
    1CHTO   H53  315   6.961   7.603   1.967 -0.8825 -0.5011  0.2462
    1CHTO   O17  316   6.801   7.736   2.026  0.2259  0.2724 -0.1632
    1CHTO   C32  317   6.847   7.722   2.161 -0.1875 -0.1606  0.4509
    1CHTO   H60  318   6.880   7.618   2.171 -1.0516 -0.6897 -1.7765
    1CHTO   C36  319   6.716   7.728   2.249  0.1383  0.3652 -0.2832
    1CHTO   O25  320   6.653   7.851   2.235  0.0829  0.4721  0.3410
    1CHTO   H40  321   6.559   7.847   2.236  0.0401  1.3894  2.3010
    1CHTO   O15  322   6.864   7.700   1.798 -0.9249 -0.2025  0.0333
    1CHTO   C19  323   6.780   7.667   1.688  0.1132 -0.0987 -0.0766
    1CHTO   H47  324   6.682   7.711   1.715  0.6751  0.9397  0.2890
    1CHTO   C20  325   6.837   7.731   1.553  0.8035  0.1758  0.7699
    1CHTO   H48  326   6.943   7.706   1.538  0.8463  0.6116  0.3307
    1CHTO   O19  327   6.827   7.873   1.563 -0.0438  0.0946 -0.4574
    1CHTO   H35  328   6.898   7.916   1.605 -1.2051  0.5073  1.1026
    1CHTO   C21  329   6.759   7.678   1.425  0.1095 -0.4113  0.1897
    1CHTO   H49  330   6.656   7.714   1.429 -0.1313 -0.9476 -0.9879
    1CHTO    N4  331   6.819   7.734   1.297 -0.2422  0.0461 -0.4617
    1CHTO   H41  332   6.833   7.841   1.297  0.1515 -0.0039 -0.3150
    1CHTO   H42  333   6.913   7.688   1.268  0.0080  1.7570 -2.5428
    1CHTO   C22  334   6.750   7.525   1.429  0.1940  0.4493 -0.4970
    1CHTO   H50  335   6.852   7.486   1.422  0.1027 -0.0215  0.7115
    1CHTO   O14  336   6.683   7.493   1.557  0.4959  0.3124 -0.3622
    1CHTO   C23  337   6.751   7.516   1.681 -0.4538 -0.4436 -0.5071
    1CHTO   H51  338   6.845   7.458   1.679 -0.1256  0.0975 -1.0270
    1CHTO   C34  339   6.664   7.462   1.796  0.0512  0.1361  0.2332
    1CHTO   O23  340   6.747   7.442   1.913 -0.1090 -0.2255  0.1053
    1CHTO   H38  341   6.821   7.385   1.902  1.6589  1.3000  3.3045
    1CHTO   O16  342   6.668   7.460   1.328  0.7673  0.3141  0.3543
    1CHTO   C24  343   6.739   7.356   1.227  0.2711 -0.1075 -0.2321
    1CHTO   H52  344   6.847   7.350   1.239  0.4854  2.0614 -0.9471
    1CHTO   C26  345   6.709   7.403   1.083  0.5723  0.1817 -0.1450
    1CHTO   H54  346   6.600   7.419   1.071  0.4177  0.7901  1.9235
    1CHTO   O20  347   6.773   7.527   1.059  0.3964 -0.0595  0.3392
    1CHTO   H36  348   6.860   7.527   1.096  0.3193  0.6274  0.5342
    1CHTO   C30  349   6.756   7.296   0.981  0.3510 -0.4302  0.1709
    1CHTO   H58  350   6.866   7.296   0.971  0.1608 -0.5535 -2.2323
    1CHTO    N6  351   6.703   7.336   0.849 -0.0262  0.0292  0.5152
    1CHTO   H45  352   6.724   7.265   0.770  0.0027  1.8574 -1.1787
    1CHTO   H46  353   6.744   7.433   0.821  0.1098 -0.5379 -1.3340
    1CHTO   C33  354   6.723   7.152   1.027 -0.6373  1.0272  0.8546
    1CHTO   H61  355   6.617   7.127   1.008 -0.3451 -0.2038  0.8138
    1CHTO   O18  356   6.750   7.138   1.162 -0.1212 -0.2478  0.4499
    1CHTO   C28  357   6.683   7.216   1.253 -0.1347 -0.2927 -0.1848
    1CHTO   H56  358   6.575   7.219   1.242 -0.2066  1.2661  0.8240
    1CHTO   C35  359   6.728   7.174   1.392  0.3018  0.1224 -0.3788
    1CHTO   O24  360   6.691   7.047   1.429 -0.2252 -0.0088 -0.0130
    1CHTO   H39  361   6.610   7.046   1.477 -1.6829 -2.3574 -2.3494
    1CHTO    O9  362   6.794   7.058   0.949 -0.1844  0.1756  0.0946
    1CHTO   C13  363   6.723   6.905   0.987 -0.7735 -0.2332  0.0819
    1CHTO   H26  364   6.617   6.929   1.008 -0.6388 -0.3979  0.9934
    1CHTO   C11  365   6.797   6.849   1.119 -0.1807 -1.0019  0.5161
    1CHTO   H24  366   6.748   6.898   1.205  0.0250  0.6001 -0.2676
    1CHTO    O8  367   6.938   6.879   1.114  0.1368 -0.7848  0.1265
    1CHTO    H3  368   6.989   6.808   1.079  0.0222 -0.6185 -0.3756
    1CHTO    C9  369   6.768   6.702   1.130 -0.2038 -0.1888 -0.2231
    1CHTO   H22  370   6.659   6.690   1.128 -0.0021 -2.1301 -0.7695
    1CHTO    N2  371   6.804   6.646   1.260  0.3269 -0.0833  0.8924
    1CHTO   H10  372   6.781   6.716   1.339  0.9409 -1.7762  2.6132
    1CHTO   H11  373   6.737   6.562   1.270 -0.0672  0.2425  1.0180
    1CHTO    C7  374   6.829   6.622   1.007 -0.1457  0.0924  0.4503
    1CHTO   H20  375   6.767   6.530   0.999  0.1515  0.0492 -1.4478
    1CHTO    O4  376   6.828   6.696   0.883  0.1568  0.6646  0.1603
    1CHTO   C14  377   6.731   6.796   0.860  0.0945  0.2152 -0.7185
    1CHTO   H27  378   6.629   6.753   0.855 -0.0217  0.4914 -0.7364
    1CHTO   C18  379   6.752   6.861   0.719  0.2806 -0.1833 -0.5981
    1CHTO   O13  380   6.644   6.926   0.656  0.7154  0.0659  0.5360
    1CHTO    H7  381   6.574   6.866   0.638  1.0718 -0.4454  0.8190
    1CHTO    O2  382   6.984   6.587   1.041  0.1774 -0.3799 -0.1437
    1CHTO    C1  383   7.018   6.453   1.017 -0.0007  0.2071  0.0431
    1CHTO   H14  384   6.937   6.406   0.958  0.1709  0.6403 -0.5520
    1CHTO    C2  385   7.059   6.364   1.147  0.1138  0.6118  0.0424
    1CHTO   H15  386   7.128   6.423   1.208  1.1169 -0.2178 -0.2787
    1CHTO    O6  387   6.940   6.336   1.223  0.1785 -0.4564 -1.1050
    1CHTO    H1  388   6.952   6.262   1.279 -1.1919  2.3229  3.1051
    1CHTO    C3  389   7.140   6.233   1.109  0.1283  0.1207 -0.5649
    1CHTO   H16  390   7.069   6.155   1.076  2.4605 -2.8437  1.1793
    1CHTO    N1  391   7.201   6.175   1.234 -0.2602 -0.0840  0.0300
    1CHTO    H8  392   7.242   6.254   1.295  1.2334 -1.3530  0.7169
    1CHTO    H9  393   7.144   6.099   1.285  1.9612 -1.7436  0.1126
    1CHTO    C4  394   7.246   6.258   0.993  0.0639  0.2383  0.0370
    1CHTO   H17  395   7.328   6.317   1.033  0.4121  0.0425 -0.3930
    1CHTO    O1  396   7.175   6.332   0.888  0.0719  0.7519 -0.0978
    1CHTO    C5  397   7.133   6.461   0.921  0.3902 -0.0527 -0.5921
    1CHTO   H18  398   7.207   6.511   0.984 -0.1191  0.5973 -0.4920
    1CHTO   C16  399   7.108   6.539   0.797  0.4397  0.1095 -0.2838
    1CHTO   O11  400   7.234   6.573   0.727  0.1394 -0.1499 -0.3445
    1CHTO    H5  401   7.260   6.495   0.682 -0.0947  0.0775 -0.8841
    1CHTO    O3  402   7.303   6.137   0.937  0.0318  0.4104  0.0295
    1CHTO    C6  403   7.397   6.153   0.821  0.0537  0.3103 -0.2162
    1CHTO   H19  404   7.384   6.251   0.774  1.4565 -0.3824 -2.1096
    1CHTO    C8  405   7.546   6.141   0.870 -0.5167  0.5952  0.5222
    1CHTO   H21  406   7.563   6.042   0.913 -1.3508 -0.0283 -0.5483
    1CHTO    O7  407   7.570   6.246   0.964  0.1905 -0.2006  0.2188
    1CHTO    H2  408   7.657   6.234   0.997  0.4739 -0.7444 -0.7061
    1CHTO   C12  409   7.619   6.153   0.732 -0.1964 -0.4523 -0.1151
    1CHTO   H25  410   7.588   6.253   0.695  0.3658  0.2398  1.2570
    1CHTO    N3  411   7.767   6.164   0.755 -0.8808  0.1405 -0.4094
    1CHTO   H12  412   7.824   6.140   0.667 -0.4692  0.7073 -0.3005
    1CHTO   H13  413   7.788   6.266   0.785 -2.4190  0.9859 -2.0992
    1CHTO   C15  414   7.578   6.035   0.632 -0.4724  0.3955  0.1540
    1CHTO   H28  415   7.593   5.934   0.670  1.0839  0.5774  0.0551
    1CHTO   O10  416   7.632   6.050   0.498 -0.2946 -0.3402  0.0343
    1CHTO    H4  417   7.706   5.992   0.495 -0.2574 -0.2958  0.1056
    1CHTO    O5  418   7.441   6.045   0.603  0.2116 -0.0752 -0.3143
    1CHTO   C10  419   7.352   6.046   0.717 -0.8209 -0.0667  0.4298
    1CHTO   H23  420   7.365   5.951   0.769 -0.1303 -1.8957 -2.9327
    1CHTO   C17  421   7.203   6.050   0.671  0.3660  0.4387  0.5038
    1CHTO   O12  422   7.181   6.165   0.583  0.2462 -0.0786  0.1270
    1CHTO    H6  423   7.170   6.247   0.627 -1.0451  0.7605 -1.6592
    2CHTO  H203  424   6.510   4.311   2.529  2.1147  1.8476 -2.5485
    2CHTO   O82  425   6.460   4.297   2.451 -0.8755 -0.2753 -0.3831
    2CHTO  C123  426   6.347   4.390   2.469 -0.2547 -0.0143 -0.3560
    2CHTO  H227  427   6.385   4.492   2.458  1.3962 -0.5734  0.0504
    2CHTO   O77  428   6.265   4.354   2.354  0.1124 -0.0567 -0.5357
    2CHTO  C118  429   6.155   4.451   2.335  0.2491  0.0700  0.6210
    2CHTO  H222  430   6.179   4.558   2.340 -0.7496  0.2289  2.1587
    2CHTO  C125  431   6.082   4.402   2.199  0.2093  0.1701  0.1445
    2CHTO   O84  432   6.069   4.259   2.197  0.3050 -0.0678 -0.4162
    2CHTO  H205  433   6.133   4.221   2.139 -0.5153 -0.7281 -0.9122
    2CHTO  C114  434   6.056   4.435   2.446 -0.2158 -0.5310 -0.4911
    2CHTO  H218  435   6.031   4.329   2.448 -1.5207 -0.2401 -0.6043
    2CHTO  C116  436   6.124   4.465   2.590  0.3643 -0.1024  0.4081
    2CHTO  H220  437   6.156   4.571   2.597 -2.4423  0.7182  1.5926
    2CHTO   O79  438   6.025   4.439   2.692  0.1746  0.1642 -0.0817
    2CHTO  H201  439   6.058   4.426   2.779  1.4283  1.7901 -0.2940
    2CHTO  C120  440   6.255   4.373   2.599 -0.5434  0.0476 -0.4621
    2CHTO  H224  441   6.220   4.268   2.598  2.6076 -1.0719 -2.2923
    2CHTO   N21  442   6.328   4.397   2.724 -0.0994  0.4091  0.1662
    2CHTO  H211  443   6.271   4.382   2.815  1.2156 -1.8691  0.6452
    2CHTO  H212  444   6.378   4.492   2.714 -0.5199  0.5730 -0.4643
    2CHTO   O75  445   5.954   4.527   2.434  0.9827 -0.1859 -0.4578
    2CHTO  C112  446   5.819   4.471   2.448  0.2379  0.6072  0.3071
    2CHTO  H216  447   5.826   4.395   2.528  0.8432  2.2916  1.8876
    2CHTO   O73  448   5.787   4.410   2.321  0.5561  0.0198  0.1568
    2CHTO  C113  449   5.660   4.347   2.303  0.0444 -0.8272 -0.2022
    2CHTO  H217  450   5.659   4.251   2.359 -0.5047  0.4636  2.0879
    2CHTO  C124  451   5.638   4.317   2.155  0.1720 -0.1420 -0.5042
    2CHTO   O83  452   5.744   4.233   2.112 -0.8509 -0.0322  0.1216
    2CHTO  H204  453   5.726   4.189   2.032 -0.2297 -1.0482  0.5302
    2CHTO  C109  454   5.548   4.436   2.348  0.0344 -0.1228  0.3072
    2CHTO  H213  455   5.539   4.523   2.281 -0.2992  0.1246  0.6681
    2CHTO  C110  456   5.576   4.490   2.493 -0.3392 -0.7959 -0.4588
    2CHTO  H214  457   5.582   4.406   2.563  1.4503  0.0183  0.4118
    2CHTO   O78  458   5.461   4.576   2.530  0.7046  0.2424 -0.0984
    2CHTO  H200  459   5.472   4.629   2.607  3.1816  0.1778 -0.3646
    2CHTO  C111  460   5.708   4.575   2.491 -0.1689 -0.5663 -0.6291
    2CHTO  H215  461   5.699   4.658   2.420  1.5310 -0.7593 -1.1116
    2CHTO   N19  462   5.748   4.631   2.624 -0.6185 -0.2788  1.0779
    2CHTO  H207  463   5.785   4.556   2.692 -0.8238 -1.5240 -0.1604
    2CHTO  H208  464   5.666   4.690   2.661 -0.6551  0.0212  0.5271
    2CHTO   O74  465   5.419   4.362   2.350  0.2180 -0.0139  0.7834
    2CHTO  C115  466   5.304   4.443   2.276 -0.6631 -0.0832  0.1620
    2CHTO  H219  467   5.323   4.551   2.279 -1.5224  0.0301  1.8261
    2CHTO   O76  468   5.311   4.416   2.117 -0.3688  1.1125 -0.5515
    2CHTO  C122  469   5.228   4.299   2.084  0.3232 -0.0448 -0.1768
    2CHTO  H226  470   5.266   4.210   2.134  0.5193  1.0862  1.6993
    2CHTO  C126  471   5.245   4.274   1.933  0.0007  0.7451  0.1776
    2CHTO   O85  472   5.171   4.165   1.883 -0.3532  0.1421 -0.4054
    2CHTO  H206  473   5.222   4.086   1.887 -0.2002  0.2279 -0.7032
    2CHTO  C121  474   5.074   4.310   2.113  0.6892 -0.1550 -0.1941
    2CHTO  H225  475   5.033   4.348   2.017  1.6093  0.4428 -0.3587
    2CHTO   O81  476   5.027   4.183   2.155 -0.0007 -0.5456 -0.3168
    2CHTO  H202  477   4.934   4.182   2.138 -0.0185 -1.0064 -0.1980
    2CHTO  C119  478   5.051   4.419   2.221 -0.1441 -0.9297  0.2493
    2CHTO  H223  479   5.075   4.509   2.166 -3.7724 -0.4531 -0.7106
    2CHTO  C117  480   5.164   4.410   2.334  0.4253 -0.6793  1.0414
    2CHTO  H221  481   5.159   4.309   2.375  0.3878 -0.1339  2.4185
    2CHTO   N20  482   5.134   4.504   2.452  0.0648 -0.9333 -0.1162
    2CHTO  H209  483   5.131   4.609   2.426  1.1714 -0.8930 -0.0769
    2CHTO  H210  484   5.042   4.476   2.501 -0.2334  1.9354  1.0376
    2CHTO   O80  485   4.904   4.436   2.260 -0.3986  0.0155 -0.2172
    2CHTO  C103  486   4.833   4.566   2.221  0.4041 -0.3043 -0.6959
    2CHTO  H190  487   4.894   4.656   2.227 -0.4718  0.2630 -0.2868
    2CHTO  C101  488   4.766   4.553   2.077 -0.0008  0.2822  0.1837
    2CHTO  H188  489   4.712   4.459   2.070 -0.0316  0.2185  1.2366
    2CHTO   O68  490   4.894   4.566   1.987  0.1963  0.1317  0.2272
    2CHTO  H168  491   4.877   4.530   1.902  0.1246 -1.5353  0.9360
    2CHTO   C99  492   4.655   4.671   2.059  0.3231 -0.3140  0.4516
    2CHTO  H186  493   4.712   4.765   2.070  0.4109 -0.3885  0.6233
    2CHTO   N17  494   4.595   4.674   1.919 -0.1271 -0.4403  0.3357
    2CHTO  H174  495   4.654   4.720   1.841  1.5096  1.4710  2.6238
    2CHTO  H175  496   4.540   4.586   1.890 -0.2984  0.2163 -1.3737
    2CHTO   C97  497   4.549   4.666   2.171  0.8269  0.0575  0.0377
    2CHTO  H184  498   4.485   4.577   2.161  1.7718 -0.5602 -0.6270
    2CHTO   O64  499   4.615   4.670   2.301  0.0672 -0.0723  0.0764
    2CHTO  C104  500   4.716   4.577   2.332  0.0736  0.1875 -0.3777
    2CHTO  H191  501   4.672   4.482   2.359 -1.3446  1.0910  0.5355
    2CHTO  C108  502   4.777   4.632   2.463 -0.4890  0.0186  0.5079
    2CHTO   O71  503   4.699   4.601   2.577 -0.0991  0.5171  0.0657
    2CHTO  H171  504   4.751   4.585   2.654 -0.0524  0.0493 -0.0602
    2CHTO   O62  505   4.464   4.786   2.179  0.2482 -0.1170 -0.2190
    2CHTO   C91  506   4.344   4.800   2.259  0.0077 -0.2781 -0.2888
    2CHTO  H178  507   4.346   4.715   2.328  1.1817  0.6492  0.8227
    2CHTO   C92  508   4.205   4.776   2.180  0.2900 -0.8950  0.1199
    2CHTO  H179  509   4.209   4.679   2.128 -1.4178  0.1886 -2.1522
    2CHTO   O66  510   4.085   4.778   2.266 -0.4177 -0.3189 -0.4419
    2CHTO  H166  511   4.009   4.780   2.212 -1.0902  2.2163  0.5562
    2CHTO   C93  512   4.186   4.897   2.082 -0.3117  0.0308 -0.8354
    2CHTO  H180  513   4.085   4.883   2.040 -1.5417  1.6726  1.4969
    2CHTO   N16  514   4.280   4.896   1.958 -0.3046 -0.1527  0.6593
    2CHTO  H172  515   4.230   4.929   1.868 -0.2930  1.2822  1.1659
    2CHTO  H173  516   4.363   4.962   1.975 -0.9194  1.5373 -2.4461
    2CHTO   C94  517   4.188   5.036   2.164  0.1085  0.0347  0.1147
    2CHTO  H181  518   4.263   5.106   2.129  0.0480  0.5179  0.9401
    2CHTO   O61  519   4.209   5.024   2.307 -0.1337  0.1568 -0.7172
    2CHTO   C95  520   4.330   4.944   2.332  0.4286  0.0964  0.4758
    2CHTO  H182  521   4.419   5.002   2.309  0.8437 -0.6436  0.2225
    2CHTO  C106  522   4.346   4.920   2.489  0.7931  0.2533  0.4897
    2CHTO   O69  523   4.310   4.792   2.538  0.4636  0.0056  0.7719
    2CHTO  H169  524   4.220   4.771   2.520 -0.1831  0.4905  3.1911
    2CHTO   O63  525   4.061   5.087   2.160  0.4530  0.0278 -0.5289
    2CHTO   C96  526   4.058   5.262   2.138 -0.2511  0.5598 -0.2366
    2CHTO  H183  527   4.158   5.302   2.151 -1.5120  3.9755 -0.3579
    2CHTO   C98  528   3.963   5.340   2.234 -0.5468  0.0812  0.3815
    2CHTO  H185  529   3.860   5.301   2.230 -0.5843  0.3944 -2.2943
    2CHTO   O67  530   4.016   5.300   2.366  0.0794 -0.5070  0.4117
    2CHTO  H167  531   3.969   5.341   2.436  0.7583  2.4481 -0.7801
    2CHTO  C102  532   3.981   5.503   2.219 -0.0371 -0.3650 -0.0909
    2CHTO  H189  533   4.082   5.521   2.259 -0.2883  2.3421 -0.6024
    2CHTO   N18  534   3.886   5.581   2.303 -1.0828 -0.2212 -0.0155
    2CHTO  H176  535   3.902   5.587   2.410 -0.6925  0.0411 -0.0872
    2CHTO  H177  536   3.858   5.676   2.260 -0.0706  0.4028  0.6817
    2CHTO  C105  537   3.972   5.540   2.070  0.4293  0.5208 -0.1598
    2CHTO  H192  538   3.866   5.543   2.042  0.0092 -3.5146  0.6856
    2CHTO   O65  539   4.039   5.449   1.979 -0.0477 -0.0831  0.2740
    2CHTO  C100  540   4.010   5.312   1.993  0.4452  1.0650 -0.6890
    2CHTO  H187  541   3.902   5.295   1.980  0.6739 -1.3145  0.2647
    2CHTO  C107  542   4.083   5.215   1.890  0.7935 -0.3157 -0.1579
    2CHTO   O70  543   4.017   5.225   1.764 -0.3419 -0.4753 -0.0448
    2CHTO  H170  544   4.026   5.308   1.722  0.6005 -1.5120 -1.9463
    2CHTO   O57  545   4.042   5.693   2.069  0.2451 -0.0185  0.2641
    2CHTO   C85  546   3.980   5.817   2.023 -0.1835  0.7772  0.5263
    2CHTO  H157  547   3.880   5.822   2.071 -0.8848  0.6998 -0.9081
    2CHTO   C83  548   3.951   5.803   1.865  0.4947 -0.2019 -0.2064
    2CHTO  H155  549   3.872   5.729   1.848 -0.3598  0.7507 -0.4587
    2CHTO   O56  550   4.067   5.756   1.799 -0.1801  0.3229  0.4630
    2CHTO  H135  551   4.143   5.791   1.843  1.2904 -1.0765 -0.8815
    2CHTO   C81  552   3.902   5.936   1.804 -0.0537  0.4117 -0.3252
    2CHTO  H153  553   3.819   5.972   1.864  0.1744  1.4069 -0.5859
    2CHTO   N14  554   3.846   5.929   1.666  0.0823 -0.2178 -0.4972
    2CHTO  H141  555   3.896   6.004   1.609 -1.8325  0.4109 -1.4204
    2CHTO  H142  556   3.862   5.832   1.625  1.7155 -0.0314 -0.3289
    2CHTO   C79  557   4.019   6.041   1.830 -0.7382  0.1997  0.0433
    2CHTO  H151  558   3.987   6.141   1.801  1.8386  2.1066  3.3800
    2CHTO   O52  559   4.034   6.059   1.977 -0.2577  0.1061  0.0510
    2CHTO   C86  560   4.067   5.946   2.051 -1.1783  0.3635 -0.0989
    2CHTO  H158  561   4.167   5.917   2.012 -0.9920  0.3856  0.3503
    2CHTO   C90  562   4.080   5.977   2.202  0.1106  0.5436 -0.2598
    2CHTO   O60  563   4.176   6.085   2.219 -0.0724 -0.0298 -0.3600
    2CHTO  H138  564   4.146   6.172   2.200  2.3743  1.2370  1.2268
    2CHTO   O50  565   4.147   6.020   1.770 -0.2467  0.2762  0.2847
    2CHTO   C73  566   4.226   6.080   1.665 -0.1325 -0.3606  0.2829
    2CHTO  H145  567   4.189   6.180   1.638 -0.5514 -1.0531 -1.7762
    2CHTO   C74  568   4.220   5.999   1.539  0.5029 -0.1993 -0.0584
    2CHTO  H146  569   4.114   5.993   1.511  0.1992  1.4198  0.7332
    2CHTO   O54  570   4.280   6.071   1.433 -0.0550  0.3974 -0.0740
    2CHTO  H133  571   4.272   6.021   1.354 -0.3665  1.1562 -0.5317
    2CHTO   C75  572   4.285   5.852   1.567 -0.1269  0.5322  0.2174
    2CHTO  H147  573   4.225   5.800   1.643  2.3267 -0.4258  1.5596
    2CHTO   N13  574   4.287   5.762   1.443 -0.1681 -0.5807 -0.2711
    2CHTO  H139  575   4.241   5.668   1.471 -1.6743  0.2534  0.1112
    2CHTO  H140  576   4.228   5.814   1.369  1.4276 -1.3990 -2.1765
    2CHTO   C76  577   4.437   5.875   1.624 -0.4047 -0.7004 -0.4922
    2CHTO  H148  578   4.501   5.920   1.548  0.1645 -0.8096 -0.0897
    2CHTO   O49  579   4.446   5.972   1.729  0.5429  0.0427  0.0438
    2CHTO   C77  580   4.378   6.094   1.697 -0.1431  0.8392  0.2771
    2CHTO  H149  581   4.430   6.132   1.609  1.0086  0.7128  0.8982
    2CHTO   C88  582   4.408   6.197   1.801 -0.8459 -0.6228 -0.2428
    2CHTO   O58  583   4.356   6.161   1.942  0.3578  0.0829 -0.5721
    2CHTO  H136  584   4.314   6.236   1.981 -2.1497 -1.1472 -0.7889
    2CHTO   O51  585   4.490   5.740   1.680  0.2318  0.1437  1.1762
    2CHTO   C78  586   4.571   5.728   1.824  0.0831  0.0261  0.6193
    2CHTO  H150  587   4.545   5.811   1.892  0.1363 -0.1888  0.8996
    2CHTO   C80  588   4.723   5.739   1.784 -0.8621  0.1033 -0.4128
    2CHTO  H152  589   4.734   5.674   1.695 -1.6435 -0.5261 -0.0593
    2CHTO   O55  590   4.751   5.878   1.748  0.1742  0.4035  0.4371
    2CHTO  H134  591   4.680   5.903   1.691 -0.4771 -0.3461  0.8974
    2CHTO   C84  592   4.809   5.691   1.908  0.3423 -0.1331 -0.0336
    2CHTO  H156  593   4.817   5.774   1.977 -2.1171 -0.8952  1.2081
    2CHTO   N15  594   4.949   5.670   1.861  0.3351 -0.0966  0.3821
    2CHTO  H143  595   5.001   5.764   1.855 -1.6505  0.9998 -0.2476
    2CHTO  H144  596   4.955   5.623   1.765  1.1468 -0.1440  0.4585
    2CHTO   C87  597   4.758   5.567   1.980 -0.3321 -0.2868 -0.4922
    2CHTO  H159  598   4.770   5.469   1.933  0.9239  0.1322 -1.0563
    2CHTO   O53  599   4.605   5.588   2.012  0.4407 -0.1060  0.0456
    2CHTO   C82  600   4.524   5.598   1.896 -0.0646  0.1622  0.0592
    2CHTO  H154  601   4.549   5.511   1.836  1.2557  0.5259  0.0624
    2CHTO   C89  602   4.371   5.600   1.925  0.2131 -0.1336  0.0761
    2CHTO   O59  603   4.328   5.474   1.973 -0.4877 -0.1901  0.5681
    2CHTO  H137  604   4.245   5.459   1.932  0.2124  0.6142 -1.1989
    2CHTO   O45  605   4.832   5.544   2.115 -0.1820  0.3757 -0.2773
    2CHTO   C67  606   4.758   5.475   2.218 -0.4518 -0.0668 -0.2809
    2CHTO  H124  607   4.655   5.510   2.218 -0.1354  0.8751 -0.2064
    2CHTO   C65  608   4.747   5.317   2.191  0.5567 -0.1595  0.1444
    2CHTO  H122  609   4.826   5.290   2.121  0.3166 -0.7854  0.1079
    2CHTO   O44  610   4.620   5.301   2.124 -0.5932  0.0629 -0.4701
    2CHTO  H102  611   4.553   5.299   2.190 -0.1693  2.3448  0.0630
    2CHTO   C63  612   4.766   5.226   2.320 -0.0264  0.6188 -0.2199
    2CHTO  H120  613   4.871   5.225   2.346  0.2570 -0.8004 -1.3339
    2CHTO   N11  614   4.738   5.081   2.309  0.0685  0.1661  0.1623
    2CHTO  H108  615   4.825   5.019   2.312 -0.7514 -1.0385 -0.9528
    2CHTO  H109  616   4.688   5.051   2.220  1.1277  0.1361 -0.4288
    2CHTO   C61  617   4.682   5.291   2.438 -0.0919  0.2794 -0.0607
    2CHTO  H118  618   4.710   5.223   2.520  0.2056 -0.1672 -0.5304
    2CHTO   O40  619   4.747   5.425   2.467 -0.7259 -0.2922  0.0952
    2CHTO   C68  620   4.815   5.497   2.367 -0.5529 -0.2041  0.7118
    2CHTO  H125  621   4.922   5.465   2.363 -0.5490 -0.2551  1.2497
    2CHTO   C72  622   4.816   5.650   2.415  1.1803  0.4467 -0.5942
    2CHTO   O48  623   4.891   5.720   2.325 -0.4441 -0.4362  0.0601
    2CHTO  H105  624   4.832   5.747   2.257  0.9388 -1.3732 -1.5603
    2CHTO   O38  625   4.540   5.298   2.405 -0.0020 -0.2418  0.2325
    2CHTO   C55  626   4.456   5.356   2.506 -0.5135 -0.1509 -0.0003
    2CHTO  H112  627   4.502   5.444   2.553 -2.3479  1.2696 -0.7807
    2CHTO   C56  628   4.406   5.251   2.617 -0.2693  0.2789  0.8754
    2CHTO  H113  629   4.363   5.171   2.554 -0.3401  0.7227  0.3531
    2CHTO   O42  630   4.518   5.192   2.684  0.1212 -0.2388 -0.0354
    2CHTO  H100  631   4.588   5.193   2.622  0.0056 -1.2116 -0.1903
    2CHTO   C57  632   4.299   5.313   2.719 -0.1623  0.4969 -0.5903
    2CHTO  H114  633   4.344   5.377   2.795 -0.3983 -0.0462  0.0114
    2CHTO   N10  634   4.252   5.203   2.806 -0.4304  0.3055  0.0075
    2CHTO  H106  635   4.153   5.230   2.840 -0.8362 -0.9418 -0.1810
    2CHTO  H107  636   4.250   5.109   2.753  1.3139  0.4986 -0.4601
    2CHTO   C58  637   4.196   5.393   2.644  0.1169  0.4489  0.5917
    2CHTO  H115  638   4.124   5.323   2.596 -1.9163  3.1271 -0.3769
    2CHTO   O37  639   4.254   5.482   2.539  0.4307 -0.0916  0.3538
    2CHTO   C59  640   4.337   5.423   2.441 -0.8467 -0.4470 -0.0234
    2CHTO  H116  641   4.284   5.352   2.376 -0.4461 -1.0815  0.3452
    2CHTO   C70  642   4.380   5.538   2.349  0.2651 -0.0134  0.3950
    2CHTO   O46  643   4.465   5.637   2.406 -0.5114 -0.6268  0.0457
    2CHTO  H103  644   4.409   5.701   2.447 -1.3188 -0.0895 -1.8268
    2CHTO   O39  645   4.124   5.478   2.750 -0.1722 -0.1234  0.3869
    2CHTO   C60  646   4.007   5.542   2.699 -0.1263 -0.0383 -0.7065
    2CHTO  H117  647   3.997   5.555   2.591  1.4658  2.1318 -0.6310
    2CHTO   C62  648   3.876   5.454   2.744  0.0863  0.1641 -0.5832
    2CHTO  H119  649   3.892   5.358   2.691  0.3813  0.9844 -2.0025
    2CHTO   O43  650   3.876   5.432   2.882 -0.5519  0.1535 -0.4273
    2CHTO  H101  651   3.958   5.399   2.914 -0.0846  0.1208 -1.6504
    2CHTO   C66  652   3.745   5.532   2.696  0.5920  0.3649  0.2456
    2CHTO  H123  653   3.739   5.535   2.587  0.1286  3.6873  0.2981
    2CHTO   N12  654   3.624   5.447   2.732 -0.4896  0.8369 -0.3948
    2CHTO  H110  655   3.537   5.503   2.764 -1.4492 -2.0280  2.1691
    2CHTO  H111  656   3.611   5.374   2.654 -1.8702  0.2573  0.3573
    2CHTO   C69  657   3.739   5.675   2.759  0.4979  0.0801  0.0783
    2CHTO  H126  658   3.720   5.666   2.868 -0.8058  0.5204 -0.1040
    2CHTO   O41  659   3.848   5.751   2.724 -0.2472 -0.5190  0.3211
    2CHTO   C64  660   3.992   5.692   2.761 -0.1409 -1.0031 -0.2106
    2CHTO  H121  661   4.009   5.692   2.870 -0.9617  1.2437 -0.0471
    2CHTO   C71  662   4.089   5.780   2.690  0.9203  0.0677  0.2803
    2CHTO   O47  663   4.216   5.751   2.747 -0.0810  0.2373 -0.3346
    2CHTO  H104  664   4.219   5.792   2.832 -2.2166  0.6150 -0.4283
    2CHTO   O34  665   3.623   5.743   2.687 -0.0420 -0.1375  0.5525
    2CHTO   C49  666   3.520   5.851   2.677 -0.5401 -0.6978 -0.0539
    2CHTO   H91  667   3.436   5.809   2.733  0.6615 -1.6279  1.0866
    2CHTO   C47  668   3.476   5.888   2.538 -0.6011 -0.1645  0.8569
    2CHTO   H89  669   3.406   5.971   2.561 -1.7372 -1.9001  4.0075
    2CHTO   O33  670   3.403   5.775   2.494  0.3766  0.8521  0.8244
    2CHTO   H70  671   3.459   5.706   2.465  0.8543  0.3680  2.8011
    2CHTO   C45  672   3.594   5.947   2.450 -0.0584  0.0065 -0.3289
    2CHTO   H87  673   3.680   5.878   2.454 -0.7455 -0.9123 -1.2118
    2CHTO    N8  674   3.562   5.973   2.307  1.1141  0.0747  0.3763
    2CHTO   H75  675   3.561   6.080   2.293 -1.4549  0.2902  1.7597
    2CHTO   H76  676   3.462   5.936   2.288 -0.0555  1.4344  3.5932
    2CHTO   C43  677   3.641   6.086   2.527 -0.1776 -0.0332 -0.6773
    2CHTO   H85  678   3.735   6.110   2.477  0.7728  0.2578  1.2260
    2CHTO   O29  679   3.666   6.053   2.664  0.3635 -0.8076 -0.2198
    2CHTO   C50  680   3.575   5.981   2.744  0.0987  0.1252 -0.4087
    2CHTO   H92  681   3.639   5.943   2.825  0.9533  3.2996  0.4734
    2CHTO   C54  682   3.465   6.078   2.805 -0.3633  0.5626 -0.4887
    2CHTO   O36  683   3.516   6.193   2.865  0.2719  0.0971  0.1134
    2CHTO   H72  684   3.498   6.265   2.808 -3.0273 -0.9353 -0.2572
    2CHTO   O27  685   3.556   6.199   2.521  0.0393  1.1185 -0.1894
    2CHTO   C37  686   3.555   6.336   2.482  0.7827  0.2316 -0.0741
    2CHTO   H79  687   3.634   6.353   2.407 -0.2288  2.1164 -0.7472
    2CHTO   C38  688   3.416   6.375   2.413  0.5440 -0.4299  0.0836
    2CHTO   H80  689   3.334   6.344   2.479  0.3930 -1.2350 -0.4653
    2CHTO   O31  690   3.401   6.298   2.293 -0.0406  0.4956  0.0471
    2CHTO   H68  691   3.318   6.255   2.294  0.1284  0.1689  0.2173
    2CHTO   C39  692   3.425   6.527   2.389  0.3305 -0.4244 -0.0250
    2CHTO   H81  693   3.509   6.547   2.323  0.0126 -0.3546 -0.4128
    2CHTO    N7  694   3.300   6.572   2.320  0.0109 -0.3768 -0.2933
    2CHTO   H73  695   3.261   6.668   2.352  0.2565 -0.9729  1.8530
    2CHTO   H74  696   3.337   6.594   2.221  0.1888  0.5900 -0.0157
    2CHTO   C40  697   3.457   6.599   2.527  0.4579 -0.8210 -0.2096
    2CHTO   H82  698   3.379   6.570   2.597 -0.5957  1.4181 -0.4176
    2CHTO   O26  699   3.584   6.561   2.572  0.0739  0.2933  0.3543
    2CHTO   C41  700   3.593   6.422   2.606  0.0372  0.2098 -0.2858
    2CHTO   H83  701   3.516   6.396   2.681 -0.2629 -1.5713 -1.1679
    2CHTO   C52  702   3.736   6.380   2.669  0.0045  0.4282  0.9805
    2CHTO   O35  703   3.843   6.406   2.579 -0.0126 -0.2537 -0.7628
    2CHTO   H71  704   3.849   6.325   2.532  0.7800  0.2198 -1.4895
    2CHTO   O28  705   3.462   6.742   2.515  0.4618 -0.2001  0.1766
    2CHTO   C42  706   3.499   6.839   2.621 -0.0233  0.1724 -0.3185
    2CHTO   H84  707   3.423   6.917   2.618 -0.1050  0.2114  2.0892
    2CHTO   C44  708   3.636   6.913   2.585  0.4238  0.5185 -0.8626
    2CHTO   H86  709   3.712   6.835   2.576 -0.2823 -0.2504 -0.2312
    2CHTO   O32  710   3.615   6.979   2.457 -0.2174  0.6132 -0.5056
    2CHTO   H69  711   3.699   6.999   2.421  1.1678 -0.5399  1.9573
    2CHTO   C48  712   3.684   7.018   2.697 -0.6477 -0.9141  0.3168
    2CHTO   H90  713   3.616   7.103   2.686 -2.3682 -2.3477 -0.4079
    2CHTO    N9  714   3.822   7.082   2.687  0.5389  0.3090  0.0938
    2CHTO   H77  715   3.848   7.101   2.584 -1.4740  0.8909 -0.3384
    2CHTO   H78  716   3.906   7.025   2.723  0.8538  0.1359 -0.9125
    2CHTO   C51  717   3.660   6.963   2.845  0.1504  0.3096 -0.6048
    2CHTO   H93  718   3.733   6.886   2.869 -0.4400 -0.6168 -1.7408
    2CHTO   O30  719   3.528   6.915   2.854  0.1000 -0.8546 -0.1197
    2CHTO   C46  720   3.502   6.791   2.773  0.5735  0.0704  0.3736
    2CHTO   H88  721   3.576   6.714   2.797  0.0770 -0.5943 -0.2005
    2CHTO   C53  722   3.358   6.742   2.817 -0.2036 -0.2233  0.3490
    2CHTO   O72  723   3.367   6.664   2.935 -0.4519  0.1958  0.3540
    2CHTO  H199  724   3.278   6.635   2.944 -0.0419 -1.2756 -0.1093
    2CHTO   O22  725   3.670   7.074   2.945 -0.5943  0.8803  0.2743
    2CHTO   C31  726   3.647   7.064   3.090  1.0948  0.7592  0.4973
    2CHTO   H59  727   3.664   7.167   3.128 -1.6675 -0.0183  4.0968
    2CHTO   C29  728   3.509   7.019   3.141 -0.3098 -0.1084 -0.1900
    2CHTO   H57  729   3.480   6.922   3.098  1.9876 -0.0620 -1.9462
    2CHTO   O21  730   3.422   7.117   3.095  1.1458  0.1981  0.7671
    2CHTO   H37  731   3.380   7.093   3.015 -2.4968 -1.7400  3.1167
    2CHTO   C27  732   3.511   7.014   3.304 -0.1648  0.5771  0.2383
    2CHTO   H55  733   3.529   7.114   3.347 -4.5324  0.2849  3.1086
    2CHTO    N5  734   3.387   6.964   3.357 -0.3085 -0.0188  0.7013
    2CHTO   H43  735   3.353   7.035   3.431  0.6137 -1.1628  2.2547
    2CHTO   H44  736   3.403   6.878   3.421  0.8234 -0.3233  0.0152
    2CHTO   C25  737   3.624   6.925   3.358 -0.4790 -0.3929 -0.7783
    2CHTO   H53  738   3.611   6.818   3.336  1.3243 -0.6521 -0.6998
    2CHTO   O17  739   3.755   6.972   3.297  0.1847 -0.3830  0.3904
    2CHTO   C32  740   3.759   6.978   3.152  0.0692  1.0329 -0.3495
    2CHTO   H60  741   3.751   6.875   3.119 -0.2261  0.8702  0.2140
    2CHTO   C36  742   3.894   7.035   3.111  0.3115 -0.0597 -0.0678
    2CHTO   O25  743   3.998   6.935   3.125 -0.0169 -0.1225  0.3117
    2CHTO   H40  744   4.024   6.885   3.049 -0.9715  0.0566 -0.1336
    2CHTO   O15  745   3.649   6.932   3.523  0.3773  0.5394 -0.7914
    2CHTO   C19  746   3.599   6.883   3.657 -0.1909  0.0542  0.4724
    2CHTO   H47  747   3.489   6.889   3.650 -0.0267  0.9367 -2.1803
    2CHTO   C20  748   3.640   6.736   3.687 -0.7747  0.8386  0.0711
    2CHTO   H48  749   3.749   6.725   3.679 -0.9999  0.1564 -2.4968
    2CHTO   O19  750   3.587   6.662   3.578 -0.4374  0.1027  0.7071
    2CHTO   H35  751   3.607   6.572   3.595 -1.5522  0.0089  1.6126
    2CHTO   C21  752   3.579   6.688   3.823 -0.2420 -0.5110  0.3246
    2CHTO   H49  753   3.471   6.688   3.825 -0.3134 -1.8819 -2.0181
    2CHTO    N4  754   3.619   6.545   3.855 -0.9742 -0.4692  0.9268
    2CHTO   H41  755   3.724   6.525   3.840 -0.7666  0.7244  0.7597
    2CHTO   H42  756   3.562   6.470   3.802  0.3542 -0.6679 -0.2471
    2CHTO   C22  757   3.617   6.792   3.934  0.6109  0.1508  0.1185
    2CHTO   H50  758   3.726   6.791   3.939  0.5425 -0.9326  2.0044
    2CHTO   O14  759   3.578   6.928   3.897 -0.2043 -0.4523 -0.1747
    2CHTO   C23  760   3.641   6.972   3.778  0.5278  0.3491 -0.1256
    2CHTO   H51  761   3.750   6.975   3.792  0.6634  2.3418 -1.3986
    2CHTO   C34  762   3.587   7.109   3.759  0.3744  0.0447  0.0432
    2CHTO   O23  763   3.637   7.195   3.860 -0.5259  0.2082 -0.1648
    2CHTO   H38  764   3.584   7.272   3.849  0.3933  0.6861 -1.3211
    2CHTO   O16  765   3.562   6.751   4.059  0.5731 -0.4724  0.4739
    2CHTO   C24  766   3.616   6.833   4.181  0.7239 -0.0954 -0.6877
    2CHTO   H52  767   3.679   6.916   4.148 -0.1363  0.6548 -0.4546
    2CHTO   C26  768   3.706   6.752   4.273  0.0479  0.0804  0.2209
    2CHTO   H54  769   3.650   6.664   4.310  1.3538 -0.7014  0.3275
    2CHTO   O20  770   3.816   6.697   4.193  0.1094 -0.4979 -0.5868
    2CHTO   H36  771   3.835   6.752   4.120  1.6424  0.4526  0.5250
    2CHTO   C30  772   3.749   6.819   4.406  0.1161 -0.3573  0.2841
    2CHTO   H58  773   3.804   6.907   4.370  2.0946 -2.3783 -1.7722
    2CHTO    N6  774   3.848   6.740   4.487  0.3720  0.0165 -0.5382
    2CHTO   H45  775   3.943   6.714   4.442 -0.0944 -1.6902 -0.5845
    2CHTO   H46  776   3.872   6.787   4.581  1.8993 -0.5978 -0.6045
    2CHTO   C33  777   3.619   6.875   4.477 -0.4023  0.5731 -0.7509
    2CHTO   H61  778   3.559   6.789   4.509  1.2883 -1.0894 -1.9492
    2CHTO   O18  779   3.546   6.952   4.386  0.8567  0.2198  0.1399
    2CHTO   C28  780   3.494   6.891   4.261 -0.3278  0.3142  0.2519
    2CHTO   H56  781   3.432   6.805   4.289 -0.0042 -0.2635 -0.7768
    2CHTO   C35  782   3.412   6.997   4.188 -0.1490  0.2111 -0.3758
    2CHTO   O24  783   3.303   7.052   4.268 -0.0826  0.2576 -0.4190
    2CHTO   H39  784   3.245   7.105   4.217  1.4634  0.2706 -2.2107
    2CHTO    O9  785   3.662   6.954   4.595 -0.0989 -0.4184 -0.3385
    2CHTO   C13  786   3.547   7.002   4.693 -0.8156 -0.9715  1.0149
    2CHTO   H26  787   3.462   6.930   4.694 -2.1940  0.4772 -2.1290
    2CHTO   C11  788   3.489   7.146   4.641 -0.5979  0.5773 -0.2034
    2CHTO   H24  789   3.437   7.130   4.545  0.0565 -1.3502 -0.2546
    2CHTO    O8  790   3.601   7.238   4.623 -0.4321 -0.3988 -0.4376
    2CHTO    H3  791   3.563   7.323   4.636  0.4852 -0.1402  0.6593
    2CHTO    C9  792   3.388   7.193   4.747  0.7186  0.0717  0.5273
    2CHTO   H22  793   3.317   7.110   4.766 -0.4298  1.0095  0.3815
    2CHTO    N2  794   3.287   7.291   4.697 -0.3991 -0.0959  0.3057
    2CHTO   H10  795   3.266   7.354   4.782 -1.1933 -0.1060  0.1134
    2CHTO   H11  796   3.334   7.351   4.620  1.4915  0.7241  2.0368
    2CHTO    C7  797   3.467   7.229   4.879  0.0449  0.3418  0.3281
    2CHTO   H20  798   3.385   7.251   4.951  0.4414 -0.5605  1.0623
    2CHTO    O4  799   3.527   7.108   4.920  0.2559  0.4462  0.0980
    2CHTO   C14  800   3.603   7.019   4.838  0.8171  0.2503  0.1474
    2CHTO   H27  801   3.602   6.919   4.885 -2.6134 -0.2885 -0.9765
    2CHTO   C18  802   3.749   7.071   4.854 -0.0748 -0.8090  0.1339
    2CHTO   O13  803   3.787   7.072   4.988  0.3610  0.1005  0.5597
    2CHTO    H7  804   3.866   7.122   4.999 -0.7210  1.6119  1.6539
    2CHTO    O2  805   3.578   7.336   4.883  0.0268 -0.8540 -0.4521
    2CHTO    C1  806   3.555   7.445   4.970  0.9822  0.1999 -0.8132
    2CHTO   H14  807   3.459   7.427   5.022 -0.0106 -0.9625 -2.9864
    2CHTO    C2  808   3.549   7.585   4.893 -0.3886  0.0034  0.6364
    2CHTO   H15  809   3.635   7.583   4.825 -1.5941 -0.9516 -0.9026
    2CHTO    O6  810   3.427   7.598   4.821 -0.2185 -0.1573  0.4910
    2CHTO    H1  811   3.360   7.565   4.878  0.9166 -0.8162  1.4809
    2CHTO    C3  812   3.553   7.710   4.985 -0.0064 -0.0550  0.2260
    2CHTO   H16  813   3.460   7.724   5.041 -0.1964  2.5027 -0.6893
    2CHTO    N1  814   3.569   7.836   4.916 -0.7491 -0.2081 -0.5667
    2CHTO    H8  815   3.581   7.922   4.981 -1.1183 -1.8704  1.7683
    2CHTO    H9  816   3.487   7.860   4.851 -0.9949  0.7298  0.0692
    2CHTO    C4  817   3.677   7.689   5.091  0.5992 -0.2918  0.1546
    2CHTO   H17  818   3.772   7.697   5.039  0.2358  0.2334 -0.4259
    2CHTO    O1  819   3.669   7.565   5.154 -0.1537 -0.0497  0.3052
    2CHTO    C5  820   3.676   7.447   5.068 -0.4408  0.0497 -0.4122
    2CHTO   H18  821   3.766   7.462   5.009  0.3515 -0.4346  0.6672
    2CHTO   C16  822   3.691   7.332   5.167  0.0559 -0.1347  0.2559
    2CHTO   O11  823   3.593   7.338   5.269 -0.4267 -0.7680 -0.5500
    2CHTO    H5  824   3.509   7.316   5.232  0.2528 -1.7177 -1.5491
    2CHTO    O3  825   3.675   7.793   5.191  0.2679  0.6799 -0.2476
    2CHTO    C6  826   3.804   7.798   5.273 -0.2264 -0.4466  0.1656
    2CHTO   H19  827   3.864   7.708   5.265  1.7292  0.6094  2.4345
    2CHTO    C8  828   3.893   7.921   5.237 -0.2730  0.5462 -0.2831
    2CHTO   H21  829   3.836   8.014   5.237  0.0466  0.7460 -0.7680
    2CHTO    O7  830   3.942   7.899   5.107 -0.4380 -0.2428 -0.2775
    2CHTO    H2  831   3.877   7.877   5.043 -0.5517  0.2636 -0.3340
    2CHTO   C12  832   4.009   7.941   5.341 -0.1753 -0.0910 -0.2505
    2CHTO   H25  833   4.084   7.859   5.329  2.4983  1.9316  1.8848
    2CHTO    N3  834   4.079   8.065   5.311 -0.1054 -1.0014  0.8650
    2CHTO   H12  835   4.013   8.151   5.318 -2.3274 -2.4814 -1.2750
    2CHTO   H13  836   4.155   8.066   5.388  0.6762  1.1732  0.1130
    2CHTO   C15  837   3.954   7.940   5.486 -0.1093 -0.3028 -0.3273
    2CHTO   H28  838   3.886   8.024   5.501 -0.7472 -1.0405  1.0793
    2CHTO   O10  839   4.054   7.950   5.609 -0.4195  0.1102 -0.0495
    2CHTO    H4  840   4.108   8.026   5.596 -0.6142  0.2394 -0.1037
    2CHTO    O5  841   3.877   7.818   5.499  0.8444 -0.1872 -0.2549
    2CHTO   C10  842   3.764   7.813   5.414  0.0631  0.0244  1.0748
    2CHTO   H23  843   3.715   7.911   5.415  1.7177  0.8797  0.5096
    2CHTO   C17  844   3.661   7.708   5.473  0.6562 -0.3285 -0.1699
    2CHTO   O12  845   3.718   7.581   5.500 -0.2326  0.1038 -0.0338
    2CHTO    H6  846   3.804   7.610   5.520  0.9399 -1.6505 -2.3032
    3CHTO  H203  847   7.887   1.428   1.202 -1.0523 -0.5738  2.1516
    3CHTO   O82  848   7.811   1.392   1.162 -0.1513  0.0890 -0.2484
    3CHTO  C123  849   7.721   1.320   1.249 -0.4299  0.0127 -0.2816
    3CHTO  H227  850   7.770   1.300   1.346 -3.3404 -1.5561  0.9272
    3CHTO   O77  851   7.607   1.413   1.284  0.4650  0.3761 -0.4364
    3CHTO  C118  852   7.496   1.341   1.349  0.2624 -0.4055  0.4340
    3CHTO  H222  853   7.522   1.301   1.448 -1.3163  1.8996  1.8373
    3CHTO  C125  854   7.388   1.458   1.369 -0.6336 -0.1414 -0.6536
    3CHTO   O84  855   7.343   1.520   1.253  0.4000  0.0737  0.6897
    3CHTO  H205  856   7.275   1.582   1.271 -1.7091 -1.4083 -1.6445
    3CHTO  C114  857   7.433   1.236   1.266 -0.3768 -0.1351  0.6942
    3CHTO  H218  858   7.397   1.277   1.172 -0.7598 -2.0487 -0.0182
    3CHTO  C116  859   7.543   1.126   1.240 -0.0044 -0.1187  1.0631
    3CHTO  H220  860   7.568   1.081   1.338 -2.2607 -2.4339  0.6591
    3CHTO   O79  861   7.490   1.016   1.158 -0.0663  0.2039  0.2544
    3CHTO  H201  862   7.452   0.953   1.216  2.2062 -2.1361 -0.6800
    3CHTO  C120  863   7.676   1.185   1.172 -0.9750 -0.5272  0.4111
    3CHTO  H224  864   7.648   1.211   1.068  0.8771  1.1119  0.2783
    3CHTO   N21  865   7.787   1.091   1.170  0.4949  0.0056  0.1532
    3CHTO  H211  866   7.793   1.033   1.079 -1.4711  0.6384 -0.3912
    3CHTO  H212  867   7.804   1.018   1.249  2.5819 -1.3834 -1.5195
    3CHTO   O75  868   7.323   1.181   1.351 -0.4524 -0.3568 -0.1902
    3CHTO  C112  869   7.192   1.132   1.254  0.2415 -0.0653  0.0235
    3CHTO  H216  870   7.242   1.086   1.168  1.9922 -0.2443  1.0925
    3CHTO   O73  871   7.119   1.254   1.219 -0.6951  0.3852  0.1700
    3CHTO  C113  872   7.007   1.227   1.137  0.0446 -0.4743  0.7665
    3CHTO  H217  873   7.041   1.165   1.051  0.6843  1.1845 -0.2030
    3CHTO  C124  874   6.963   1.362   1.074 -0.8435 -0.1007 -0.4357
    3CHTO   O83  875   6.856   1.336   0.983  0.1900  0.0177 -0.3514
    3CHTO  H204  876   6.895   1.326   0.898  1.7556 -1.8079  0.5597
    3CHTO  C109  877   6.900   1.143   1.210  0.7698  0.0225 -0.1055
    3CHTO  H213  878   6.864   1.204   1.294  0.7964  1.7202 -1.2987
    3CHTO  C110  879   6.959   1.006   1.258  0.6264  0.1953 -0.4171
    3CHTO  H214  880   6.987   0.941   1.174 -0.2249  0.4190 -0.8787
    3CHTO   O78  881   6.861   0.931   1.342  1.0680 -0.0831 -0.4660
    3CHTO  H200  882   6.897   0.848   1.367 -1.2656 -0.3462  2.3832
    3CHTO  C111  883   7.093   1.031   1.336 -0.4482 -0.7273  0.8882
    3CHTO  H215  884   7.066   1.076   1.432  0.5820 -1.1141  1.3605
    3CHTO   N19  885   7.171   0.910   1.368 -0.3943 -0.4642 -0.1044
    3CHTO  H207  886   7.131   0.819   1.325 -0.4767 -0.2942 -0.3897
    3CHTO  H208  887   7.199   0.911   1.472 -0.4757  3.5520 -0.0197
    3CHTO   O74  888   6.791   1.114   1.126  0.5706  0.8240 -0.4381
    3CHTO  C115  889   6.644   1.134   1.195 -0.1575 -0.7126  0.1086
    3CHTO  H219  890   6.643   1.105   1.300  1.0869 -2.5511 -0.3568
    3CHTO   O76  891   6.603   1.288   1.195  0.4754  0.1583 -0.8331
    3CHTO  C122  892   6.479   1.318   1.256 -0.6842 -0.3025  0.5432
    3CHTO  H226  893   6.461   1.422   1.228 -0.5287 -0.4412 -0.0749
    3CHTO  C126  894   6.493   1.304   1.413 -0.2746  0.3675  0.5071
    3CHTO   O85  895   6.418   1.402   1.488 -0.2532 -0.3209 -0.3738
    3CHTO  H206  896   6.343   1.364   1.530 -0.4779  1.5524  0.9445
    3CHTO  C121  897   6.368   1.228   1.189  0.7994  0.4240 -0.4143
    3CHTO  H225  898   6.274   1.252   1.242 -0.0007 -0.1083 -1.5480
    3CHTO   O81  899   6.339   1.262   1.051  0.2570  0.1716 -0.5721
    3CHTO  H202  900   6.366   1.347   1.024 -0.0541  0.1557 -0.9261
    3CHTO  C119  901   6.397   1.075   1.197  0.2046  0.1693  0.6551
    3CHTO  H223  902   6.413   1.055   1.303 -0.8094  1.3894  1.0489
    3CHTO  C117  903   6.532   1.049   1.130 -0.2651 -0.3107  0.3219
    3CHTO  H221  904   6.544   1.079   1.026  2.4254 -0.9942  0.3794
    3CHTO   N20  905   6.571   0.908   1.138  0.2285  0.7284 -0.1295
    3CHTO  H209  906   6.486   0.846   1.160  0.2973  0.5775 -0.2851
    3CHTO  H210  907   6.671   0.902   1.179  1.1849  0.1427 -2.4300
    3CHTO   O80  908   6.274   0.978   1.164  0.1904  0.1748 -0.0641
    3CHTO  C103  909   6.133   1.006   1.248  0.2375 -0.2632 -0.4018
    3CHTO  H190  910   6.146   1.070   1.335  0.1843  0.8172 -1.1862
    3CHTO  C101  911   6.011   1.055   1.167 -0.5497  0.0249  0.4163
    3CHTO  H188  912   6.003   0.988   1.081  0.0594  0.9662 -0.3756
    3CHTO   O68  913   6.034   1.205   1.112 -0.2128  0.2325 -0.0067
    3CHTO  H168  914   6.026   1.267   1.182  2.3109 -1.1888  1.6229
    3CHTO   C99  915   5.882   1.027   1.251  0.3170 -0.2415  0.2733
    3CHTO  H186  916   5.877   1.083   1.347 -3.2371 -0.9132  0.5681
    3CHTO   N17  917   5.758   1.073   1.178 -0.0434  0.2893 -0.0235
    3CHTO  H174  918   5.766   1.087   1.071  0.3304 -0.9655 -0.1678
    3CHTO  H175  919   5.673   1.009   1.197 -0.6111  1.0674  0.0749
    3CHTO   C97  920   5.869   0.875   1.284  0.0690  1.0955 -0.1088
    3CHTO  H184  921   5.876   0.823   1.187  2.3998  0.2796  0.4739
    3CHTO   O64  922   5.981   0.842   1.368 -0.4995 -0.4934  0.0869
    3CHTO  C104  923   6.106   0.862   1.304 -0.7564  0.6038 -0.2046
    3CHTO  H191  924   6.111   0.790   1.223  0.7922 -0.1629  0.5607
    3CHTO  C108  925   6.205   0.807   1.405  0.0443  0.3433 -0.4579
    3CHTO   O71  926   6.230   0.905   1.506 -0.3834  0.2966 -0.8277
    3CHTO  H171  927   6.151   0.910   1.557 -0.4768 -1.1169 -0.7945
    3CHTO   O62  928   5.751   0.837   1.356  0.6453  0.2414  0.1774
    3CHTO   C91  929   5.694   0.711   1.315  0.1486  0.2991  0.1543
    3CHTO  H178  930   5.685   0.716   1.206  0.2499 -1.9762  0.0045
    3CHTO   C92  931   5.546   0.714   1.361  0.0590 -0.2445 -0.0702
    3CHTO  H179  932   5.553   0.730   1.470 -1.8154  0.1596  0.0102
    3CHTO   O66  933   5.479   0.832   1.300  0.3720  0.1985  0.1622
    3CHTO  H166  934   5.508   0.910   1.343  1.2635 -0.2770  0.4268
    3CHTO   C93  935   5.479   0.578   1.321 -0.2477  0.1971 -0.1151
    3CHTO  H180  936   5.487   0.571   1.212  1.3838  1.5186 -0.1083
    3CHTO   N16  937   5.332   0.580   1.354  0.5403 -0.1093 -0.3231
    3CHTO  H172  938   5.273   0.565   1.265 -1.2575 -1.1383  1.0167
    3CHTO  H173  939   5.291   0.662   1.412  1.1491  0.3758 -0.5785
    3CHTO   C94  940   5.555   0.453   1.380  0.8792 -0.0573  0.0129
    3CHTO  H181  941   5.493   0.398   1.451  0.2143 -0.0840 -0.5777
    3CHTO   O61  942   5.675   0.493   1.442 -0.3023 -0.5109 -0.0281
    3CHTO   C95  943   5.767   0.579   1.377  0.0061  0.0961 -0.0373
    3CHTO  H182  944   5.832   0.618   1.455 -0.2828 -0.4867  0.5008
    3CHTO  C106  945   5.855   0.514   1.258 -0.0692  0.2343  0.1409
    3CHTO   O69  946   5.924   0.394   1.301 -0.5249 -0.7448  0.5174
    3CHTO  H169  947   6.015   0.418   1.302 -0.8033  0.3398  0.9113
    3CHTO   O63  948   5.587   0.343   1.266 -0.2916  0.0682 -0.1982
    3CHTO   C96  949   5.508   0.209   1.274 -0.0974  0.0202 -0.4038
    3CHTO  H183  950   5.548   0.144   1.196  2.2857 -0.5294  1.2311
    3CHTO   C98  951   5.355   0.227   1.254  0.0131  0.1455  0.3721
    3CHTO  H185  952   5.323   0.311   1.317 -1.5223 -1.1110  1.3097
    3CHTO   O67  953   5.338   0.270   1.118  0.2853 -0.8171  0.0527
    3CHTO  H167  954   5.266   0.330   1.118  0.6524 -0.3707 -0.2409
    3CHTO  C102  955   5.275   0.093   1.300 -0.8608 -0.5900 -0.1462
    3CHTO  H189  956   5.293   0.012   1.228  0.3168 -2.2709  2.0124
    3CHTO   N18  957   5.131   0.107   1.305 -0.5585  0.1265  0.1626
    3CHTO  H176  958   5.071   0.032   1.354 -1.9114  0.7427 -0.5178
    3CHTO  H177  959   5.103   0.124   1.202  0.2811  1.2287  0.1014
    3CHTO  C105  960   5.326   0.040   1.433 -0.0753  0.7009 -0.4729
    3CHTO  H192  961   5.296   0.107   1.514 -0.7356  1.1885 -1.1213
    3CHTO   O65  962   5.470   0.021   1.440 -0.6321  0.0266  0.1358
    3CHTO  C100  963   5.550   0.141   1.413  0.2786 -0.4882 -0.0404
    3CHTO  H187  964   5.519   0.218   1.485 -2.6646 -1.4745 -0.2226
    3CHTO  C107  965   5.698   0.109   1.422 -0.6709 -0.5711 -0.2205
    3CHTO   O70  966   5.738   0.020   1.323  0.0504 -0.2068  0.7845
    3CHTO  H170  967   5.829  -0.001   1.332  0.3550  0.7196 -0.0065
    3CHTO   O57  968   5.265  -0.110   1.456  0.6223  0.2877  0.0422
    3CHTO   C85  969   5.242  -0.184   1.576 -0.1221 -0.2594  0.6891
    3CHTO  H157  970   5.238  -0.288   1.540 -1.5446  0.0482 -0.0766
    3CHTO   C83  971   5.096  -0.149   1.623 -0.3195 -0.4533  0.4539
    3CHTO  H155  972   5.029  -0.188   1.547  0.0590  1.5010 -0.9071
    3CHTO   O56  973   5.081  -0.004   1.605 -0.0591  0.2955 -0.0346
    3CHTO  H135  974   5.157   0.051   1.601  1.3637 -1.4961  1.3332
    3CHTO   C81  975   5.067  -0.212   1.762 -0.1926 -0.8695  0.1028
    3CHTO  H153  976   5.072  -0.320   1.749  1.2074 -1.0720  2.0438
    3CHTO   N14  977   4.927  -0.192   1.813 -0.0823 -0.1316  0.2059
    3CHTO  H141  978   4.865  -0.242   1.741 -0.8011  0.3075  0.5139
    3CHTO  H142  979   4.898  -0.089   1.816 -0.9618 -0.3725  0.1399
    3CHTO   C79  980   5.183  -0.168   1.863 -0.3029  0.4722  0.0841
    3CHTO  H151  981   5.156  -0.208   1.961 -2.0643  1.6989  0.1078
    3CHTO   O52  982   5.314  -0.213   1.821 -0.4019  0.4888 -0.4778
    3CHTO   C86  983   5.352  -0.161   1.692 -0.4253  0.7716  0.3304
    3CHTO  H158  984   5.369  -0.053   1.711  0.6008  0.3920  1.5888
    3CHTO   C90  985   5.493  -0.211   1.646  0.1781  0.2099  1.2087
    3CHTO   O60  986   5.506  -0.353   1.631 -0.4178 -0.1596  0.0796
    3CHTO  H138  987   5.577  -0.369   1.572 -1.1556 -0.6848 -0.6750
    3CHTO   O50  988   5.177  -0.024   1.887  0.0654 -0.5412 -0.0498
    3CHTO   C73  989   5.206   0.056   2.002 -0.1618  0.4920 -0.1695
    3CHTO  H145  990   5.287   0.002   2.052 -2.0305 -0.5613  1.8252
    3CHTO   C74  991   5.082   0.051   2.098  0.5083 -0.0549 -0.5663
    3CHTO  H146  992   5.068  -0.057   2.116  1.3200 -0.5628 -2.8364
    3CHTO   O54  993   5.121   0.107   2.227 -0.0668  0.3767 -0.2954
    3CHTO  H133  994   5.188   0.052   2.262 -0.0278  0.7342  0.1924
    3CHTO   C75  995   4.957   0.118   2.022  0.0592  1.1837 -0.2832
    3CHTO  H147  996   4.932   0.057   1.934  3.2858 -0.2667 -0.2653
    3CHTO   N13  997   4.835   0.129   2.104  0.1195 -0.3221 -0.1937
    3CHTO  H139  998   4.752   0.172   2.050  0.6100 -1.5615 -1.9727
    3CHTO  H140  999   4.793   0.033   2.130  0.1151  0.3389  2.3848
    3CHTO   C76 1000   5.008   0.263   1.967  0.7360 -0.8027 -0.2320
    3CHTO  H148 1001   5.015   0.331   2.052  3.6946  1.0548 -1.8587
    3CHTO   O49 1002   5.135   0.267   1.900 -0.4176  0.1807  0.4068
    3CHTO   C77 1003   5.246   0.206   1.965 -0.4737  0.0473 -0.3774
    3CHTO  H149 1004   5.272   0.263   2.054  0.3410  1.1978 -1.3250
    3CHTO   C88 1005   5.366   0.219   1.867  0.1059 -0.1886  0.6831
    3CHTO   O58 1006   5.489   0.199   1.930 -0.6174 -0.1914  0.1333
    3CHTO  H136 1007   5.510   0.115   1.966 -1.2427  0.7147  2.6813
    3CHTO   O51 1008   4.910   0.313   1.865 -0.2714  0.2186 -0.2904
    3CHTO   C78 1009   4.931   0.468   1.836  0.0970  0.5714  0.9575
    3CHTO  H150 1010   5.038   0.486   1.861  0.3970 -3.9164  3.3534
    3CHTO   C80 1011   4.843   0.551   1.932  0.5464  1.1076  0.4878
    3CHTO  H152 1012   4.740   0.512   1.920  1.7318 -1.6245 -1.2974
    3CHTO   O55 1013   4.892   0.529   2.071 -0.0386 -0.2478 -0.0824
    3CHTO  H134 1014   4.840   0.570   2.138 -0.4217 -1.2125  0.2169
    3CHTO   C84 1015   4.846   0.704   1.907 -0.6461  0.8508 -0.7245
    3CHTO  H156 1016   4.947   0.730   1.939 -0.1136 -0.9531 -0.8780
    3CHTO   N15 1017   4.753   0.784   1.989 -0.3218 -0.2792 -0.2389
    3CHTO  H143 1018   4.759   0.888   1.965 -1.4406 -0.2330 -0.3612
    3CHTO  H144 1019   4.755   0.772   2.095 -1.4975  1.0453 -0.0571
    3CHTO   C87 1020   4.823   0.731   1.763 -0.2100 -0.3441  0.4246
    3CHTO  H159 1021   4.719   0.714   1.737 -0.7640 -0.2646  2.5580
    3CHTO   O53 1022   4.922   0.646   1.670  0.7480 -0.2067  0.2282
    3CHTO   C82 1023   4.898   0.507   1.690  0.0197  0.3231 -0.1252
    3CHTO  H154 1024   4.793   0.494   1.667  0.6331 -2.2859 -1.7202
    3CHTO   C89 1025   4.974   0.423   1.596  0.0549  0.1256 -0.2198
    3CHTO   O59 1026   4.967   0.454   1.455  0.7314 -0.1126 -0.2471
    3CHTO  H137 1027   5.032   0.418   1.397  0.0028 -1.5458 -0.1903
    3CHTO   O45 1028   4.854   0.901   1.734 -0.7730  0.6476 -0.1144
    3CHTO   C67 1029   4.989   0.934   1.702 -0.3228 -0.1704  0.2423
    3CHTO  H124 1030   5.048   0.847   1.730  0.0193 -0.0002  0.0574
    3CHTO   C65 1031   5.008   0.949   1.542  0.0083 -0.2599  0.1643
    3CHTO  H122 1032   4.913   0.978   1.495  0.0098 -0.8161 -0.1852
    3CHTO   O44 1033   5.038   0.816   1.485  0.3142  0.1334  0.3420
    3CHTO  H102 1034   5.067   0.819   1.396 -1.0025 -0.1704 -0.1064
    3CHTO   C63 1035   5.115   1.055   1.514 -0.3503 -0.5288  0.1466
    3CHTO  H120 1036   5.080   1.155   1.536  0.7514  0.1439 -1.0785
    3CHTO   N11 1037   5.150   1.078   1.371  0.3165  0.1605 -0.0451
    3CHTO  H108 1038   5.194   0.992   1.324 -0.1554  0.2509 -0.6480
    3CHTO  H109 1039   5.215   1.162   1.360 -0.6295  0.8146 -0.6964
    3CHTO   C61 1040   5.239   1.037   1.611 -0.0890  0.0666  0.4346
    3CHTO  H118 1041   5.312   1.113   1.580 -0.3225  0.6623  1.3274
    3CHTO   O40 1042   5.203   1.066   1.741 -0.6175  0.3234 -0.2277
    3CHTO   C68 1043   5.063   1.052   1.782  0.3650  0.0457  0.6635
    3CHTO  H125 1044   5.015   1.151   1.769 -0.1222 -0.3596 -0.7771
    3CHTO   C72 1045   5.069   1.033   1.932 -0.5870  0.3204  0.4849
    3CHTO   O48 1046   5.108   1.146   2.004 -0.0344  0.3495  0.1177
    3CHTO  H105 1047   5.157   1.112   2.077 -2.1618 -1.3549  0.8065
    3CHTO   O38 1048   5.322   0.917   1.603  0.3817  0.5440 -0.2681
    3CHTO   C55 1049   5.420   0.893   1.698 -0.0251 -0.4577  0.0012
    3CHTO  H112 1050   5.395   0.950   1.789  3.4339  0.5239  0.4082
    3CHTO   C56 1051   5.565   0.940   1.640  0.7883 -0.2835  0.3914
    3CHTO  H113 1052   5.580   0.901   1.538 -0.4775 -1.6490  0.7010
    3CHTO   O42 1053   5.567   1.085   1.627  0.0617  0.7931  0.3470
    3CHTO  H100 1054   5.647   1.121   1.596  0.1195 -1.1362 -1.8483
    3CHTO   C57 1055   5.685   0.884   1.731 -0.1234  0.1390 -0.8235
    3CHTO  H114 1056   5.685   0.941   1.824  1.1790  0.5725 -1.0862
    3CHTO   N10 1057   5.815   0.906   1.670 -0.4616 -0.2259 -0.3125
    3CHTO  H106 1058   5.846   1.007   1.695  0.7121 -1.1199  2.0094
    3CHTO  H107 1059   5.834   0.884   1.566  1.7361 -2.0291  0.4159
    3CHTO   C58 1060   5.656   0.735   1.769 -0.7093 -0.4187  0.0752
    3CHTO  H115 1061   5.674   0.671   1.680 -0.9489  0.4021 -0.5763
    3CHTO   O37 1062   5.527   0.711   1.822  0.3082  0.0409 -0.5443
    3CHTO   C59 1063   5.420   0.744   1.738 -0.4025  0.7570  0.1948
    3CHTO  H116 1064   5.420   0.688   1.645 -1.0712  2.4298 -0.8310
    3CHTO   C70 1065   5.280   0.709   1.787  0.4729  0.1860  0.2027
    3CHTO   O46 1066   5.247   0.578   1.742  0.1098 -0.5867 -0.4340
    3CHTO  H103 1067   5.223   0.594   1.653 -0.8128 -0.1651 -0.1235
    3CHTO   O39 1068   5.764   0.690   1.900  0.3871 -0.0231 -0.1724
    3CHTO   C60 1069   5.796   0.550   1.894  0.1830 -0.0518 -0.0309
    3CHTO  H117 1070   5.704   0.503   1.859 -1.1172  2.5220 -0.1380
    3CHTO   C62 1071   5.918   0.527   1.800  0.2949 -0.6626 -0.4698
    3CHTO  H119 1072   5.885   0.567   1.701 -0.2572  1.7242  0.6479
    3CHTO   O43 1073   6.030   0.610   1.841  0.4538 -0.6569  0.0487
    3CHTO  H101 1074   6.059   0.596   1.929  1.5891 -1.9928 -0.5238
    3CHTO   C66 1075   5.952   0.369   1.798 -0.1053 -0.0314  0.4924
    3CHTO  H123 1076   5.855   0.322   1.781 -1.7553  3.2737  0.2023
    3CHTO   N12 1077   6.043   0.338   1.686  0.5167 -0.1689 -0.7927
    3CHTO  H110 1078   6.126   0.406   1.676  1.9791 -1.8577 -0.4393
    3CHTO  H111 1079   6.069   0.233   1.691 -0.7398 -0.4789 -0.4574
    3CHTO   C69 1080   5.992   0.321   1.939 -0.1418  0.1107 -0.3019
    3CHTO  H126 1081   6.080   0.381   1.971  0.0254  0.7183 -1.8596
    3CHTO   O41 1082   5.867   0.345   2.034 -0.3011  0.2211  0.2720
    3CHTO   C64 1083   5.829   0.489   2.037 -0.1559 -0.2254  0.1635
    3CHTO  H121 1084   5.919   0.537   2.080 -1.6119 -0.1784  3.3655
    3CHTO   C71 1085   5.719   0.517   2.145 -0.5853  0.5478  0.0595
    3CHTO   O47 1086   5.604   0.434   2.117  0.3080 -0.2928  0.2823
    3CHTO  H104 1087   5.561   0.403   2.194 -1.1432 -2.6686 -1.4202
    3CHTO   O34 1088   6.038   0.172   1.944 -0.1437 -0.6458  0.4004
    3CHTO   C49 1089   6.080   0.032   1.871  0.3009 -0.2018  0.1608
    3CHTO   H91 1090   6.156   0.061   1.799  2.3665 -0.0589  2.3587
    3CHTO   C47 1091   5.966  -0.036   1.790 -0.0329 -0.7590  0.4069
    3CHTO   H89 1092   5.969   0.007   1.688  0.0363  0.0781  0.7607
    3CHTO   O33 1093   5.836   0.002   1.838  0.2067 -0.1128  0.0046
    3CHTO   H70 1094   5.817  -0.033   1.923  0.6687  1.1254  0.6268
    3CHTO   C45 1095   5.991  -0.196   1.774 -0.0996 -1.1660 -0.0699
    3CHTO   H87 1096   5.949  -0.243   1.864 -2.2006  0.2091 -0.2770
    3CHTO    N8 1097   5.923  -0.243   1.652  0.0484 -0.1893 -0.6594
    3CHTO   H75 1098   5.995  -0.275   1.579  1.8563  0.1557  0.9328
    3CHTO   H76 1099   5.866  -0.331   1.676  0.9137 -1.4744 -3.2102
    3CHTO   C43 1100   6.150  -0.226   1.783 -0.5597  0.2434  0.1121
    3CHTO   H85 1101   6.174  -0.328   1.753 -1.3529  0.9882 -3.2577
    3CHTO   O29 1102   6.201  -0.190   1.914  0.5438  0.4767 -0.2098
    3CHTO   C50 1103   6.146  -0.067   1.973 -0.1034 -0.2559 -0.3559
    3CHTO   H92 1104   6.077  -0.083   2.056 -0.8811  0.3809 -0.8687
    3CHTO   C54 1105   6.261   0.008   2.041 -0.3343 -0.3239 -0.9433
    3CHTO   O36 1106   6.328  -0.068   2.147 -0.4235 -0.3741 -0.0412
    3CHTO   H72 1107   6.410  -0.027   2.161 -1.3113  0.5543  2.8233
    3CHTO   O27 1108   6.218  -0.158   1.677 -0.1197 -0.4141  0.4119
    3CHTO   C37 1109   6.322  -0.085   1.607  0.3585 -0.1816 -0.8401
    3CHTO   H79 1110   6.314   0.019   1.641 -2.2299 -0.7250  0.4114
    3CHTO   C38 1111   6.469  -0.130   1.632 -0.1577  0.2870  0.3981
    3CHTO   H80 1112   6.486  -0.235   1.607  1.1553  0.5225  0.2603
    3CHTO   O31 1113   6.482  -0.115   1.774  0.3227  0.2180 -0.1382
    3CHTO   H68 1114   6.572  -0.116   1.800 -0.2409  2.5039  2.0939
    3CHTO   C39 1115   6.572  -0.041   1.552 -0.0245  0.1588  0.2012
    3CHTO   H81 1116   6.553   0.062   1.583 -2.1232 -0.8108  2.2912
    3CHTO    N7 1117   6.717  -0.081   1.578 -0.0640 -0.8138  0.0290
    3CHTO   H73 1118   6.760   0.005   1.627 -1.7713 -0.3070  0.6725
    3CHTO   H74 1119   6.728  -0.174   1.632 -1.3530 -0.0937  1.5607
    3CHTO   C40 1120   6.535  -0.050   1.400 -0.4509  0.9750  0.9050
    3CHTO   H82 1121   6.548  -0.153   1.366  0.6945  1.7365 -1.0886
    3CHTO   O26 1122   6.397  -0.003   1.392 -0.0697  0.4882 -0.2310
    3CHTO   C41 1123   6.290  -0.083   1.454 -0.7458 -0.1382 -0.0804
    3CHTO   H83 1124   6.302  -0.186   1.418 -1.9396 -0.9153  1.6942
    3CHTO   C52 1125   6.140  -0.032   1.420  0.1106 -0.1079  0.6070
    3CHTO   O35 1126   6.139   0.019   1.275  0.9731 -0.2369 -0.7741
    3CHTO   H71 1127   6.171   0.107   1.263 -0.0267 -0.0722 -2.5331
    3CHTO   O28 1128   6.621   0.018   1.315 -0.0178 -0.2216 -0.2535
    3CHTO   C42 1129   6.610   0.145   1.243  0.0221  0.1545  0.4272
    3CHTO   H84 1130   6.699   0.156   1.181 -1.2904  0.9182 -1.3745
    3CHTO   C44 1131   6.614   0.273   1.341  0.2634  0.3945  0.0873
    3CHTO   H86 1132   6.535   0.262   1.415  1.6531  1.8934  1.8517
    3CHTO   O32 1133   6.739   0.265   1.405 -0.0439 -0.6426  0.3787
    3CHTO   H69 1134   6.742   0.320   1.481 -0.1991 -1.0301  0.6681
    3CHTO   C48 1135   6.594   0.407   1.269  0.0456  0.0005  0.3305
    3CHTO   H90 1136   6.684   0.427   1.211 -0.8637 -1.2571 -1.5448
    3CHTO    N9 1137   6.592   0.533   1.356  0.0393  0.5480  0.5376
    3CHTO   H77 1138   6.686   0.585   1.341 -0.2024  0.9913  0.5412
    3CHTO   H78 1139   6.515   0.598   1.318  0.7982  1.1892  0.0915
    3CHTO   C51 1140   6.480   0.395   1.163 -0.0106  0.3365 -0.3437
    3CHTO   H93 1141   6.391   0.401   1.225  0.6486 -1.6613  0.8343
    3CHTO   O30 1142   6.484   0.285   1.075  0.8529 -0.0808  0.6283
    3CHTO   C46 1143   6.489   0.152   1.145 -0.3029  0.4064  0.8991
    3CHTO   H88 1144   6.395   0.147   1.199  1.0516 -0.3088  3.2426
    3CHTO   C53 1145   6.498   0.043   1.034  0.4172 -0.1841  0.8973
    3CHTO   O72 1146   6.460  -0.087   1.092  0.3229 -0.3614 -0.5259
    3CHTO  H199 1147   6.454  -0.158   1.031  0.5710 -0.5027 -0.3838
    3CHTO   O22 1148   6.480   0.506   1.073 -0.1939 -0.1433 -0.1301
    3CHTO   C31 1149   6.376   0.523   0.973 -0.3735  0.2463  0.1916
    3CHTO   H59 1150   6.354   0.420   0.935  0.4332 -0.0637  0.5579
    3CHTO   C29 1151   6.241   0.587   1.022  0.1196  0.1289 -0.5428
    3CHTO   H57 1152   6.270   0.690   1.048  0.9569  0.0029 -0.9450
    3CHTO   O21 1153   6.192   0.512   1.139 -0.2360  0.1006  0.2435
    3CHTO   H37 1154   6.104   0.482   1.125 -0.4113  1.0422 -0.7677
    3CHTO   C27 1155   6.136   0.596   0.901  0.1992  0.2544  0.9648
    3CHTO   H55 1156   6.104   0.495   0.873 -0.9994  1.1826 -1.1800
    3CHTO    N5 1157   6.016   0.672   0.946  0.6645 -0.1413 -0.2688
    3CHTO   H43 1158   5.981   0.624   1.036  1.8656  0.2892  0.4455
    3CHTO   H44 1159   5.945   0.672   0.865 -0.8099  2.0172  0.9801
    3CHTO   C25 1160   6.206   0.673   0.780  0.2339 -0.0736 -0.7139
    3CHTO   H53 1161   6.233   0.774   0.814  2.2044 -1.8715  3.5266
    3CHTO   O17 1162   6.335   0.621   0.745 -0.2484 -0.0933 -0.0190
    3CHTO   C32 1163   6.429   0.613   0.856 -0.5409 -0.2581 -0.5167
    3CHTO   H60 1164   6.443   0.714   0.894  2.5633 -0.6395 -0.5434
    3CHTO   C36 1165   6.567   0.575   0.795  0.3294 -0.2909  0.2537
    3CHTO   O25 1166   6.557   0.454   0.719  0.4156 -0.0750  0.1090
    3CHTO   H40 1167   6.644   0.419   0.716  0.1650 -0.6058 -1.8236
    3CHTO   O15 1168   6.102   0.663   0.665 -0.1285 -0.2758 -0.0418
    3CHTO   C19 1169   6.096   0.763   0.559  0.3190  0.4234  0.2229
    3CHTO   H47 1170   6.007   0.730   0.503  1.7125 -2.2388 -0.4837
    3CHTO   C20 1171   6.074   0.908   0.613 -0.5591  0.7545 -0.0019
    3CHTO   H48 1172   6.163   0.950   0.663 -0.7892  1.2569 -0.0099
    3CHTO   O19 1173   5.964   0.909   0.714 -0.5504 -0.0059  0.2525
    3CHTO   H35 1174   5.992   0.863   0.791 -0.6372 -1.7233 -0.6948
    3CHTO   C21 1175   6.042   1.001   0.487 -0.0228  0.3287  0.3027
    3CHTO   H49 1176   5.959   0.955   0.434  0.1990 -1.0390  1.1299
    3CHTO    N4 1177   6.011   1.137   0.531  0.4523  0.2786 -0.8560
    3CHTO   H41 1178   5.933   1.185   0.473  0.9782  2.9167  0.5581
    3CHTO   H42 1179   6.092   1.209   0.529  1.8274 -1.2518 -1.6575
    3CHTO   C22 1180   6.161   0.999   0.387 -0.0075  0.3742 -0.9343
    3CHTO   H50 1181   6.248   1.042   0.438  1.0194 -2.6284  0.0083
    3CHTO   O14 1182   6.190   0.858   0.343 -0.2157 -0.1547 -0.6078
    3CHTO   C23 1183   6.216   0.772   0.458  0.0548  0.2741 -0.3629
    3CHTO   H51 1184   6.309   0.799   0.510 -0.1203 -0.9412  0.6034
    3CHTO   C34 1185   6.246   0.637   0.386  0.7142  0.0458  0.0243
    3CHTO   O23 1186   6.126   0.588   0.329  0.8876  0.5206  0.4682
    3CHTO   H38 1187   6.131   0.495   0.321 -0.9379  0.5660 -1.6379
    3CHTO   O16 1188   6.128   1.059   0.261 -0.6171  0.0963 -0.8949
    3CHTO   C24 1189   6.205   1.176   0.218 -0.6311 -0.2643  0.4856
    3CHTO   H52 1190   6.257   1.220   0.303  0.7259 -0.8847 -0.0004
    3CHTO   C26 1191   6.111   1.277   0.147  0.7304 -0.0357 -0.1582
    3CHTO   H54 1192   6.069   1.224   0.059  1.8217  1.5000 -1.6376
    3CHTO   O20 1193   6.009   1.313   0.241  0.5467  0.0293  0.3252
    3CHTO   H36 1194   5.955   1.237   0.252  3.1696 -2.0058 -0.2238
    3CHTO   C30 1195   6.192   1.401   0.087  0.6473  0.1599  0.4308
    3CHTO   H58 1196   6.220   1.467   0.171 -1.0341 -0.1332  1.2458
    3CHTO    N6 1197   6.105   1.487   0.004  0.5290 -0.0682 -0.0840
    3CHTO   H45 1198   6.023   1.527   0.060  2.1633  3.9839 -0.4080
    3CHTO   H46 1199   6.068   1.436  -0.084  2.8250  2.7393 -2.8016
    3CHTO   C33 1200   6.322   1.360   0.007 -0.0843 -0.0555 -0.1092
    3CHTO   H61 1201   6.293   1.333  -0.095 -1.1319  0.9269 -0.0801
    3CHTO   O18 1202   6.394   1.250   0.064 -0.5355 -0.6230 -0.1610
    3CHTO   C28 1203   6.319   1.131   0.113 -0.1128  0.0337  0.5901
    3CHTO   H56 1204   6.269   1.073   0.035  1.5522  0.8226 -1.1157
    3CHTO   C35 1205   6.419   1.041   0.171 -0.3255  0.5546 -0.1657
    3CHTO   O24 1206   6.465   1.080   0.294  0.1370  0.4269  0.5238
    3CHTO   H39 1207   6.396   1.044   0.347 -2.5659  2.0660 -1.7222
    3CHTO    O9 1208   6.403   1.479  -0.004  0.1748  1.0700 -0.2990
    3CHTO   C13 1209   6.499   1.533   0.136  0.1603 -0.0640  0.9267
    3CHTO   H26 1210   6.443   1.505   0.228 -1.2176 -0.1986  0.0713
    3CHTO   C11 1211   6.515   1.691   0.119  0.3271 -0.2819  0.6729
    3CHTO   H24 1212   6.418   1.738   0.143  0.0219 -0.6047  0.0605
    3CHTO    O8 1213   6.557   1.726  -0.013 -0.3419  0.2916 -0.0268
    3CHTO    H3 1214   6.516   1.677  -0.082  0.2666 -2.0362  1.2233
    3CHTO    C9 1215   6.607   1.741   0.233 -0.2863  0.2118  0.2529
    3CHTO   H22 1216   6.562   1.699   0.324  0.0852 -1.6117 -0.3904
    3CHTO    N2 1217   6.602   1.889   0.259  0.0125  0.2024 -0.0842
    3CHTO   H10 1218   6.552   1.913   0.351  0.5108 -2.0526  0.8147
    3CHTO   H11 1219   6.696   1.941   0.262  0.3189 -0.4110  1.2216
    3CHTO    C7 1220   6.743   1.669   0.217 -0.9197  0.3007 -0.7324
    3CHTO   H20 1221   6.797   1.691   0.312  1.2002  0.1188 -1.8564
    3CHTO    O4 1222   6.733   1.523   0.210  0.1715 -0.3645  0.5450
    3CHTO   C14 1223   6.631   1.456   0.137 -0.5714 -0.2190  0.9187
    3CHTO   H27 1224   6.618   1.358   0.187  1.9686 -0.5604  0.9880
    3CHTO   C18 1225   6.675   1.427  -0.012  0.7426 -0.0925 -0.3442
    3CHTO   O13 1226   6.762   1.310  -0.006 -0.1713  0.0302 -0.1985
    3CHTO    H7 1227   6.853   1.332  -0.011 -0.1724  0.2077  0.4788
    3CHTO    O2 1228   6.818   1.728   0.088 -0.2060  0.1057 -0.0170
    3CHTO    C1 1229   6.940   1.657   0.046  0.2939 -0.4213  0.3378
    3CHTO   H14 1230   6.916   1.552   0.020 -1.5593 -0.7075  3.0200
    3CHTO    C2 1231   7.058   1.655   0.148 -0.3766  0.4124  0.0258
    3CHTO   H15 1232   7.076   1.762   0.168 -1.6097  0.6964 -0.3614
    3CHTO    O6 1233   7.009   1.576   0.259  0.1723 -0.3124 -0.1814
    3CHTO    H1 1234   7.081   1.567   0.319 -0.8900 -2.1876  0.8549
    3CHTO    C3 1235   7.190   1.593   0.082 -0.4398  0.5855 -0.1519
    3CHTO   H16 1236   7.163   1.488   0.063  0.1199  0.6367 -1.2194
    3CHTO    N1 1237   7.313   1.592   0.170  0.0513  0.0506 -0.0924
    3CHTO    H8 1238   7.328   1.692   0.208  2.1149  0.0784 -0.9286
    3CHTO    H9 1239   7.301   1.523   0.253  0.0301 -1.8908 -1.6867
    3CHTO    C4 1240   7.220   1.659  -0.059 -0.0321  0.0532 -0.0158
    3CHTO   H17 1241   7.264   1.757  -0.041  0.1720 -0.1351  0.5297
    3CHTO    O1 1242   7.106   1.666  -0.144 -0.0160 -0.2445  0.0691
    3CHTO    C5 1243   6.990   1.730  -0.087  0.2008 -0.0418 -0.5427
    3CHTO   H18 1244   7.012   1.834  -0.063 -0.2541  0.1798 -1.0751
    3CHTO   C16 1245   6.883   1.736  -0.198 -0.3621 -0.7505 -0.2368
    3CHTO   O11 1246   6.789   1.837  -0.181  0.2071 -0.0052 -0.1308
    3CHTO    H5 1247   6.740   1.845  -0.260 -0.8054  1.5751  0.6241
    3CHTO    O3 1248   7.313   1.574  -0.127  0.6442 -0.3294  0.0192
    3CHTO    C6 1249   7.385   1.637  -0.242  0.3140  0.4722  0.0114
    3CHTO   H19 1250   7.331   1.721  -0.284  0.1740  0.9255  1.0877
    3CHTO    C8 1251   7.523   1.672  -0.182  0.8833 -0.0296 -0.4828
    3CHTO   H21 1252   7.558   1.580  -0.135 -0.3827  0.2208  0.9931
    3CHTO    O7 1253   7.500   1.775  -0.084  0.3214 -0.6892  0.2161
    3CHTO    H2 1254   7.574   1.791  -0.029  1.1562  1.3707 -1.4510
    3CHTO   C12 1255   7.628   1.726  -0.289 -0.2314 -0.1259 -0.5393
    3CHTO   H25 1256   7.585   1.821  -0.327  1.3624  0.0557 -1.9660
    3CHTO    N3 1257   7.763   1.748  -0.228  0.0795 -0.1641 -0.0078
    3CHTO   H12 1258   7.761   1.820  -0.147  0.2067  0.5513 -0.6290
    3CHTO   H13 1259   7.821   1.794  -0.308 -1.5411 -0.1846 -1.2237
    3CHTO   C15 1260   7.630   1.623  -0.415 -0.2312  0.4182 -0.5347
    3CHTO   H28 1261   7.685   1.532  -0.390 -0.8071  0.5408  1.2696
    3CHTO   O10 1262   7.715   1.702  -0.546  0.5515  0.2767  0.4388
    3CHTO    H4 1263   7.654   1.750  -0.599  3.4000  1.8747 -1.5548
    3CHTO    O5 1264   7.497   1.606  -0.459  0.0725 -0.0123 -0.4933
    3CHTO   C10 1265   7.413   1.544  -0.357 -0.2834 -0.2066 -0.6636
    3CHTO   H23 1266   7.462   1.464  -0.302 -0.4137  0.9347  1.1423
    3CHTO   C17 1267   7.290   1.489  -0.419  0.6239  0.1518  0.3443
    3CHTO   O12 1268   7.333   1.390  -0.513 -0.0983 -0.5711  0.0472
    3CHTO    H6 1269   7.385   1.426  -0.583  0.4148 -0.9122  0.2497
    4CHTO  H203 1270   6.002   6.804   1.868  1.6246 -2.0378  0.7071
    4CHTO   O82 1271   6.016   6.864   1.939 -0.6707 -0.8262  0.1872
    4CHTO  C123 1272   5.987   6.999   1.918  0.2096 -0.1196 -0.3031
    4CHTO  H227 1273   5.880   7.020   1.931 -0.0968 -0.8382 -1.5565
    4CHTO   O77 1274   6.071   7.062   2.020  0.1431  0.2672 -0.2882
    4CHTO  C118 1275   6.030   7.196   2.050  0.4996 -0.0993 -0.4110
    4CHTO  H222 1276   5.923   7.194   2.077  0.9718  1.0158  1.6153
    4CHTO  C125 1277   6.116   7.249   2.174  0.5422  0.5364 -0.0302
    4CHTO   O84 1278   6.262   7.267   2.138 -0.4484  0.0621 -0.2030
    4CHTO  H205 1279   6.317   7.191   2.140  0.2869  0.6126  0.8285
    4CHTO  C114 1280   6.054   7.278   1.919  0.6052  0.0875  0.1922
    4CHTO  H218 1281   6.161   7.291   1.907  0.4661  0.2975 -0.8375
    4CHTO  C116 1282   6.005   7.216   1.789 -0.2548  0.2979 -0.0987
    4CHTO  H220 1283   5.896   7.237   1.787 -0.2324  0.4111 -0.1547
    4CHTO   O79 1284   6.057   7.280   1.667 -0.0652 -0.2027  0.2459
    4CHTO  H201 1285   5.995   7.279   1.596  1.1593 -0.1855 -0.8311
    4CHTO  C120 1286   6.034   7.060   1.778 -0.3517 -0.1569  0.1542
    4CHTO  H224 1287   6.145   7.048   1.770 -0.0964  2.2687 -0.2847
    4CHTO   N21 1288   5.966   6.999   1.664  0.5978  0.1513  0.0361
    4CHTO  H211 1289   6.038   7.008   1.584  1.7521  0.4746  1.1050
    4CHTO  H212 1290   5.945   6.894   1.681 -0.1508  0.4434  0.9311
    4CHTO   O75 1291   5.984   7.404   1.956 -0.6339 -0.6467 -0.2212
    4CHTO  C112 1292   6.061   7.535   1.887  0.6175  0.4699  0.2354
    4CHTO  H216 1293   6.078   7.522   1.779 -2.8252 -0.6939 -0.2221
    4CHTO   O73 1294   6.184   7.544   1.960  0.1484  0.1176  0.2891
    4CHTO  C113 1295   6.276   7.648   1.920 -0.2281  0.2586 -0.0889
    4CHTO  H217 1296   6.312   7.640   1.816 -0.2983 -1.6769  0.0151
    4CHTO  C124 1297   6.395   7.637   2.012 -0.1068  0.0943  0.3194
    4CHTO   O83 1298   6.514   7.677   1.937  0.1442  0.3183 -0.1915
    4CHTO  H204 1299   6.547   7.604   1.888 -2.2513  0.0645 -1.5506
    4CHTO  C109 1300   6.210   7.788   1.936  0.8649 -0.0560 -0.7111
    4CHTO  H213 1301   6.200   7.804   2.044  1.1168 -1.1489 -0.5134
    4CHTO  C110 1302   6.069   7.790   1.866 -0.2042 -0.0206  0.1293
    4CHTO  H214 1303   6.085   7.802   1.759  0.2685  2.1134  0.4057
    4CHTO   O78 1304   6.017   7.919   1.903  0.1908 -0.3589  0.6100
    4CHTO  H200 1305   5.926   7.926   1.882  0.5967  1.4636 -0.6152
    4CHTO  C111 1306   5.988   7.670   1.913  0.4820  0.3093 -0.2616
    4CHTO  H215 1307   5.966   7.679   2.020 -0.6849 -3.1921 -0.1526
    4CHTO   N19 1308   5.860   7.673   1.846 -0.1552  0.8630  0.5386
    4CHTO  H207 1309   5.807   7.584   1.877  0.9995  0.0758  0.2768
    4CHTO  H208 1310   5.880   7.670   1.739  2.5203  2.0117  0.9574
    4CHTO   O74 1311   6.300   7.890   1.883 -0.3912 -0.2041  0.5810
    4CHTO  C115 1312   6.362   7.999   2.003 -0.6915 -0.1015 -0.6021
    4CHTO  H219 1313   6.331   7.972   2.103 -2.6408  1.7336 -0.6731
    4CHTO   O76 1314   6.493   8.000   2.003  0.2464 -0.2915 -0.0292
    4CHTO  C122 1315   6.550   8.045   1.882  0.5285  0.7171  0.1604
    4CHTO  H226 1316   6.525   7.967   1.810  1.9111  0.0856  0.3497
    4CHTO  C126 1317   6.705   8.037   1.905 -0.0130  0.0322  0.1848
    4CHTO   O85 1318   6.780   8.084   1.792 -0.2114  0.2103 -0.4531
    4CHTO  H206 1319   6.732   8.064   1.714  1.1704 -0.1474 -1.2182
    4CHTO  C121 1320   6.502   8.190   1.835  0.0583  0.0055  0.2417
    4CHTO  H225 1321   6.584   8.265   1.834 -0.3377  0.4507  0.2641
    4CHTO   O81 1322   6.441   8.188   1.703 -0.0648 -0.2928  0.1378
    4CHTO  H202 1323   6.367   8.131   1.698 -0.2894 -0.0744  0.8554
    4CHTO  C119 1324   6.393   8.245   1.931 -0.0067  0.0021  0.3313
    4CHTO  H223 1325   6.449   8.281   2.018  0.4167  1.0443 -0.3753
    4CHTO  C117 1326   6.289   8.134   1.971  0.5468  0.2327  1.0892
    4CHTO  H221 1327   6.224   8.112   1.887 -0.9764 -1.5821  2.7036
    4CHTO   N20 1328   6.195   8.192   2.070  0.3815  0.1050 -0.2300
    4CHTO  H209 1329   6.149   8.275   2.018  1.3874  0.8962  0.1447
    4CHTO  H210 1330   6.248   8.223   2.159 -0.0878 -1.0933  0.4744
    4CHTO   O80 1331   6.339   8.379   1.873  0.3130  0.0617 -0.8813
    4CHTO  C103 1332   6.368   8.517   1.948 -0.5262 -0.1939  0.0882
    4CHTO  H190 1333   6.331   8.506   2.050  0.5441  0.2142  0.5370
    4CHTO  C101 1334   6.508   8.576   1.932 -0.0463  0.2151 -0.0046
    4CHTO  H188 1335   6.536   8.586   1.827 -2.6095  0.9201 -0.6573
    4CHTO   O68 1336   6.608   8.480   2.004  0.2981 -0.2195  0.0829
    4CHTO  H168 1337   6.621   8.494   2.096  0.1088  0.9426 -0.0689
    4CHTO   C99 1338   6.500   8.724   1.987 -0.3794  0.4731 -0.0474
    4CHTO  H186 1339   6.463   8.715   2.092  0.6372  0.4604  0.3152
    4CHTO   N17 1340   6.636   8.796   1.995 -0.2445 -0.4577  0.6766
    4CHTO  H174 1341   6.713   8.724   2.018 -1.2090 -1.8212 -0.2901
    4CHTO  H175 1342   6.645   8.877   2.066 -2.7827 -1.0579  1.7587
    4CHTO   C97 1343   6.399   8.799   1.909  0.0801  0.2630 -0.5472
    4CHTO  H184 1344   6.434   8.795   1.805  0.1906 -2.8470 -0.4503
    4CHTO   O64 1345   6.271   8.741   1.923 -0.0889  0.0630  0.2528
    4CHTO  C104 1346   6.263   8.607   1.866 -0.0554  0.7545  0.1202
    4CHTO  H191 1347   6.288   8.601   1.760  1.2124  0.9360  0.3930
    4CHTO  C108 1348   6.122   8.551   1.876 -0.1268 -0.1594  0.2135
    4CHTO   O71 1349   6.023   8.658   1.846 -0.0045  0.2394 -0.0760
    4CHTO  H171 1350   6.047   8.702   1.767  0.9987 -0.9512 -0.4545
    4CHTO   O62 1351   6.373   8.934   1.951 -0.5084  0.7440 -0.7427
    4CHTO   C91 1352   6.377   9.038   1.849  0.6643  0.2446 -0.2126
    4CHTO  H178 1353   6.433   8.993   1.767  3.1767  0.5308  1.3059
    4CHTO   C92 1354   6.463   9.156   1.886  0.2973  0.3319  0.2514
    4CHTO  H179 1355   6.415   9.200   1.974 -1.2471 -1.6575  0.4356
    4CHTO   O66 1356   6.597   9.118   1.929  0.1765 -0.7393 -0.2846
    4CHTO  H166 1357   6.662   9.185   1.922 -1.8234  1.5024  1.8962
    4CHTO   C93 1358   6.477   9.256   1.757  0.3027 -0.0256 -0.1647
    4CHTO  H180 1359   6.554   9.215   1.690  1.7410  2.9631 -0.4175
    4CHTO   N16 1360   6.528   9.387   1.798  0.0315 -0.0439  0.2642
    4CHTO  H172 1361   6.631   9.376   1.827 -0.1064 -1.5609  0.2066
    4CHTO  H173 1362   6.477   9.423   1.886 -0.6692 -2.7957  1.0133
    4CHTO   C94 1363   6.348   9.269   1.673 -0.4408  0.5145  0.9804
    4CHTO  H181 1364   6.317   9.372   1.656 -2.0084  0.0536  0.9667
    4CHTO   O61 1365   6.229   9.220   1.744 -0.4034  0.0156 -0.1930
    4CHTO   C95 1366   6.231   9.086   1.802  0.7041 -0.1280  0.5173
    4CHTO  H182 1367   6.173   9.092   1.894  0.0675  2.2764 -0.0053
    4CHTO  C106 1368   6.169   8.976   1.710 -0.1197 -0.7377  0.8216
    4CHTO   O69 1369   6.025   9.008   1.693 -0.1129 -0.2040 -0.1727
    4CHTO  H169 1370   5.975   8.934   1.725 -0.3037 -0.1958 -0.4511
    4CHTO   O63 1371   6.359   9.195   1.557 -0.2169  0.1014 -0.0068
    4CHTO   C96 1372   6.468   9.247   1.441  0.1715  0.7404 -0.4013
    4CHTO  H183 1373   6.573   9.227   1.464  0.5002  2.6198 -0.1807
    4CHTO   C98 1374   6.459   9.397   1.394  0.5714 -0.0217 -0.4283
    4CHTO  H185 1375   6.354   9.429   1.383  0.5655 -0.2911 -1.2265
    4CHTO   O67 1376   6.515   9.481   1.501 -0.3468  0.0912 -0.6922
    4CHTO  H167 1377   6.455   9.492   1.572  0.6464  1.6875 -0.0918
    4CHTO  C102 1378   6.548   9.414   1.259  0.1486 -1.5173 -0.2893
    4CHTO  H189 1379   6.653   9.395   1.285  0.8775 -0.0596 -2.0107
    4CHTO   N18 1380   6.544   9.553   1.205  0.5863 -0.6581  0.7416
    4CHTO  H176 1381   6.456   9.577   1.147  1.2457 -0.8683 -0.3788
    4CHTO  H177 1382   6.634   9.568   1.147  2.6867  1.9889  4.4505
    4CHTO  C105 1383   6.519   9.304   1.155 -0.8036  0.3408 -0.1895
    4CHTO  H192 1384   6.415   9.319   1.125 -0.5418 -0.1660 -1.3831
    4CHTO   O65 1385   6.546   9.180   1.221  0.4616 -0.0259  0.4255
    4CHTO  C100 1386   6.452   9.144   1.325 -0.1934 -0.1549  0.5181
    4CHTO  H187 1387   6.355   9.158   1.274  0.0426 -0.8455 -0.1427
    4CHTO  C107 1388   6.473   8.995   1.381 -0.2223  0.1629 -0.5834
    4CHTO   O70 1389   6.446   8.896   1.281  0.3826  0.0329  0.0333
    4CHTO  H170 1390   6.474   8.923   1.196 -0.4694  1.3682  0.1445
    4CHTO   O57 1391   6.602   9.316   1.026  0.2008 -0.2961  0.1102
    4CHTO   C85 1392   6.551   9.257   0.904 -0.1434 -0.6424  0.3862
    4CHTO  H157 1393   6.448   9.288   0.876  0.1866  0.1730  0.0555
    4CHTO   C83 1394   6.525   9.103   0.924 -0.0101  0.5071  0.6111
    4CHTO  H155 1395   6.439   9.086   0.989 -1.2856 -0.7868 -1.3674
    4CHTO   O56 1396   6.628   9.034   0.996  0.1601 -0.2709  0.0924
    4CHTO  H135 1397   6.715   9.064   0.977  0.7406 -0.6857  2.0198
    4CHTO   C81 1398   6.492   9.054   0.778  0.6180  0.2164 -0.5501
    4CHTO  H153 1399   6.399   9.102   0.746  0.9815  3.1410  2.4141
    4CHTO   N14 1400   6.448   8.914   0.768 -0.1120  0.0913 -0.3442
    4CHTO  H141 1401   6.526   8.845   0.743  1.2667  1.4264  0.1778
    4CHTO  H142 1402   6.369   8.897   0.698  0.0785 -1.4616 -0.2196
    4CHTO   C79 1403   6.601   9.083   0.672  0.0862  0.0458  0.3135
    4CHTO  H151 1404   6.556   9.067   0.575 -1.2617 -0.2783  0.9886
    4CHTO   O52 1405   6.623   9.227   0.665 -0.3580  0.1302 -0.3126
    4CHTO   C86 1406   6.656   9.288   0.788  0.0146  0.2447 -0.2632
    4CHTO  H158 1407   6.756   9.253   0.822  0.8027  1.9348 -0.8255
    4CHTO   C90 1408   6.670   9.439   0.760 -0.1138 -0.3144  0.1341
    4CHTO   O60 1409   6.774   9.462   0.670 -0.0892  0.0750 -0.0706
    4CHTO  H138 1410   6.745   9.423   0.590 -1.1933  1.2244 -0.2410
    4CHTO   O50 1411   6.729   9.021   0.692 -0.3115  0.3341 -0.2426
    4CHTO   C73 1412   6.855   9.051   0.639 -0.8125 -0.0056 -0.2963
    4CHTO  H145 1413   6.878   9.158   0.650 -0.3224 -0.0124 -1.2009
    4CHTO   C74 1414   6.860   9.019   0.486 -0.2455  0.4168 -0.7496
    4CHTO  H146 1415   6.779   9.075   0.437 -1.4434 -1.3275 -0.8147
    4CHTO   O54 1416   6.988   9.074   0.433  0.5380  0.1374 -0.0468
    4CHTO  H133 1417   6.985   9.072   0.339  1.4155  1.0246 -0.1040
    4CHTO   C75 1418   6.843   8.863   0.464  0.4280 -0.2178  1.2590
    4CHTO  H147 1419   6.750   8.825   0.510 -0.0244 -0.6929 -0.0199
    4CHTO   N13 1420   6.844   8.825   0.322  0.1074  0.2447  0.6997
    4CHTO  H139 1421   6.776   8.882   0.260 -0.5246  0.5526  1.6569
    4CHTO  H140 1422   6.821   8.720   0.315  1.5412 -0.0897  0.9901
    4CHTO   C76 1423   6.959   8.791   0.542  0.8698  0.0166 -0.4320
    4CHTO  H148 1424   7.051   8.832   0.500  0.7037 -0.1199 -0.9375
    4CHTO   O49 1425   6.944   8.824   0.686 -0.3286  0.2633  0.0032
    4CHTO   C77 1426   6.965   8.964   0.712  0.2767  0.1907 -0.5633
    4CHTO  H149 1427   7.064   8.995   0.678  0.2752 -1.0573 -1.7829
    4CHTO   C88 1428   6.976   8.985   0.865 -0.3544 -0.1915  0.9261
    4CHTO   O58 1429   7.075   8.929   0.927  0.3206  0.2452  0.1866
    4CHTO  H136 1430   7.075   8.955   1.017  0.5412  0.0657  0.2383
    4CHTO   O51 1431   6.965   8.652   0.532 -0.4792  0.0005 -0.1667
    4CHTO   C78 1432   7.095   8.575   0.581  0.8247 -0.0365 -0.1352
    4CHTO  H150 1433   7.128   8.601   0.684 -0.6162  0.1012  0.3130
    4CHTO   C80 1434   7.209   8.592   0.482  0.0644  0.0993 -0.2816
    4CHTO  H152 1435   7.168   8.586   0.380 -0.1005 -0.5048 -0.1813
    4CHTO   O55 1436   7.261   8.721   0.503  0.3509  0.0792  0.7328
    4CHTO  H134 1437   7.271   8.765   0.421 -0.3081  0.8308  1.0436
    4CHTO   C84 1438   7.329   8.484   0.502  0.4064 -0.1834  0.5596
    4CHTO  H156 1439   7.381   8.497   0.597 -0.8114  2.2195  0.9494
    4CHTO   N15 1440   7.423   8.498   0.394 -0.5724 -0.2516  0.3349
    4CHTO  H143 1441   7.519   8.529   0.429 -0.9824 -0.0015  1.2570
    4CHTO  H144 1442   7.437   8.412   0.333  1.1340  1.2205 -1.4129
    4CHTO   C87 1443   7.263   8.341   0.500 -0.0908  0.5398 -0.0730
    4CHTO  H159 1444   7.216   8.311   0.406 -0.2742  0.9530 -0.1151
    4CHTO   O53 1445   7.159   8.345   0.613  0.1720  0.4128  0.4244
    4CHTO   C82 1446   7.049   8.433   0.581 -0.5187  0.4822 -0.2083
    4CHTO  H154 1447   7.001   8.400   0.489 -0.6707  1.9153 -0.6675
    4CHTO   C89 1448   6.948   8.411   0.697 -0.4239 -0.0504  0.0915
    4CHTO   O59 1449   6.835   8.334   0.664 -0.5308 -0.4278  0.3428
    4CHTO  H137 1450   6.788   8.378   0.596  0.0886  0.3725  0.4304
    4CHTO   O45 1451   7.382   8.232   0.550 -0.5544 -0.2317  0.1070
    4CHTO   C67 1452   7.391   8.109   0.477 -0.1143  0.1234 -0.4925
    4CHTO  H124 1453   7.320   8.106   0.394 -0.9443  0.3228  0.1965
    4CHTO   C65 1454   7.535   8.083   0.421 -0.4585  0.2958 -0.1364
    4CHTO  H122 1455   7.604   8.165   0.439  0.1285 -0.0499 -0.7967
    4CHTO   O44 1456   7.524   8.073   0.275  0.2980 -0.7268 -0.1563
    4CHTO  H102 1457   7.593   8.022   0.237 -1.2601 -1.8838 -1.4422
    4CHTO   C63 1458   7.604   7.960   0.491  0.2246  0.6896 -0.1906
    4CHTO  H120 1459   7.628   7.988   0.593  0.9904 -2.2607  0.4873
    4CHTO   N11 1460   7.741   7.934   0.436  0.0441 -0.0438 -0.2085
    4CHTO  H108 1461   7.743   7.848   0.372 -0.4022  0.6215 -1.1198
    4CHTO  H109 1462   7.765   8.008   0.364  1.2171 -0.8697 -0.6744
    4CHTO   C61 1463   7.515   7.836   0.501  0.0203  0.0510 -0.5858
    4CHTO  H118 1464   7.554   7.790   0.593 -0.2287  0.6113 -0.1976
    4CHTO   O40 1465   7.373   7.865   0.523 -0.1445 -0.0937  0.1455
    4CHTO   C68 1466   7.344   7.996   0.575  0.0766 -0.1686  0.7173
    4CHTO  H125 1467   7.383   8.000   0.678  1.8481  1.9134  0.0111
    4CHTO   C72 1468   7.190   8.020   0.591  0.1586 -0.0810 -0.2479
    4CHTO   O48 1469   7.128   7.927   0.674 -0.1614  0.1871 -0.4072
    4CHTO  H105 1470   7.137   7.839   0.640  1.1304  0.7425 -1.5439
    4CHTO   O38 1471   7.515   7.745   0.383 -0.6249  0.3533 -0.3854
    4CHTO   C55 1472   7.447   7.618   0.388  0.4799 -0.3887 -0.4073
    4CHTO  H112 1473   7.353   7.635   0.443  1.0054  2.6271 -0.3381
    4CHTO   C56 1474   7.538   7.506   0.459  0.9154 -0.0282  0.0561
    4CHTO  H113 1475   7.630   7.505   0.398  0.5496  1.2075 -0.5326
    4CHTO   O42 1476   7.573   7.545   0.595 -0.3528 -0.3130  0.0926
    4CHTO  H100 1477   7.657   7.509   0.615 -1.4656 -3.1691 -0.2522
    4CHTO   C57 1478   7.468   7.364   0.462  0.3002  0.1771  0.5307
    4CHTO  H114 1479   7.381   7.363   0.528 -0.1011  0.6312  0.0160
    4CHTO   N10 1480   7.562   7.256   0.512  0.1177  0.7271 -0.2926
    4CHTO  H106 1481   7.618   7.293   0.597 -1.7469  1.5697  0.6204
    4CHTO  H107 1482   7.503   7.172   0.545 -0.0874  0.8714 -0.2867
    4CHTO   C58 1483   7.419   7.330   0.313 -0.3607 -0.2743 -0.7530
    4CHTO  H115 1484   7.510   7.310   0.251  2.1834  1.2484  2.3212
    4CHTO   O37 1485   7.341   7.441   0.266 -0.2269 -1.1727 -0.5717
    4CHTO   C59 1486   7.405   7.570   0.247  0.1374  0.1085 -0.2655
    4CHTO  H116 1487   7.491   7.550   0.183  1.5597 -0.3548  1.7395
    4CHTO   C70 1488   7.319   7.685   0.186 -0.2766 -0.0362  0.0483
    4CHTO   O46 1489   7.264   7.656   0.060  0.3473 -0.1191  0.2574
    4CHTO  H103 1490   7.174   7.631   0.067 -0.0366  0.8419 -0.9688
    4CHTO   O39 1491   7.323   7.213   0.318 -0.0979 -0.0110  0.8424
    4CHTO   C60 1492   7.356   7.096   0.241 -0.2354 -0.3141 -0.2853
    4CHTO  H117 1493   7.443   7.126   0.183 -0.5101  1.3921  0.1307
    4CHTO   C62 1494   7.393   6.963   0.316 -0.4591 -0.3143 -0.4802
    4CHTO  H119 1495   7.480   6.978   0.384 -0.2972  2.3056 -1.1973
    4CHTO   O43 1496   7.284   6.926   0.405  0.0099 -0.5123 -0.2595
    4CHTO  H101 1497   7.251   6.839   0.393  0.3191 -0.8977  1.5249
    4CHTO   C66 1498   7.422   6.841   0.215  0.0775  0.3891  0.4962
    4CHTO  H123 1499   7.492   6.875   0.139  0.4621  1.3866  1.2910
    4CHTO   N12 1500   7.474   6.719   0.285 -0.1825 -0.1415  0.3382
    4CHTO  H110 1501   7.522   6.650   0.217 -0.9273  0.1888 -0.5346
    4CHTO  H111 1502   7.548   6.749   0.358 -0.6409 -0.5102  0.9555
    4CHTO   C69 1503   7.296   6.824   0.129  0.8812  0.4680  0.1866
    4CHTO  H126 1504   7.212   6.818   0.201  0.3464  1.1347 -0.3726
    4CHTO   O41 1505   7.275   6.963   0.047 -0.1741  0.2923 -0.3068
    4CHTO   C64 1506   7.243   7.078   0.136  0.2993  0.1292  0.3338
    4CHTO  H121 1507   7.151   7.052   0.192 -0.6821 -0.1637 -1.3828
    4CHTO   C71 1508   7.229   7.207   0.050  0.9805 -0.6233  0.1944
    4CHTO   O47 1509   7.117   7.200  -0.037 -0.0652  0.1562  0.4438
    4CHTO  H104 1510   7.071   7.279  -0.056 -1.5242 -0.5557  0.9022
    4CHTO   O34 1511   7.311   6.692   0.031  0.7330 -0.5084 -0.3727
    4CHTO   C49 1512   7.289   6.581  -0.056 -0.0962  0.2706  0.3261
    4CHTO   H91 1513   7.232   6.615  -0.142  1.5472  0.1580 -0.8441
    4CHTO   C47 1514   7.215   6.465   0.024 -0.5253 -0.4326  0.5218
    4CHTO   H89 1515   7.180   6.384  -0.044  0.8607 -1.4534  1.0056
    4CHTO   O33 1516   7.102   6.531   0.081 -0.2970  0.0839 -0.3192
    4CHTO   H70 1517   7.050   6.563   0.010  0.3128  1.8095  0.0002
    4CHTO   C45 1518   7.311   6.396   0.135 -0.3000  0.1537 -0.1958
    4CHTO   H87 1519   7.342   6.481   0.197 -0.8679 -1.0895  1.8240
    4CHTO    N8 1520   7.239   6.297   0.215  0.2039 -0.2995 -0.0570
    4CHTO   H75 1521   7.204   6.336   0.309  2.4818 -0.8375  1.0483
    4CHTO   H76 1522   7.294   6.207   0.238 -1.5468 -1.0500  1.2935
    4CHTO   C43 1523   7.453   6.344   0.074  0.3731  1.2194  0.4567
    4CHTO   H85 1524   7.526   6.320   0.150  0.7089 -0.1456 -0.2741
    4CHTO   O29 1525   7.512   6.438  -0.018  0.0438  0.0164  0.0455
    4CHTO   C50 1526   7.424   6.520  -0.101 -0.7132  0.2801  0.2427
    4CHTO   H92 1527   7.485   6.607  -0.126  0.3856 -0.6171 -0.2390
    4CHTO   C54 1528   7.406   6.447  -0.245  0.0595  0.4871 -0.9096
    4CHTO   O36 1529   7.521   6.451  -0.329  0.0113  0.4937  0.0155
    4CHTO   H72 1530   7.561   6.368  -0.312  0.8652  0.4444 -2.1390
    4CHTO   O27 1531   7.433   6.220  -0.001 -0.3334  0.4769 -0.3707
    4CHTO   C37 1532   7.501   6.099  -0.033 -0.0804  0.7470  0.4289
    4CHTO   H79 1533   7.481   6.069  -0.137 -0.8707  1.2430  0.4330
    4CHTO   C38 1534   7.654   6.118  -0.018 -0.3056 -0.1667 -0.5055
    4CHTO   H80 1535   7.676   6.157   0.083 -0.4845  1.1251 -0.9637
    4CHTO   O31 1536   7.701   6.220  -0.108  0.2951  0.0460  0.5956
    4CHTO   H68 1537   7.793   6.233  -0.101  0.7101 -1.4669 -1.7303
    4CHTO   C39 1538   7.725   5.978  -0.019  1.2769 -0.9268  0.1327
    4CHTO   H81 1539   7.703   5.945  -0.120  2.3692 -2.6311  0.4416
    4CHTO    N7 1540   7.876   5.986   0.009 -0.2453 -0.4055  0.1455
    4CHTO   H73 1541   7.894   6.035   0.103  0.5438 -1.8174  0.7506
    4CHTO   H74 1542   7.937   6.027  -0.070 -2.2041  3.4420  0.5043
    4CHTO   C40 1543   7.644   5.870   0.068  0.2883  0.0749  0.6150
    4CHTO   H82 1544   7.657   5.889   0.174 -1.7643  1.6264  0.6139
    4CHTO   O26 1545   7.502   5.872   0.033  0.4578  0.1981  0.3190
    4CHTO   C41 1546   7.442   5.996   0.062 -0.2329 -0.5966  0.2540
    4CHTO   H83 1547   7.461   6.012   0.169  1.0534 -3.1933  0.4644
    4CHTO   C52 1548   7.296   5.974   0.041  0.2266 -0.0972  0.9645
    4CHTO   O35 1549   7.247   5.882   0.145  0.4659  0.5217 -0.0075
    4CHTO   H71 1550   7.305   5.812   0.164  2.3448  1.8789 -0.6148
    4CHTO   O28 1551   7.682   5.737   0.035 -0.0692 -0.2177 -0.1344
    4CHTO   C42 1552   7.739   5.637   0.126 -0.0651 -1.2608  0.4122
    4CHTO   H84 1553   7.783   5.695   0.206 -0.0094 -0.4121 -0.2219
    4CHTO   C44 1554   7.844   5.551   0.058  0.1348 -0.6388 -0.0002
    4CHTO   H86 1555   7.801   5.509  -0.033 -0.1708  1.3507 -0.8092
    4CHTO   O32 1556   7.952   5.632   0.020  0.1320  0.0360 -0.1043
    4CHTO   H69 1557   7.951   5.650  -0.072  2.8759 -0.0617 -0.1674
    4CHTO   C48 1558   7.903   5.425   0.140 -0.4824 -0.4238  0.4547
    4CHTO   H90 1559   7.969   5.466   0.216  1.4870 -0.8770 -0.9875
    4CHTO    N9 1560   7.976   5.331   0.053  0.5046 -0.0865  0.1556
    4CHTO   H77 1561   8.080   5.359   0.054  0.1183  1.4156 -0.0326
    4CHTO   H78 1562   7.944   5.327  -0.050 -0.2935  2.3997  0.2726
    4CHTO   C51 1563   7.783   5.359   0.226 -0.5806  1.1470 -0.3142
    4CHTO   H93 1564   7.731   5.295   0.155  3.5502 -0.4264 -2.1037
    4CHTO   O30 1565   7.702   5.460   0.283  0.1532  0.3109 -0.3485
    4CHTO   C46 1566   7.632   5.538   0.190 -0.2476 -0.2275 -0.5452
    4CHTO   H88 1567   7.597   5.478   0.106 -0.1620 -0.6894 -0.2530
    4CHTO   C53 1568   7.507   5.605   0.258  0.3051 -0.4221 -0.3161
    4CHTO   O72 1569   7.552   5.706   0.348  0.3749  0.0048 -0.2166
    4CHTO  H199 1570   7.479   5.728   0.403  0.2335 -0.8176 -0.0671
    4CHTO   O22 1571   7.837   5.269   0.329  0.2048 -0.3031 -0.1864
    4CHTO   C31 1572   7.849   5.300   0.470 -0.3707 -0.6583 -0.4289
    4CHTO   H59 1573   7.833   5.410   0.480 -1.4654 -0.8939  0.6012
    4CHTO   C29 1574   7.737   5.235   0.558  0.5587  0.2101  0.0564
    4CHTO   H57 1575   7.726   5.126   0.552  1.2432  0.2205 -1.4000
    4CHTO   O21 1576   7.609   5.284   0.510  0.2153 -0.0968 -0.2604
    4CHTO   H37 1577   7.542   5.227   0.544 -0.3861  0.6869 -0.1433
    4CHTO   C27 1578   7.754   5.273   0.709  0.0030 -0.1586 -0.1403
    4CHTO   H55 1579   7.737   5.381   0.721 -0.3987 -0.2809  0.4270
    4CHTO    N5 1580   7.651   5.199   0.793 -0.6865 -0.3679 -0.3957
    4CHTO   H43 1581   7.609   5.263   0.869 -3.3418 -1.5359 -0.8328
    4CHTO   H44 1582   7.571   5.177   0.724 -0.9132 -2.6411  0.5360
    4CHTO   C25 1583   7.905   5.257   0.759  0.1011  0.4376 -0.1279
    4CHTO   H53 1584   7.929   5.150   0.767 -1.5428  0.2224  2.5382
    4CHTO   O17 1585   7.990   5.326   0.667  0.3827  0.1069 -0.1777
    4CHTO   C32 1586   7.986   5.268   0.531  0.5334  0.2079 -0.0607
    4CHTO   H60 1587   7.994   5.160   0.539  0.0726  0.1613 -0.2212
    4CHTO   C36 1588   8.111   5.317   0.454 -0.0011 -0.3784 -0.5492
    4CHTO   O25 1589   8.113   5.465   0.446 -0.1146  0.2430 -0.1806
    4CHTO   H40 1590   8.158   5.500   0.521  0.9042  0.9700 -1.1268
    4CHTO   O15 1591   7.920   5.326   0.903 -0.0645  0.0662  0.0438
    4CHTO   C19 1592   7.870   5.436   0.989  0.1250 -0.0375  0.2694
    4CHTO   H47 1593   7.762   5.429   0.970  0.3172 -2.7621  0.0744
    4CHTO   C20 1594   7.892   5.406   1.133 -0.3044  0.2426 -0.0669
    4CHTO   H48 1595   7.999   5.394   1.157 -0.2727  1.0123  0.2029
    4CHTO   O19 1596   7.844   5.271   1.164  0.0561 -0.4670  0.3953
    4CHTO   H35 1597   7.884   5.216   1.099  0.3661  0.5712 -0.2997
    4CHTO   C21 1598   7.824   5.515   1.232 -0.5494 -0.3191 -0.3135
    4CHTO   H49 1599   7.715   5.512   1.220 -0.6450 -0.9678  0.6605
    4CHTO    N4 1600   7.857   5.489   1.378 -0.1950 -0.0179 -0.3114
    4CHTO   H41 1601   7.804   5.398   1.405 -0.3260  0.7440  2.0960
    4CHTO   H42 1602   7.961   5.476   1.403 -0.6786 -1.6082  0.9600
    4CHTO   C22 1603   7.870   5.660   1.195  0.7362 -0.0647  0.3650
    4CHTO   H50 1604   7.978   5.667   1.212  1.0652 -1.7875 -0.9037
    4CHTO   O14 1605   7.843   5.672   1.054  0.0738 -0.1261 -0.0998
    4CHTO   C23 1606   7.915   5.591   0.963 -0.3378  0.1894  0.8038
    4CHTO   H51 1607   8.020   5.608   0.989 -0.0838  0.8509 -0.6363
    4CHTO   C34 1608   7.897   5.632   0.815 -0.3719 -0.2328  0.1466
    4CHTO   O23 1609   7.944   5.762   0.787  0.0705  0.1302  0.2166
    4CHTO   H38 1610   7.873   5.819   0.810 -0.2208 -0.3509  0.4989
    4CHTO   O16 1611   7.797   5.764   1.266 -0.6317 -0.3844  0.1091
    4CHTO   C24 1612   7.781   5.904   1.200 -0.3027  0.5076  0.6393
    4CHTO   H52 1613   7.765   5.894   1.093  0.0824  0.4461  0.5864
    4CHTO   C26 1614   7.909   5.985   1.220 -1.2842  0.8506  0.0373
    4CHTO   H54 1615   7.945   5.978   1.325  1.1802 -0.8292 -0.8604
    4CHTO   O20 1616   8.006   5.927   1.125  0.0428 -0.1000 -0.0846
    4CHTO   H36 1617   8.052   5.858   1.169  0.7408  1.3856  1.5979
    4CHTO   C30 1618   7.897   6.137   1.185  0.2509 -0.3028 -0.3488
    4CHTO   H58 1619   7.894   6.154   1.076  0.8473  0.8835 -0.1883
    4CHTO    N6 1620   8.018   6.219   1.231  0.5498  0.2399 -0.6180
    4CHTO   H45 1621   8.046   6.215   1.335  0.0708  0.3032 -0.4844
    4CHTO   H46 1622   8.103   6.208   1.166  3.0499  1.5498  2.3020
    4CHTO   C33 1623   7.763   6.193   1.240 -0.8650 -0.3219 -0.3893
    4CHTO   H61 1624   7.762   6.198   1.349  2.4266 -2.0125 -0.2182
    4CHTO   O18 1625   7.656   6.113   1.202 -0.2078  0.1511  0.0904
    4CHTO   C28 1626   7.653   5.978   1.256  0.6658  0.1829 -0.7797
    4CHTO   H56 1627   7.660   5.990   1.364  0.7833  1.1009 -0.8829
    4CHTO   C35 1628   7.512   5.911   1.234 -0.1825 -0.9741 -0.5170
    4CHTO   O24 1629   7.457   5.895   1.105  0.8097 -0.5053 -0.1335
    4CHTO   H39 1630   7.396   5.825   1.115 -0.4292  0.3522 -1.6063
    4CHTO    O9 1631   7.744   6.326   1.195 -0.3434  0.0711  0.7008
    4CHTO   C13 1632   7.594   6.387   1.239  0.4269  0.2997  0.1355
    4CHTO   H26 1633   7.515   6.315   1.209 -0.3569  0.4489  1.7950
    4CHTO   C11 1634   7.575   6.521   1.161  0.0484 -0.6145  0.0729
    4CHTO   H24 1635   7.569   6.498   1.054  0.9473  1.2133 -0.3991
    4CHTO    O8 1636   7.681   6.621   1.176  0.6156  0.5770  0.2241
    4CHTO    H3 1637   7.667   6.705   1.137 -2.2050 -0.2784 -0.7105
    4CHTO    C9 1638   7.435   6.578   1.209  0.4734 -0.1083  0.6143
    4CHTO   H22 1639   7.363   6.497   1.190 -0.1117  0.8761 -1.4998
    4CHTO    N2 1640   7.387   6.691   1.120  0.0282  0.8616 -0.3048
    4CHTO   H10 1641   7.294   6.732   1.157 -0.0788  0.5612 -0.2299
    4CHTO   H11 1642   7.374   6.664   1.016  1.2924  0.7237 -0.4304
    4CHTO    C7 1643   7.448   6.617   1.365 -0.1288 -0.2028 -0.1535
    4CHTO   H20 1644   7.353   6.658   1.405  0.7117  0.5633  1.0871
    4CHTO    O4 1645   7.472   6.496   1.434  0.0297  0.0569 -0.1898
    4CHTO   C14 1646   7.582   6.406   1.398 -0.1096  0.4720 -0.1706
    4CHTO   H27 1647   7.564   6.305   1.441 -2.8158  1.4540  1.0922
    4CHTO   C18 1648   7.705   6.456   1.464 -0.2837 -0.2573 -0.6703
    4CHTO   O13 1649   7.691   6.452   1.608  0.1637 -0.1954  0.5088
    4CHTO    H7 1650   7.643   6.528   1.635  0.5681 -0.2522  1.4176
    4CHTO    O2 1651   7.578   6.724   1.400 -0.1032 -0.2595  0.4599
    4CHTO    C1 1652   7.528   6.849   1.458 -0.1926 -0.2312 -0.1180
    4CHTO   H14 1653   7.419   6.856   1.437  0.0998  1.5617 -1.0947
    4CHTO    C2 1654   7.601   6.980   1.400  0.3652 -0.2712 -0.3913
    4CHTO   H15 1655   7.710   6.973   1.411  0.4113  0.8823 -0.0786
    4CHTO    O6 1656   7.569   6.980   1.257 -0.1924 -0.5150 -0.3668
    4CHTO    H1 1657   7.647   6.976   1.206 -0.5385 -0.5217 -0.9056
    4CHTO    C3 1658   7.548   7.118   1.471  0.1102  0.7351 -0.2436
    4CHTO   H16 1659   7.443   7.138   1.443  0.4212  1.9431 -0.5518
    4CHTO    N1 1660   7.629   7.234   1.420  0.2254 -0.0786  0.1037
    4CHTO    H8 1661   7.681   7.210   1.329 -1.2737 -1.2065 -0.4726
    4CHTO    H9 1662   7.560   7.315   1.399 -0.4839 -0.1987  1.8624
    4CHTO    C4 1663   7.550   7.101   1.631 -0.2935 -0.1903  0.3947
    4CHTO   H17 1664   7.655   7.105   1.659 -0.1571 -0.9498  0.0284
    4CHTO    O1 1665   7.497   6.975   1.667  0.5264  1.1128  0.2173
    4CHTO    C5 1666   7.562   6.863   1.604 -0.2562  0.2735 -0.5368
    4CHTO   H18 1667   7.668   6.885   1.620 -0.3960  0.3984  0.2318
    4CHTO   C16 1668   7.521   6.737   1.687  0.1786 -0.1733 -0.2123
    4CHTO   O11 1669   7.383   6.699   1.675  0.1660 -0.2388  0.6906
    4CHTO    H5 1670   7.329   6.775   1.688 -0.4384 -0.3588 -0.9201
    4CHTO    O3 1671   7.474   7.205   1.692 -0.1702  0.8412  0.1894
    4CHTO    C6 1672   7.529   7.259   1.816  0.2132  0.4857  0.2660
    4CHTO   H19 1673   7.623   7.217   1.853  0.2656  0.8261  0.5247
    4CHTO    C8 1674   7.553   7.417   1.798 -0.4710 -0.7069 -0.2778
    4CHTO   H21 1675   7.470   7.461   1.742 -0.2503 -0.8737 -0.7462
    4CHTO    O7 1676   7.667   7.438   1.709 -0.4120 -1.0734  0.8241
    4CHTO    H2 1677   7.744   7.420   1.759 -1.7989 -1.9403  2.6688
    4CHTO   C12 1678   7.569   7.494   1.941  0.6285 -0.2093  0.7614
    4CHTO   H25 1679   7.671   7.458   1.970  0.0839 -0.4616  2.4378
    4CHTO    N3 1680   7.586   7.647   1.932 -0.1722 -0.5591  0.2034
    4CHTO   H12 1681   7.483   7.681   1.924 -0.3648 -1.4945 -1.6380
    4CHTO   H13 1682   7.627   7.680   2.026  0.1842 -1.7574  0.4766
    4CHTO   C15 1683   7.469   7.444   2.048 -0.3370 -0.2885  0.4606
    4CHTO   H28 1684   7.369   7.475   2.021 -1.1095 -1.8087  1.5251
    4CHTO   O10 1685   7.513   7.482   2.194  0.2291 -0.0154  0.0323
    4CHTO    H4 1686   7.462   7.439   2.260  0.2975  0.5437  0.4488
    4CHTO    O5 1687   7.479   7.300   2.051  0.0715 -0.5738  0.3160
    4CHTO   C10 1688   7.427   7.240   1.927  0.3058  0.5426 -0.0831
    4CHTO   H23 1689   7.332   7.281   1.894 -0.4859 -0.0861  1.3435
    4CHTO   C17 1690   7.400   7.094   1.959 -0.1218  0.5198 -0.7057
    4CHTO   O12 1691   7.517   7.022   1.990 -0.2374  0.4280  0.2501
    4CHTO    H6 1692   7.527   7.028   2.083 -1.7197  1.1557  0.3869
    5CHTO  H203 1693   7.873   3.447   0.533 -0.2485  2.4700 -1.3184
    5CHTO   O82 1694   7.833   3.484   0.609 -0.2577  0.1655 -0.1394
    5CHTO  C123 1695   7.848   3.409   0.733  0.2258 -0.1846 -0.3742
    5CHTO  H227 1696   7.956   3.397   0.751 -0.1477 -0.1367  2.0333
    5CHTO   O77 1697   7.784   3.496   0.833  0.5928  0.0301 -0.1344
    5CHTO  C118 1698   7.828   3.463   0.962  0.2544  0.1112  0.2472
    5CHTO  H222 1699   7.938   3.471   0.965  0.2426  1.9887 -2.7259
    5CHTO  C125 1700   7.773   3.574   1.051  0.1948  0.0851  0.6173
    5CHTO   O84 1701   7.844   3.691   1.018  0.2277  0.0840  0.2237
    5CHTO  H205 1702   7.908   3.712   1.084 -0.4382 -0.6808  1.1264
    5CHTO  C114 1703   7.771   3.325   0.998 -0.2709  0.8224  0.0159
    5CHTO  H218 1704   7.662   3.334   1.002 -0.3528 -0.1368  0.1525
    5CHTO  C116 1705   7.799   3.215   0.897 -0.1856  0.5632  0.0532
    5CHTO  H220 1706   7.896   3.169   0.924 -0.6401 -1.3492 -1.4114
    5CHTO   O79 1707   7.696   3.115   0.925 -0.4295  0.4931  0.0671
    5CHTO  H201 1708   7.696   3.045   0.864  0.1467  1.0624 -0.6003
    5CHTO  C120 1709   7.782   3.267   0.747  0.7268  0.4397 -0.0502
    5CHTO  H224 1710   7.671   3.277   0.741  0.9657  2.4762 -1.2688
    5CHTO   N21 1711   7.826   3.170   0.650 -0.0420  0.3442 -0.2340
    5CHTO  H211 1712   7.906   3.106   0.682 -1.4848 -0.3986  1.9490
    5CHTO  H212 1713   7.851   3.228   0.562  2.0624  1.4668  1.0792
    5CHTO   O75 1714   7.823   3.297   1.133 -0.0549 -0.0206 -0.0412
    5CHTO  C112 1715   7.717   3.241   1.242  0.2379  0.1810  0.0235
    5CHTO  H216 1716   7.632   3.212   1.178  0.3413  0.7335 -0.3644
    5CHTO   O73 1717   7.679   3.345   1.331  0.7301  0.4246  0.3933
    5CHTO  C113 1718   7.582   3.320   1.433 -0.2906  0.3337  0.1580
    5CHTO  H217 1719   7.485   3.288   1.389  1.5183 -3.5176 -1.2829
    5CHTO  C124 1720   7.555   3.450   1.515  0.3306 -0.0072 -0.3643
    5CHTO   O83 1721   7.516   3.550   1.421 -0.2997  0.1627 -0.1615
    5CHTO  H204 1722   7.516   3.633   1.466 -0.5326 -0.1733  0.4691
    5CHTO  C109 1723   7.625   3.202   1.526 -0.1690  0.5270  0.3996
    5CHTO  H213 1724   7.713   3.238   1.581 -0.6690  0.0736  1.5225
    5CHTO  C110 1725   7.664   3.077   1.436 -0.0096 -0.3669  0.6247
    5CHTO  H214 1726   7.572   3.045   1.387 -0.0765  2.7721 -1.4461
    5CHTO   O78 1727   7.717   2.983   1.534  0.0857 -0.2442 -0.4434
    5CHTO  H200 1728   7.652   2.934   1.580  0.1861 -1.4330 -1.5301
    5CHTO  C111 1729   7.766   3.115   1.328  0.0634 -0.7881  0.9557
    5CHTO  H215 1730   7.855   3.151   1.381 -0.2478  1.2313  0.1377
    5CHTO   N19 1731   7.807   3.002   1.239  0.2397 -0.6690  0.6857
    5CHTO  H207 1732   7.884   3.036   1.172 -0.4132 -0.9678 -0.2312
    5CHTO  H208 1733   7.721   2.974   1.180 -0.6977 -0.6039  1.9957
    5CHTO   O74 1734   7.515   3.182   1.624 -0.1933  0.5042  0.3934
    5CHTO  C115 1735   7.525   3.115   1.773  0.0860 -0.1029  0.1539
    5CHTO  H219 1736   7.609   3.046   1.776 -0.0082 -0.1330  2.5372
    5CHTO   O76 1737   7.550   3.222   1.885 -0.1196  0.0968 -0.0815
    5CHTO  C122 1738   7.449   3.330   1.890 -0.3423 -0.5591  0.6987
    5CHTO  H226 1739   7.474   3.410   1.820 -1.5692 -0.1533  0.7217
    5CHTO  C126 1740   7.465   3.392   2.026 -0.4777 -0.0981  0.0581
    5CHTO   O85 1741   7.397   3.521   2.035 -0.8216  0.0221  0.1065
    5CHTO  H206 1742   7.439   3.580   2.095  2.6596 -2.5476  0.3663
    5CHTO  C121 1743   7.299   3.269   1.860  0.4456  0.9732 -0.1764
    5CHTO  H225 1744   7.235   3.317   1.937  0.2725 -2.2586  1.7904
    5CHTO   O81 1745   7.264   3.316   1.727  0.8286  0.4873  0.3521
    5CHTO  H202 1746   7.282   3.248   1.665 -0.4145 -0.6343  1.2018
    5CHTO  C119 1747   7.285   3.117   1.877 -0.9049  0.1106  0.1720
    5CHTO  H223 1748   7.313   3.103   1.981 -1.4699 -0.3621  0.2652
    5CHTO  C117 1749   7.393   3.035   1.794  0.1810 -0.3606 -0.1431
    5CHTO  H221 1750   7.367   3.008   1.692 -1.3551  1.3246 -0.2257
    5CHTO   N20 1751   7.420   2.906   1.869 -0.5168  0.1509  0.5623
    5CHTO  H209 1752   7.488   2.923   1.951  1.0508  0.0248 -0.6675
    5CHTO  H210 1753   7.339   2.836   1.885 -0.4975  0.0314  0.1562
    5CHTO   O80 1754   7.152   3.064   1.878 -0.1982 -0.1456  0.0876
    5CHTO  C103 1755   7.053   3.094   1.766 -0.1951  0.8663 -0.0490
    5CHTO  H190 1756   7.070   3.184   1.707 -0.1480  0.9038  0.0220
    5CHTO  C101 1757   7.036   2.969   1.674 -0.9824 -0.1573  0.8493
    5CHTO  H188 1758   7.017   2.880   1.734  0.0173 -0.7763  0.2644
    5CHTO   O68 1759   7.172   2.946   1.598 -0.6545  0.0187 -0.0763
    5CHTO  H168 1760   7.198   3.027   1.558  2.0641 -0.7792 -0.0450
    5CHTO   C99 1761   6.909   2.990   1.585  0.0165  0.5126 -0.8100
    5CHTO  H186 1762   6.922   3.080   1.521 -0.1485  0.1495 -1.3556
    5CHTO   N17 1763   6.891   2.891   1.475 -0.0435 -0.1440 -0.0798
    5CHTO  H174 1764   6.977   2.888   1.409  1.8283 -0.6189  2.3099
    5CHTO  H175 1765   6.794   2.906   1.429 -0.1795 -0.3545  0.1350
    5CHTO   C97 1766   6.785   3.015   1.678  0.0202  0.5699 -0.3861
    5CHTO  H184 1767   6.771   2.925   1.739 -0.9911  0.8626 -0.1733
    5CHTO   O64 1768   6.804   3.137   1.756  0.0183 -0.0166  0.1735
    5CHTO  C104 1769   6.919   3.129   1.841 -0.1927  0.4008 -0.5035
    5CHTO  H191 1770   6.915   3.057   1.923 -1.4987 -0.1029 -0.9981
    5CHTO  C108 1771   6.931   3.268   1.904 -0.1012 -0.5854 -0.1860
    5CHTO   O71 1772   6.818   3.319   1.974  0.0694 -0.2336 -0.5346
    5CHTO  H171 1773   6.793   3.274   2.052 -0.1109 -0.3952 -0.6868
    5CHTO   O62 1774   6.670   3.054   1.597 -0.4638 -0.3286  0.2376
    5CHTO   C91 1775   6.542   3.009   1.651  0.0423  0.4292  0.2284
    5CHTO  H178 1776   6.557   2.993   1.758  1.9025 -1.0642 -0.2063
    5CHTO   C92 1777   6.497   2.868   1.597 -0.9862 -0.6862 -0.2184
    5CHTO  H179 1778   6.507   2.874   1.487  3.7489  1.8000  0.2171
    5CHTO   O66 1779   6.595   2.772   1.649 -0.0021  0.2997 -0.3587
    5CHTO  H166 1780   6.677   2.785   1.606  0.8683  0.3846  1.2652
    5CHTO   C93 1781   6.347   2.841   1.639 -0.2676 -0.0153 -0.0010
    5CHTO  H180 1782   6.338   2.817   1.746  0.7307  0.9679  0.3143
    5CHTO   N16 1783   6.297   2.713   1.574 -0.3892  0.1602  0.0701
    5CHTO  H172 1784   6.373   2.636   1.576 -0.6328 -0.1454 -1.4082
    5CHTO  H173 1785   6.256   2.723   1.474  1.0372  0.3614 -0.5040
    5CHTO   C94 1786   6.252   2.962   1.607 -0.2137  0.2774 -0.1234
    5CHTO  H181 1787   6.261   2.994   1.503  2.9107  0.3849  0.1286
    5CHTO   O61 1788   6.297   3.067   1.696 -0.2759  0.1622  0.5773
    5CHTO   C95 1789   6.421   3.118   1.642  0.5237 -0.4405 -0.0250
    5CHTO  H182 1790   6.402   3.160   1.543  0.7442  1.1187  0.5764
    5CHTO  C106 1791   6.451   3.250   1.729 -0.3591 -0.6542  0.3874
    5CHTO   O69 1792   6.430   3.235   1.868  0.7757  0.0242 -0.8351
    5CHTO  H169 1793   6.508   3.216   1.917  1.6612  0.2990 -2.1156
    5CHTO   O63 1794   6.103   2.951   1.651 -0.4184  0.5081 -0.2770
    5CHTO   C96 1795   6.008   2.915   1.531  0.2503  0.1537 -0.0093
    5CHTO  H183 1796   6.069   2.858   1.462  2.3974 -0.4973  2.3599
    5CHTO   C98 1797   5.957   3.036   1.452  0.4257 -0.9511  0.2051
    5CHTO  H185 1798   5.897   3.103   1.516  0.3014 -1.5206  0.6851
    5CHTO   O67 1799   6.063   3.119   1.401  0.0500 -0.1385  0.0989
    5CHTO  H167 1800   6.032   3.205   1.377 -1.0551 -0.2567  1.0806
    5CHTO  C102 1801   5.851   2.984   1.335 -0.2508 -0.1635 -0.7633
    5CHTO  H189 1802   5.911   2.920   1.268 -2.8239 -2.4801 -0.9520
    5CHTO   N18 1803   5.786   3.088   1.253  0.0404  0.0195 -0.1909
    5CHTO  H176 1804   5.726   3.145   1.322  0.7721  1.1920 -0.5177
    5CHTO  H177 1805   5.860   3.150   1.205 -1.8712  2.0756 -0.5938
    5CHTO  C105 1806   5.746   2.884   1.387 -0.1568 -0.3287 -0.2439
    5CHTO  H192 1807   5.668   2.938   1.441 -0.1663 -1.0545  0.4670
    5CHTO   O65 1808   5.810   2.782   1.467  0.1797  0.4560  0.0393
    5CHTO  C100 1809   5.888   2.834   1.576  0.1381  0.2838 -0.1019
    5CHTO  H187 1810   5.821   2.893   1.640  0.1786 -1.6128  1.7424
    5CHTO  C107 1811   5.934   2.710   1.655 -0.3187 -0.0007 -0.6936
    5CHTO   O70 1812   5.977   2.749   1.788 -0.0475 -0.3884 -0.0877
    5CHTO  H170 1813   6.056   2.799   1.793 -0.9502  0.8910  1.6430
    5CHTO   O57 1814   5.691   2.815   1.257  0.2491 -0.1487 -0.2099
    5CHTO   C85 1815   5.565   2.738   1.255  0.2058 -0.1110 -0.1664
    5CHTO  H157 1816   5.496   2.802   1.313  0.2826 -0.6059  0.4730
    5CHTO   C83 1817   5.581   2.602   1.330  0.5850 -0.1114 -0.1370
    5CHTO  H155 1818   5.591   2.615   1.438 -0.5218 -2.2439  0.2621
    5CHTO   O56 1819   5.702   2.549   1.292 -0.5039 -0.3653  0.0414
    5CHTO  H135 1820   5.706   2.456   1.303 -0.6735 -0.6352 -1.9341
    5CHTO   C81 1821   5.458   2.508   1.308 -0.4531  0.2559 -0.0770
    5CHTO  H153 1822   5.368   2.554   1.349 -0.4519 -0.6788  1.0143
    5CHTO   N14 1823   5.463   2.380   1.383 -0.4389 -0.0960  0.2841
    5CHTO  H141 1824   5.380   2.321   1.349 -0.4879 -0.7898  1.5655
    5CHTO  H142 1825   5.552   2.329   1.352  0.3138  0.6193  1.2759
    5CHTO   C79 1826   5.441   2.486   1.158 -0.0214 -0.1168  0.0924
    5CHTO  H151 1827   5.346   2.433   1.149 -1.8183  2.6062  2.2029
    5CHTO   O52 1828   5.417   2.614   1.093  0.4701  0.2853  0.2319
    5CHTO   C86 1829   5.514   2.721   1.107  0.3027 -0.8610  0.0781
    5CHTO  H158 1830   5.601   2.695   1.043 -0.8761 -0.3005 -1.7831
    5CHTO   C90 1831   5.450   2.837   1.039  0.1325  0.1390 -0.5167
    5CHTO   O60 1832   5.538   2.955   1.043  0.4685  0.0525  0.1546
    5CHTO  H138 1833   5.506   3.024   0.988 -0.0080 -1.4309 -1.4568
    5CHTO   O50 1834   5.549   2.425   1.086 -0.2189 -0.3197  0.6615
    5CHTO   C73 1835   5.589   2.346   0.975 -0.0538  0.1292 -1.1107
    5CHTO  H145 1836   5.516   2.363   0.895 -1.9177 -3.5423 -0.3235
    5CHTO   C74 1837   5.582   2.191   1.018  0.1386  0.5617  0.1550
    5CHTO  H146 1838   5.482   2.156   1.047 -0.0636  0.1808 -0.9769
    5CHTO   O54 1839   5.602   2.119   0.897  0.0278 -0.3871 -0.2150
    5CHTO  H133 1840   5.695   2.106   0.894 -0.0888 -2.1419  2.0877
    5CHTO   C75 1841   5.694   2.153   1.123  0.1135  0.2596  0.0181
    5CHTO  H147 1842   5.662   2.193   1.220 -0.7566 -0.6398  0.1038
    5CHTO   N13 1843   5.720   2.009   1.149 -0.3800  0.0126  0.1797
    5CHTO  H139 1844   5.823   1.982   1.135 -0.7664 -0.4230 -2.0055
    5CHTO  H140 1845   5.711   1.992   1.255 -0.9779  0.1182  0.1514
    5CHTO   C76 1846   5.838   2.228   1.072  0.2172  0.3792 -0.0408
    5CHTO  H148 1847   5.877   2.168   0.990 -1.0937  0.3018 -0.6254
    5CHTO   O49 1848   5.819   2.368   1.033  0.2928  0.3914  0.3031
    5CHTO   C77 1849   5.731   2.382   0.923 -0.2671 -0.3797 -0.1603
    5CHTO  H149 1850   5.759   2.310   0.845  1.7111 -1.1866  1.2533
    5CHTO   C88 1851   5.748   2.520   0.867 -0.2770 -0.6527 -0.4514
    5CHTO   O58 1852   5.875   2.528   0.803  0.0848 -0.2605 -0.9236
    5CHTO  H136 1853   5.923   2.603   0.833  1.0572 -1.5041  0.6497
    5CHTO   O51 1854   5.934   2.232   1.201  0.6628 -0.0542  0.2838
    5CHTO   C78 1855   6.083   2.296   1.162 -0.3036  0.2050  0.2313
    5CHTO  H150 1856   6.082   2.370   1.080  1.9693 -1.3974 -1.3044
    5CHTO   C80 1857   6.182   2.187   1.117  0.6250  0.1331  0.3474
    5CHTO  H152 1858   6.181   2.106   1.193 -1.3209 -1.2924 -1.1411
    5CHTO   O55 1859   6.146   2.126   0.986  0.0435 -0.3887  0.2232
    5CHTO  H134 1860   6.202   2.053   0.971  1.9280  1.6767 -3.3253
    5CHTO   C84 1861   6.330   2.232   1.107 -0.6519  0.0052  0.0179
    5CHTO  H156 1862   6.332   2.298   1.021 -1.2516  0.0909  0.0668
    5CHTO   N15 1863   6.434   2.129   1.087 -0.3701 -0.6216  0.1117
    5CHTO  H143 1864   6.533   2.162   1.108 -1.4610  2.4720  0.6867
    5CHTO  H144 1865   6.416   2.034   1.133 -0.5680 -0.6496 -0.0230
    5CHTO   C87 1866   6.374   2.326   1.221 -0.4942  0.4974  0.4682
    5CHTO  H159 1867   6.392   2.270   1.313 -0.7240  0.5049  0.5199
    5CHTO   O53 1868   6.260   2.433   1.244 -0.4053  0.3863 -0.3116
    5CHTO   C82 1869   6.132   2.373   1.281 -0.3479  0.0043 -0.0558
    5CHTO  H154 1870   6.135   2.315   1.373  0.7566  1.0028  0.5487
    5CHTO   C89 1871   6.028   2.483   1.307 -0.0826  0.7194 -0.0222
    5CHTO   O59 1872   6.028   2.588   1.208  0.1862 -0.7418 -0.3895
    5CHTO  H137 1873   5.965   2.564   1.143 -1.2833  2.4553 -0.2144
    5CHTO   O45 1874   6.492   2.405   1.175  0.4738  0.8883  0.1246
    5CHTO   C67 1875   6.594   2.420   1.275  0.5318 -0.2299  0.1425
    5CHTO  H124 1876   6.554   2.422   1.376  1.3066  0.4508  0.4506
    5CHTO   C65 1877   6.706   2.304   1.263 -0.4324  0.3379  0.3983
    5CHTO  H122 1878   6.699   2.268   1.161  0.0503 -1.6137  1.0257
    5CHTO   O44 1879   6.657   2.199   1.352 -0.7383  0.2787 -0.6418
    5CHTO  H102 1880   6.632   2.230   1.437  0.9702 -1.8549  0.6851
    5CHTO   C63 1881   6.853   2.361   1.280 -0.2522 -0.0985 -0.0528
    5CHTO  H120 1882   6.880   2.406   1.185 -0.4440  0.1714  0.0210
    5CHTO   N11 1883   6.967   2.262   1.285  0.7973 -0.3566  0.2170
    5CHTO  H108 1884   6.931   2.163   1.305  2.0205 -0.7884  0.3187
    5CHTO  H109 1885   7.028   2.269   1.198  0.1711  0.6488 -0.1492
    5CHTO   C61 1886   6.855   2.466   1.393 -0.2936 -0.3946  0.3802
    5CHTO  H118 1887   6.960   2.498   1.385 -0.3929  0.2835  1.6222
    5CHTO   O40 1888   6.775   2.577   1.352  0.0563 -0.0389  0.1238
    5CHTO   C68 1889   6.668   2.561   1.256  0.1784 -0.4632 -0.3583
    5CHTO  H125 1890   6.713   2.566   1.154  0.0970  1.4885 -0.3150
    5CHTO   C72 1891   6.572   2.681   1.267 -0.2083 -0.5418  0.0371
    5CHTO   O48 1892   6.631   2.809   1.233 -0.6404 -0.3189  0.4683
    5CHTO  H105 1893   6.716   2.819   1.272 -0.4527 -1.5088  0.3763
    5CHTO   O38 1894   6.814   2.415   1.521 -0.5039  0.0956 -0.0256
    5CHTO   C55 1895   6.784   2.503   1.630  0.0864  0.1028  0.7638
    5CHTO  H112 1896   6.731   2.590   1.587  1.0214  0.0719 -0.5042
    5CHTO   C56 1897   6.914   2.543   1.712  0.5204 -0.3069  0.2486
    5CHTO  H113 1898   6.970   2.450   1.725  0.3934 -0.3464  0.5130
    5CHTO   O42 1899   6.991   2.637   1.625 -0.2421 -0.0704  0.0944
    5CHTO  H100 1900   6.996   2.601   1.539  0.0469 -0.6257  0.3354
    5CHTO   C57 1901   6.873   2.611   1.851 -0.5988  0.3882  0.0778
    5CHTO  H114 1902   6.836   2.707   1.816 -0.4820  0.0784 -0.8896
    5CHTO   N10 1903   6.992   2.619   1.945  0.4332  0.3767 -0.1767
    5CHTO  H106 1904   7.093   2.622   1.907  0.4050 -2.5338 -0.5547
    5CHTO  H107 1905   6.977   2.699   2.016  1.5170 -0.1020  0.6040
    5CHTO   C58 1906   6.758   2.539   1.924 -0.4095  0.4561 -0.6463
    5CHTO  H115 1907   6.794   2.438   1.953  1.1721  0.8001 -1.3460
    5CHTO   O37 1908   6.649   2.528   1.835  0.2957  0.1806 -0.3722
    5CHTO   C59 1909   6.680   2.435   1.727  0.8683  0.0493 -0.0220
    5CHTO  H116 1910   6.723   2.344   1.768 -1.3119 -0.0200  2.2118
    5CHTO   C70 1911   6.555   2.401   1.651 -0.0515 -0.1103  0.0233
    5CHTO   O46 1912   6.469   2.293   1.706  0.1540  0.7636  0.1122
    5CHTO  H103 1913   6.491   2.210   1.670 -0.8026  0.1138  0.9944
    5CHTO   O39 1914   6.692   2.607   2.070  0.1675 -0.0917  0.3514
    5CHTO   C60 1915   6.586   2.700   2.058  0.2271 -0.2271 -0.1272
    5CHTO  H117 1916   6.570   2.722   1.953  0.5917 -0.6999 -0.2792
    5CHTO   C62 1917   6.451   2.634   2.106 -0.2329  0.1425 -0.3614
    5CHTO  H119 1918   6.433   2.541   2.048  1.2125 -0.1357 -0.3661
    5CHTO   O43 1919   6.466   2.576   2.236 -0.1528 -0.0224  0.5347
    5CHTO  H101 1920   6.542   2.521   2.241 -0.3254 -0.1589  1.6294
    5CHTO   C66 1921   6.324   2.741   2.076 -0.4378 -0.0719 -1.0136
    5CHTO  H123 1922   6.333   2.764   1.969  0.8530  2.2013 -0.4380
    5CHTO   N12 1923   6.195   2.671   2.093  0.2854  0.1958  0.3996
    5CHTO  H110 1924   6.117   2.740   2.119 -0.8479 -1.5612  1.8113
    5CHTO  H111 1925   6.174   2.610   2.006  1.5062 -0.1480  0.3317
    5CHTO   C69 1926   6.352   2.864   2.167 -0.4574  0.6103 -0.2246
    5CHTO  H126 1927   6.368   2.831   2.271  0.3435  0.6421 -0.3320
    5CHTO   O41 1928   6.472   2.932   2.117 -0.1926 -0.1383 -0.4396
    5CHTO   C64 1929   6.600   2.837   2.129 -0.2084 -0.2480  0.0090
    5CHTO  H121 1930   6.622   2.826   2.237  3.2619  0.0215 -0.5855
    5CHTO   C71 1931   6.722   2.903   2.062 -0.6753 -0.2292  0.8073
    5CHTO   O47 1932   6.724   3.033   2.122  0.2141  0.7842  0.0896
    5CHTO  H104 1933   6.812   3.059   2.140  0.5466  1.4172 -2.2185
    5CHTO   O34 1934   6.240   2.970   2.175  0.2035  0.0240 -0.0652
    5CHTO   C49 1935   6.221   3.125   2.139 -0.0334  0.6875 -0.5974
    5CHTO   H91 1936   6.277   3.138   2.047 -0.3501 -2.2164 -1.2474
    5CHTO   C47 1937   6.291   3.214   2.243  0.1278 -0.4033  0.0991
    5CHTO   H89 1938   6.283   3.315   2.198 -1.2542 -1.0629 -1.1543
    5CHTO   O33 1939   6.433   3.185   2.250 -0.1356  0.2176 -0.3362
    5CHTO   H70 1940   6.473   3.208   2.168  0.1298  0.9567 -0.0043
    5CHTO   C45 1941   6.218   3.203   2.389  0.0985 -0.8374  0.0091
    5CHTO   H87 1942   6.216   3.104   2.438 -0.0635 -0.5459  0.6012
    5CHTO    N8 1943   6.285   3.295   2.484  0.1456 -0.4084 -0.5014
    5CHTO   H75 1944   6.213   3.333   2.556 -2.2319 -2.5945 -1.6484
    5CHTO   H76 1945   6.356   3.236   2.541 -0.8945 -0.9280  0.2864
    5CHTO   C43 1946   6.056   3.234   2.366  0.3956 -0.2546  0.6919
    5CHTO   H85 1947   6.013   3.200   2.460 -2.0750  0.7585 -0.0355
    5CHTO   O29 1948   5.994   3.167   2.249  0.0337 -0.0615  0.1992
    5CHTO   C50 1949   6.067   3.162   2.129  0.0733  0.3655 -0.7342
    5CHTO   H92 1950   6.020   3.079   2.073 -0.5357  0.6318 -0.6276
    5CHTO   C54 1951   6.037   3.280   2.034 -0.3219 -0.3927 -0.2636
    5CHTO   O36 1952   6.082   3.409   2.068 -0.1059 -0.1266  0.4933
    5CHTO   H72 1953   6.091   3.449   1.984 -0.4831  1.0687  1.0130
    5CHTO   O27 1954   6.026   3.378   2.359 -0.0713  0.0840 -0.2451
    5CHTO   C37 1955   5.911   3.458   2.384  0.9465 -0.0216 -0.2900
    5CHTO   H79 1956   5.884   3.537   2.313  1.7464  0.3716 -0.1535
    5CHTO   C38 1957   5.776   3.375   2.382  0.2542  0.7676  0.6114
    5CHTO   H80 1958   5.790   3.279   2.434 -1.2918  0.0001 -0.3508
    5CHTO   O31 1959   5.757   3.335   2.243 -0.3089 -0.4851 -0.1667
    5CHTO   H68 1960   5.762   3.405   2.181  0.6935  0.5044  1.0145
    5CHTO   C39 1961   5.663   3.453   2.447  0.7844 -0.1449 -0.4028
    5CHTO   H81 1962   5.635   3.523   2.368 -0.2948  0.7269  0.7297
    5CHTO    N7 1963   5.537   3.363   2.472 -0.1720  0.2369  0.4538
    5CHTO   H73 1964   5.570   3.261   2.482 -1.2607 -0.1328  0.3539
    5CHTO   H74 1965   5.478   3.373   2.382 -0.0206 -0.7381  0.2438
    5CHTO   C40 1966   5.701   3.541   2.581 -0.8135 -0.2029 -0.2273
    5CHTO   H82 1967   5.708   3.462   2.656  1.6770  0.2616  0.0885
    5CHTO   O26 1968   5.821   3.612   2.566  0.2736  0.0070  0.5901
    5CHTO   C41 1969   5.931   3.530   2.519  0.9283  0.4820 -0.2474
    5CHTO   H83 1970   5.964   3.467   2.602  0.1849  0.8501  0.3421
    5CHTO   C52 1971   6.043   3.638   2.508  0.4731 -0.0901  0.7505
    5CHTO   O35 1972   6.092   3.705   2.644  0.1456 -0.2466  0.2781
    5CHTO   H71 1973   6.148   3.778   2.627 -1.3489  0.8907  0.0529
    5CHTO   O28 1974   5.609   3.643   2.617 -0.1691 -0.1003 -0.2993
    5CHTO   C42 1975   5.584   3.717   2.742  0.3004 -0.2720  0.3674
    5CHTO   H84 1976   5.517   3.799   2.714  0.1156  0.1704  2.0850
    5CHTO   C44 1977   5.701   3.782   2.817 -0.7329  0.1009 -0.1931
    5CHTO   H86 1978   5.772   3.816   2.742 -2.4051  1.6965 -1.0930
    5CHTO   O32 1979   5.654   3.908   2.874 -0.3178  0.2045  0.8534
    5CHTO   H69 1980   5.633   3.968   2.806 -1.0173 -0.6655  0.2978
    5CHTO   C48 1981   5.772   3.701   2.939 -0.4441 -0.0866 -0.5121
    5CHTO   H90 1982   5.716   3.729   3.028 -2.8014 -0.0191 -1.9825
    5CHTO    N9 1983   5.911   3.747   2.965  0.3294 -0.3224 -0.8104
    5CHTO   H77 1984   5.961   3.686   3.039 -0.5617  1.2733  1.1379
    5CHTO   H78 1985   5.921   3.851   2.990  0.3624 -0.2964 -0.9356
    5CHTO   C51 1986   5.753   3.549   2.916 -0.1751  0.6628  0.7919
    5CHTO   H93 1987   5.798   3.532   2.819 -0.4031 -0.7736  0.9302
    5CHTO   O30 1988   5.613   3.516   2.917  0.5415 -1.0178 -0.6438
    5CHTO   C46 1989   5.501   3.620   2.832 -0.6775  0.1927  0.4164
    5CHTO   H88 1990   5.427   3.568   2.773  1.4417 -0.2613 -1.9318
    5CHTO   C53 1991   5.434   3.694   2.947 -0.2783  0.4756 -0.3003
    5CHTO   O72 1992   5.337   3.798   2.913  0.1397  0.5786  0.6990
    5CHTO  H199 1993   5.316   3.787   2.822 -2.2801  0.8632  1.1907
    5CHTO   O22 1994   5.818   3.470   3.018 -0.1153  0.8031 -0.2918
    5CHTO   C31 1995   5.849   3.335   2.984  0.1393  0.0624  1.2556
    5CHTO   H59 1996   5.897   3.288   3.071 -1.0651  0.2976  2.0605
    5CHTO   C29 1997   5.724   3.251   2.946  0.5989 -0.2532  0.3157
    5CHTO   H57 1998   5.673   3.305   2.865  1.0979  0.5312  0.5181
    5CHTO   O21 1999   5.626   3.255   3.049  0.1126 -0.5386 -0.1597
    5CHTO   H37 2000   5.652   3.196   3.118  3.7229  2.2152  0.9930
    5CHTO   C27 2001   5.760   3.103   2.900 -0.7559  0.2965 -0.4434
    5CHTO   H55 2002   5.802   3.053   2.988 -0.2830 -0.2556 -0.9808
    5CHTO    N5 2003   5.638   3.031   2.854  0.1805 -0.7315  0.3069
    5CHTO   H43 2004   5.553   3.097   2.845  0.1399 -0.7440  0.5918
    5CHTO   H44 2005   5.620   2.945   2.915 -2.1577  0.8063  1.8613
    5CHTO   C25 2006   5.871   3.109   2.792 -0.5408 -0.8201  0.5071
    5CHTO   H53 2007   5.830   3.176   2.714 -2.8425  0.5995  2.8563
    5CHTO   O17 2008   5.984   3.185   2.847 -0.2555  0.7080  0.1773
    5CHTO   C32 2009   5.947   3.322   2.868 -0.0887  0.5721 -0.3072
    5CHTO   H60 2010   5.911   3.369   2.776  2.3595 -0.6317 -1.9505
    5CHTO   C36 2011   6.087   3.398   2.896 -0.0644  0.4428  0.2686
    5CHTO   O25 2012   6.156   3.403   2.778  0.6823  0.0434 -0.2239
    5CHTO   H40 2013   6.246   3.398   2.801  1.0890 -1.6753 -2.0259
    5CHTO   O15 2014   5.926   2.962   2.751  0.4444 -0.1748  0.3400
    5CHTO   C19 2015   6.017   2.858   2.790 -0.6974  0.0627  0.5235
    5CHTO   H47 2016   6.048   2.895   2.889 -0.8998  0.4035  0.4611
    5CHTO   C20 2017   5.955   2.711   2.810 -0.0268 -0.4215 -0.4446
    5CHTO   H48 2018   5.910   2.669   2.719 -0.2776 -0.0807 -0.4803
    5CHTO   O19 2019   5.858   2.730   2.917 -0.1225 -0.0916  0.2745
    5CHTO   H35 2020   5.819   2.649   2.945  1.5757 -0.3455  1.9215
    5CHTO   C21 2021   6.071   2.611   2.857 -0.1933 -0.1574  0.5138
    5CHTO   H49 2022   6.106   2.646   2.954  0.9650 -1.2206  0.4909
    5CHTO    N4 2023   6.016   2.475   2.874  0.2957  0.6249 -0.4516
    5CHTO   H41 2024   5.931   2.474   2.941 -0.3017  0.1811 -1.2035
    5CHTO   H42 2025   5.983   2.435   2.779  0.2172  1.1949 -0.6699
    5CHTO   C22 2026   6.192   2.619   2.763  0.1132 -0.0991  1.0013
    5CHTO   H50 2027   6.171   2.598   2.658  2.5640 -0.2928  0.5052
    5CHTO   O14 2028   6.232   2.755   2.769  0.3073  0.2075 -0.2505
    5CHTO   C23 2029   6.141   2.850   2.700  0.3719  0.3329 -0.1952
    5CHTO   H51 2030   6.115   2.806   2.603  0.5661 -0.1480 -0.0327
    5CHTO   C34 2031   6.221   2.978   2.669  0.2848  0.2621  0.0012
    5CHTO   O23 2032   6.324   2.952   2.571 -0.8305 -0.3644 -0.0580
    5CHTO   H38 2033   6.368   3.032   2.549 -0.4335 -0.4770  0.3194
    5CHTO   O16 2034   6.314   2.556   2.804 -0.1664 -0.3518  0.1385
    5CHTO   C24 2035   6.393   2.462   2.700 -0.0585  0.4811 -0.0159
    5CHTO   H52 2036   6.335   2.447   2.609  1.7864 -0.2592 -1.1108
    5CHTO   C26 2037   6.411   2.331   2.774  0.0757 -0.3841  0.1337
    5CHTO   H54 2038   6.471   2.357   2.864  0.2571  1.7994 -0.5795
    5CHTO   O20 2039   6.284   2.282   2.805  0.1620 -0.1658  0.1888
    5CHTO   H36 2040   6.274   2.289   2.898  2.3003  2.5782  0.2496
    5CHTO   C30 2041   6.490   2.239   2.681 -0.4291  0.8610 -0.5950
    5CHTO   H58 2042   6.433   2.223   2.589 -1.2708  0.7044 -0.0528
    5CHTO    N6 2043   6.526   2.113   2.751 -0.5544  0.3769 -0.8329
    5CHTO   H45 2044   6.608   2.073   2.694  2.2608  3.2235  1.0948
    5CHTO   H46 2045   6.435   2.055   2.740 -0.9496  0.7058  0.5426
    5CHTO   C33 2046   6.624   2.309   2.644 -0.2857 -0.9937  0.6261
    5CHTO   H61 2047   6.684   2.332   2.734 -2.5786 -2.8115  2.7016
    5CHTO   O18 2048   6.595   2.427   2.576 -0.0391  0.1738 -0.2220
    5CHTO   C28 2049   6.533   2.519   2.662  0.5262 -0.5769  0.2066
    5CHTO   H56 2050   6.593   2.528   2.753  1.7176  0.4132 -0.6541
    5CHTO   C35 2051   6.529   2.654   2.586 -0.3701 -0.2317 -0.8590
    5CHTO   O24 2052   6.442   2.658   2.476 -0.0064  0.7278  0.0041
    5CHTO   H39 2053   6.378   2.725   2.487  2.5782  2.8391  3.1960
    5CHTO    O9 2054   6.706   2.222   2.560  0.4773  0.0622  0.1835
    5CHTO   C13 2055   6.669   2.211   2.400 -0.2235  0.5673 -0.3863
    5CHTO   H26 2056   6.558   2.214   2.405 -0.1601 -0.0959  2.7060
    5CHTO   C11 2057   6.733   2.074   2.337  0.3431  0.1023 -0.2700
    5CHTO   H24 2058   6.684   1.981   2.370 -0.0237  0.6458  0.7441
    5CHTO    O8 2059   6.872   2.061   2.380  0.3496  0.2332 -0.2796
    5CHTO    H3 2060   6.904   1.975   2.359 -1.1533 -0.6954  1.1264
    5CHTO    C9 2061   6.713   2.073   2.187 -0.2955 -0.5272 -0.4040
    5CHTO   H22 2062   6.605   2.084   2.168 -0.7082  0.7815  2.4315
    5CHTO    N2 2063   6.741   1.941   2.123  0.5275 -0.5780  0.7545
    5CHTO   H10 2064   6.694   1.862   2.181 -1.3708 -0.1336 -0.1218
    5CHTO   H11 2065   6.847   1.924   2.128  0.9220  0.2591 -3.1593
    5CHTO    C7 2066   6.784   2.199   2.126  0.4722 -0.0695  0.3550
    5CHTO   H20 2067   6.743   2.187   2.024  0.5073  0.7153  0.2516
    5CHTO    O4 2068   6.741   2.322   2.180 -0.1528 -0.2179  0.1358
    5CHTO   C14 2069   6.721   2.341   2.322  0.3023  0.9050 -0.0895
    5CHTO   H27 2070   6.652   2.427   2.338 -2.0005 -0.6332 -1.5447
    5CHTO   C18 2071   6.855   2.382   2.383 -0.4162  0.0885  0.5658
    5CHTO   O13 2072   6.877   2.514   2.348 -0.3744  0.4263  0.3729
    5CHTO    H7 2073   6.921   2.559   2.417  0.3592  0.1567  0.0784
    5CHTO    O2 2074   6.949   2.189   2.129  0.4949 -0.8502 -0.3340
    5CHTO    C1 2075   7.034   2.225   2.017  0.4198  0.3835 -0.7096
    5CHTO   H14 2076   6.991   2.318   1.973  1.5944  1.1716 -0.2162
    5CHTO    C2 2077   7.028   2.116   1.907  0.1947  0.6574  0.6597
    5CHTO   H15 2078   7.064   2.022   1.952 -0.5679  0.6078  1.1896
    5CHTO    O6 2079   6.895   2.098   1.863  0.3122 -0.8169  0.0455
    5CHTO    H1 2080   6.891   2.067   1.775  0.5811  1.8676 -0.9478
    5CHTO    C3 2081   7.127   2.148   1.790  0.4882 -0.1272  0.7470
    5CHTO   H16 2082   7.085   2.237   1.742  0.1342 -0.0174  1.2610
    5CHTO    N1 2083   7.139   2.043   1.685 -0.0528 -0.3602  0.0922
    5CHTO    H8 2084   7.080   2.057   1.595 -0.4458  1.4626  0.6295
    5CHTO    H9 2085   7.125   1.950   1.739 -0.1772  0.2566  1.1097
    5CHTO    C4 2086   7.268   2.195   1.843  0.1800 -0.4353 -0.2437
    5CHTO   H17 2087   7.321   2.109   1.882 -0.8089  0.0238  2.2370
    5CHTO    O1 2088   7.260   2.290   1.950  0.5384  0.1734  0.7283
    5CHTO    C5 2089   7.175   2.256   2.061  0.3809 -0.4032 -0.5288
    5CHTO   H18 2090   7.212   2.162   2.101  0.2036 -0.8082 -1.2894
    5CHTO   C16 2091   7.189   2.365   2.168  0.6560  0.0814 -0.0923
    5CHTO   O11 2092   7.328   2.372   2.206 -0.2139 -0.4165  0.3202
    5CHTO    H5 2093   7.344   2.439   2.269  0.6997  0.3621 -0.7221
    5CHTO    O3 2094   7.348   2.255   1.737 -0.6807  0.2562  0.2288
    5CHTO    C6 2095   7.498   2.259   1.759  0.1361 -0.6845  1.3246
    5CHTO   H19 2096   7.529   2.210   1.852  1.0088 -0.5615  1.1030
    5CHTO    C8 2097   7.568   2.182   1.646  0.1581 -0.5298 -0.2329
    5CHTO   H21 2098   7.538   2.233   1.554 -1.5682 -2.7738 -0.9700
    5CHTO    O7 2099   7.519   2.049   1.647  0.5298  0.0766  0.1306
    5CHTO    H2 2100   7.528   2.016   1.559 -2.8144  0.3420 -0.3644
    5CHTO   C12 2101   7.724   2.189   1.661  0.1766  0.1327  0.5154
    5CHTO   H25 2102   7.761   2.122   1.741  0.0561 -4.1281 -2.8068
    5CHTO    N3 2103   7.795   2.140   1.541 -0.5760  0.0479  0.5886
    5CHTO   H12 2104   7.902   2.150   1.534 -0.5168 -1.3606 -1.0429
    5CHTO   H13 2105   7.771   2.034   1.541  1.7629 -0.5002  1.4382
    5CHTO   C15 2106   7.775   2.340   1.687 -0.3611 -0.5654 -0.6226
    5CHTO   H28 2107   7.766   2.397   1.594 -2.1673 -0.2471 -0.2578
    5CHTO   O10 2108   7.922   2.348   1.736 -0.2958  0.1074  0.0120
    5CHTO    H4 2109   7.933   2.319   1.824 -1.3356  1.9719  0.8018
    5CHTO    O5 2110   7.692   2.395   1.787 -0.7261 -0.1177  0.1589
    5CHTO   C10 2111   7.552   2.406   1.755  0.0286  0.2693  0.4532
    5CHTO   H23 2112   7.542   2.458   1.660 -2.0804 -1.1316 -0.1288
    5CHTO   C17 2113   7.487   2.497   1.857 -0.1345 -0.2817 -0.5076
    5CHTO   O12 2114   7.367   2.555   1.801 -0.3875  0.8143  0.3610
    5CHTO    H6 2115   7.332   2.620   1.859 -0.0187  2.5780 -1.3540
    6CHTO  H203 2116   6.754   4.434   2.472 -1.1074  1.5681  0.8261
    6CHTO   O82 2117   6.800   4.410   2.550  0.4071 -0.0019 -0.4989
    6CHTO  C123 2118   6.790   4.520   2.648  0.4724 -0.1061  0.0448
    6CHTO  H227 2119   6.880   4.582   2.639  0.1613  0.2078 -1.0488
    6CHTO   O77 2120   6.662   4.584   2.609  0.3867 -0.1704 -0.2745
    6CHTO  C118 2121   6.637   4.704   2.686  0.0512 -0.2754  0.2699
    6CHTO  H222 2122   6.727   4.767   2.685 -1.7037  2.3259 -2.1989
    6CHTO  C125 2123   6.515   4.781   2.623  0.0372 -0.2715  0.1417
    6CHTO   O84 2124   6.546   4.813   2.488 -0.1006 -0.5839  0.5596
    6CHTO  H205 2125   6.523   4.737   2.438  0.0760 -0.5515  0.4284
    6CHTO  C114 2126   6.598   4.670   2.831 -0.4144  0.1261  0.3106
    6CHTO  H218 2127   6.502   4.618   2.824  0.5528 -1.5028 -1.1680
    6CHTO  C116 2128   6.713   4.584   2.886  0.3515 -0.1041 -0.5307
    6CHTO  H220 2129   6.794   4.648   2.926  0.1610 -0.1913  0.0075
    6CHTO   O79 2130   6.661   4.527   3.018 -0.2013 -0.3936  0.3511
    6CHTO  H201 2131   6.592   4.464   3.004  0.0166 -0.8929  1.5388
    6CHTO  C120 2132   6.765   4.471   2.795 -0.1020  0.3715 -0.2477
    6CHTO  H224 2133   6.688   4.393   2.808 -1.5642  1.9417  0.8568
    6CHTO   N21 2134   6.889   4.394   2.838 -0.7746  0.1928 -0.0939
    6CHTO  H211 2135   6.952   4.370   2.754 -1.8843  1.1171 -1.1995
    6CHTO  H212 2136   6.934   4.453   2.917 -1.9355  0.4662  0.3656
    6CHTO   O75 2137   6.586   4.797   2.894  0.3200 -0.0791  0.0722
    6CHTO  C112 2138   6.445   4.817   2.985 -0.4068 -0.0374  0.4487
    6CHTO  H216 2139   6.437   4.739   3.063 -1.0752  0.2634  0.6798
    6CHTO   O73 2140   6.332   4.819   2.897  0.3277  0.3776  0.1611
    6CHTO  C113 2141   6.207   4.823   2.969  0.4013 -0.6672 -0.0784
    6CHTO  H217 2142   6.195   4.730   3.028  0.6017  0.0339  1.0687
    6CHTO  C124 2143   6.105   4.807   2.857 -0.1607  0.2077  0.2540
    6CHTO   O83 2144   5.973   4.764   2.904 -0.7885  0.4280  0.1074
    6CHTO  H204 2145   5.908   4.792   2.843 -0.7338 -1.5314 -0.8903
    6CHTO  C109 2146   6.185   4.954   3.053 -0.3350 -0.5363 -0.1696
    6CHTO  H213 2147   6.168   5.034   2.979 -1.7503  1.3756  2.1303
    6CHTO  C110 2148   6.314   4.976   3.138  0.1552 -0.0562  0.2750
    6CHTO  H214 2149   6.315   4.906   3.222  1.0858  1.3381  1.4708
    6CHTO   O78 2150   6.300   5.111   3.184 -0.7471  0.1176 -0.1772
    6CHTO  H200 2151   6.360   5.170   3.143  0.8121 -1.0381  0.4116
    6CHTO  C111 2152   6.448   4.958   3.058  0.4801  0.1978  1.1045
    6CHTO  H215 2153   6.454   5.032   2.977  0.1217 -0.9971 -0.0261
    6CHTO   N19 2154   6.575   4.968   3.134 -0.3613  0.2718 -0.2538
    6CHTO  H207 2155   6.569   4.948   3.240 -0.5191 -0.3632 -0.3760
    6CHTO  H208 2156   6.623   5.063   3.118  0.7668 -0.0854  0.9886
    6CHTO   O74 2157   6.061   4.953   3.138 -0.3572  0.1475  0.1249
    6CHTO  C115 2158   6.036   5.014   3.294 -0.3072 -0.0632  0.4846
    6CHTO  H219 2159   6.128   5.020   3.352 -1.4023 -0.2857  2.2780
    6CHTO   O76 2160   5.974   5.155   3.296 -0.2583  0.0699 -0.0727
    6CHTO  C122 2161   5.853   5.147   3.218  0.4320 -0.1539  0.8049
    6CHTO  H226 2162   5.877   5.130   3.113  1.6781  1.3832  0.8278
    6CHTO  C126 2163   5.806   5.301   3.222 -0.3409 -1.0367 -0.5189
    6CHTO   O85 2164   5.784   5.341   3.360 -0.0927  0.3313  0.1633
    6CHTO  H206 2165   5.861   5.382   3.394  1.2827 -0.8704 -1.3999
    6CHTO  C121 2166   5.746   5.050   3.266  0.2992 -0.8375  0.8880
    6CHTO  H225 2167   5.661   5.105   3.311  1.1934  0.9843  0.3855
    6CHTO   O81 2168   5.696   4.972   3.158  0.9227  0.0563 -0.0864
    6CHTO  H202 2169   5.762   4.924   3.111  0.2131 -1.1835  0.1974
    6CHTO  C119 2170   5.803   4.966   3.386  0.7915  0.0931  0.6026
    6CHTO  H223 2171   5.817   5.031   3.472  0.6718  0.9202  0.0025
    6CHTO  C117 2172   5.952   4.906   3.365  0.3210  0.1663 -0.5259
    6CHTO  H221 2173   5.953   4.827   3.290  0.0102  1.6107 -2.0829
    6CHTO   N20 2174   6.008   4.850   3.491  0.2967  0.1741  0.1726
    6CHTO  H209 2175   6.061   4.919   3.555 -0.6968 -0.0990  1.2994
    6CHTO  H210 2176   6.067   4.762   3.468  0.3339  0.1940  0.1916
    6CHTO   O80 2177   5.684   4.853   3.441 -0.1966 -0.5083 -0.3785
    6CHTO  C103 2178   5.648   4.841   3.603 -1.1988  0.3868  0.4462
    6CHTO  H190 2179   5.741   4.814   3.653 -0.4562  0.5101 -0.8381
    6CHTO  C101 2180   5.573   4.958   3.677  0.7189  0.2515  0.3352
    6CHTO  H188 2181   5.478   4.981   3.629 -0.4815  0.2167  2.6103
    6CHTO   O68 2182   5.649   5.081   3.675 -0.1982 -0.0735  0.6107
    6CHTO  H168 2183   5.676   5.103   3.762 -0.4213 -1.1741  0.9582
    6CHTO   C99 2184   5.524   4.905   3.827 -0.5562 -0.2778  0.3659
    6CHTO  H186 2185   5.603   4.882   3.901 -0.7310  4.0515  2.0150
    6CHTO   N17 2186   5.447   5.010   3.898 -0.2085  0.1059  0.5508
    6CHTO  H174 2187   5.504   5.092   3.940  1.0967  1.5319 -3.7727
    6CHTO  H175 2188   5.374   4.972   3.967  0.9158 -1.9897  0.6195
    6CHTO   C97 2189   5.440   4.779   3.811 -0.0155  0.3602 -0.0034
    6CHTO  H184 2190   5.350   4.800   3.751  0.5613  1.7255 -0.4038
    6CHTO   O64 2191   5.522   4.676   3.755 -1.0902 -0.5166  0.6943
    6CHTO  C104 2192   5.551   4.712   3.618 -0.6540  0.9688 -0.0745
    6CHTO  H191 2193   5.458   4.729   3.564 -1.5846 -0.0965  1.1600
    6CHTO  C108 2194   5.614   4.588   3.557  0.6065  0.5405  0.5007
    6CHTO   O71 2195   5.524   4.476   3.558 -0.3494 -0.4288  0.3453
    6CHTO  H171 2196   5.471   4.485   3.481  1.4320  0.8692 -0.7785
    6CHTO   O62 2197   5.387   4.730   3.934  0.3387 -0.1720 -0.7923
    6CHTO   C91 2198   5.392   4.605   3.993 -0.2108  0.1463  0.5763
    6CHTO  H178 2199   5.330   4.606   4.083  1.3669 -2.9803  1.7733
    6CHTO   C92 2200   5.540   4.569   4.039  0.3532 -0.2675  0.1817
    6CHTO  H179 2201   5.602   4.567   3.948  0.8655  1.4466  0.4897
    6CHTO   O66 2202   5.579   4.681   4.123 -0.4591 -0.0630 -0.2986
    6CHTO  H166 2203   5.540   4.684   4.208  3.3798 -3.0273  1.7313
    6CHTO   C93 2204   5.543   4.429   4.110  0.2076  0.1039 -0.4152
    6CHTO  H180 2205   5.485   4.437   4.203  2.1951  1.2876  0.7521
    6CHTO   N16 2206   5.677   4.383   4.151  0.0294  0.3100 -0.0151
    6CHTO  H172 2207   5.761   4.448   4.131 -0.5448  0.9599 -0.3843
    6CHTO  H173 2208   5.678   4.350   4.253  0.9632 -0.2979 -0.2160
    6CHTO   C94 2209   5.473   4.321   4.012 -0.5216 -1.0892 -0.1099
    6CHTO  H181 2210   5.524   4.314   3.916 -1.0247 -2.1855 -0.3036
    6CHTO   O61 2211   5.341   4.365   3.981  0.1734 -0.0274  0.0586
    6CHTO   C95 2212   5.332   4.485   3.907 -0.5111  0.0245 -0.9256
    6CHTO  H182 2213   5.388   4.470   3.815  0.5110 -0.4794 -0.2300
    6CHTO  C106 2214   5.183   4.510   3.870  0.3094  0.3493 -0.2126
    6CHTO   O69 2215   5.144   4.422   3.761  0.3772  0.4013 -0.0507
    6CHTO  H169 2216   5.066   4.445   3.714 -0.0223  0.6910  0.7533
    6CHTO   O63 2217   5.458   4.184   4.073 -0.0394 -0.8936 -0.6030
    6CHTO   C96 2218   5.404   4.084   3.969  0.2748  0.4419  0.6288
    6CHTO  H183 2219   5.386   4.129   3.871 -1.0935 -3.4650 -1.0163
    6CHTO   C98 2220   5.274   4.008   3.996 -0.3508  0.3161 -0.5500
    6CHTO  H185 2221   5.293   3.945   4.084 -2.8815 -0.3856 -0.4843
    6CHTO   O67 2222   5.173   4.111   4.038 -0.1340 -0.0304  0.1536
    6CHTO  H167 2223   5.133   4.136   3.957 -0.4668 -0.8081  0.0743
    6CHTO  C102 2224   5.227   3.924   3.870  0.2045 -0.0623 -0.7997
    6CHTO  H189 2225   5.208   4.001   3.795 -2.8985  1.4646  1.4733
    6CHTO   N18 2226   5.097   3.848   3.886  0.2852  0.5240 -0.4767
    6CHTO  H176 2227   5.073   3.849   3.991  2.7715 -1.1564  0.1645
    6CHTO  H177 2228   5.013   3.883   3.829 -0.3814  0.6889  0.5965
    6CHTO  C105 2229   5.346   3.836   3.821  0.0292  0.7379 -0.1431
    6CHTO  H192 2230   5.362   3.754   3.892  1.8873  1.0632 -0.1539
    6CHTO   O65 2231   5.470   3.902   3.817  0.2211 -0.1821 -0.3860
    6CHTO  C100 2232   5.517   3.977   3.934 -0.0557  0.5780 -0.4337
    6CHTO  H187 2233   5.532   3.905   4.015 -2.8257  1.3193  0.7917
    6CHTO  C107 2234   5.662   4.030   3.892 -0.9099  0.8256  0.5617
    6CHTO   O70 2235   5.664   4.112   3.774 -0.1724 -0.3172 -0.1765
    6CHTO  H170 2236   5.715   4.188   3.795 -1.3590  0.2478  0.6963
    6CHTO   O57 2237   5.304   3.776   3.671  0.1953  0.0490 -0.1833
    6CHTO   C85 2238   5.354   3.810   3.542  0.1198 -0.5063  0.5743
    6CHTO  H157 2239   5.299   3.766   3.457  1.3703  0.8298 -0.9787
    6CHTO   C83 2240   5.486   3.728   3.519  0.1468 -0.2742  0.0124
    6CHTO  H155 2241   5.455   3.624   3.531 -1.4317  0.3786  1.9438
    6CHTO   O56 2242   5.581   3.764   3.618 -0.1410  0.0742  0.0717
    6CHTO  H135 2243   5.666   3.728   3.601  0.5006  1.3618  0.4877
    6CHTO   C81 2244   5.536   3.746   3.373  0.5515  0.0919 -0.4815
    6CHTO  H153 2245   5.453   3.719   3.308 -0.6500 -0.3670  1.2091
    6CHTO   N14 2246   5.642   3.650   3.343 -0.4404  0.1791  0.2675
    6CHTO  H141 2247   5.606   3.557   3.304  1.3767 -0.3607 -0.1671
    6CHTO  H142 2248   5.704   3.697   3.269  0.1538 -0.8550  0.1077
    6CHTO   C79 2249   5.573   3.895   3.346 -0.7399  0.9013  0.0596
    6CHTO  H151 2250   5.584   3.905   3.238 -0.1195  0.1255  0.0498
    6CHTO   O52 2251   5.454   3.978   3.378  0.5309 -0.2565  0.2053
    6CHTO   C86 2252   5.390   3.963   3.511  0.4538 -0.2081  0.0176
    6CHTO  H158 2253   5.457   4.008   3.587 -0.9948 -0.1268  1.2752
    6CHTO   C90 2254   5.260   4.039   3.520 -0.0712 -0.2660  0.3056
    6CHTO   O60 2255   5.297   4.180   3.511 -1.1864  0.6766 -0.2162
    6CHTO  H138 2256   5.322   4.215   3.427 -0.0716 -0.6637 -0.4575
    6CHTO   O50 2257   5.675   3.959   3.422  0.1380 -0.6303 -0.9332
    6CHTO   C73 2258   5.792   4.015   3.364  0.3636 -0.7843  0.1038
    6CHTO  H145 2259   5.784   4.011   3.254 -0.3994  1.6229  0.0221
    6CHTO   C74 2260   5.911   3.925   3.403  0.2215 -0.2390  0.1817
    6CHTO  H146 2261   5.878   3.823   3.378  2.2919 -0.9697  0.3241
    6CHTO   O54 2262   6.018   3.952   3.321  0.3196 -0.2624  0.5218
    6CHTO  H133 2263   6.027   3.892   3.249  0.9670  2.4332 -1.7076
    6CHTO   C75 2264   5.946   3.942   3.557  0.1816 -0.0616 -0.7787
    6CHTO  H147 2265   5.859   3.912   3.618 -0.2372  0.7333 -0.9756
    6CHTO   N13 2266   6.053   3.848   3.603 -0.5345 -0.1192  0.2844
    6CHTO  H139 2267   6.016   3.747   3.614 -1.5339 -0.0798 -2.3149
    6CHTO  H140 2268   6.132   3.854   3.529  0.3087 -1.9567  1.0096
    6CHTO   C76 2269   5.966   4.094   3.592  0.5755 -0.3175 -0.1096
    6CHTO  H148 2270   6.050   4.131   3.533 -0.3207  0.8520 -0.6631
    6CHTO   O49 2271   5.855   4.173   3.547 -0.0027  0.0318 -0.1687
    6CHTO   C77 2272   5.817   4.163   3.410  0.5609  0.6144  0.2017
    6CHTO  H149 2273   5.899   4.205   3.352 -0.4365  0.5262 -1.2797
    6CHTO   C88 2274   5.703   4.261   3.388 -0.0005 -0.7889 -0.2629
    6CHTO   O58 2275   5.639   4.257   3.255 -0.4015  0.6907  0.1693
    6CHTO  H136 2276   5.613   4.345   3.235  1.2414  1.3872  1.0457
    6CHTO   O51 2277   5.985   4.106   3.751 -0.0303 -0.2165  0.2024
    6CHTO   C78 2278   6.071   4.245   3.809 -0.5031  1.4660  0.3949
    6CHTO  H150 2279   6.098   4.230   3.916 -1.7303 -1.9808  0.2853
    6CHTO   C80 2280   5.978   4.368   3.805 -0.0763  0.2433 -0.1602
    6CHTO  H152 2281   5.941   4.378   3.701 -0.1840 -0.9973 -0.2381
    6CHTO   O55 2282   5.869   4.339   3.898 -0.3341 -0.0296 -0.1246
    6CHTO  H134 2283   5.800   4.400   3.881 -1.0964 -0.8970 -0.2080
    6CHTO   C84 2284   6.057   4.493   3.854 -0.0847 -0.2276 -0.7768
    6CHTO  H156 2285   6.087   4.475   3.957  0.4655  1.3356 -0.6478
    6CHTO   N15 2286   5.974   4.621   3.854  0.5420  0.3382 -0.2104
    6CHTO  H143 2287   5.940   4.637   3.954 -0.9157 -1.2550 -0.4357
    6CHTO  H144 2288   6.031   4.706   3.821  0.1939  0.4697 -0.4835
    6CHTO   C87 2289   6.192   4.510   3.781 -0.8029  0.0257  0.4781
    6CHTO  H159 2290   6.172   4.532   3.677  0.2609 -2.1185 -0.2261
    6CHTO   O53 2291   6.279   4.365   3.784  0.6387 -0.8660 -0.3117
    6CHTO   C82 2292   6.205   4.257   3.731  0.3335 -0.2509 -0.1350
    6CHTO  H154 2293   6.187   4.281   3.627  1.7132 -2.2443 -0.8626
    6CHTO   C89 2294   6.292   4.127   3.741  0.2447  0.0382  0.1595
    6CHTO   O59 2295   6.395   4.144   3.647 -0.1402  0.2088 -0.2126
    6CHTO  H137 2296   6.461   4.202   3.679  1.1147  0.5647 -3.2897
    6CHTO   O45 2297   6.293   4.616   3.874 -0.3933 -0.0050  0.4855
    6CHTO   C67 2298   6.413   4.658   3.810  0.1667 -0.0178 -0.3254
    6CHTO  H124 2299   6.487   4.579   3.821  1.1716  0.8004 -1.0221
    6CHTO   C65 2300   6.396   4.681   3.661 -0.5098 -0.2168  0.1832
    6CHTO  H122 2301   6.292   4.684   3.628 -0.6892 -3.0947  0.3402
    6CHTO   O44 2302   6.458   4.565   3.600 -0.2551  0.0600 -0.0507
    6CHTO  H102 2303   6.413   4.534   3.523  1.2373 -2.2545 -0.0489
    6CHTO   C63 2304   6.449   4.822   3.618 -0.3946 -0.1244  0.0913
    6CHTO  H120 2305   6.382   4.896   3.663 -1.5102 -1.2168  0.2519
    6CHTO   N11 2306   6.451   4.845   3.468 -0.1039 -0.2433  0.0305
    6CHTO  H108 2307   6.376   4.917   3.444 -2.0840 -2.2274  0.1368
    6CHTO  H109 2308   6.429   4.752   3.421  1.1259 -0.4259 -0.2020
    6CHTO   C61 2309   6.597   4.844   3.679  0.3509 -0.3530  0.0581
    6CHTO  H118 2310   6.625   4.949   3.664  0.4471 -0.8417 -3.6218
    6CHTO   O40 2311   6.596   4.819   3.824  0.3253  0.2559 -0.1575
    6CHTO   C68 2312   6.472   4.786   3.886 -0.1022  0.4427 -0.0409
    6CHTO  H125 2313   6.401   4.872   3.882 -1.5768 -0.7856 -0.8355
    6CHTO   C72 2314   6.503   4.757   4.036 -0.1149  0.4468  0.6879
    6CHTO   O48 2315   6.387   4.726   4.114  0.1505  0.2228  0.1057
    6CHTO  H105 2316   6.363   4.638   4.093 -1.3285 -0.2992  3.7247
    6CHTO   O38 2317   6.692   4.750   3.631  0.1792 -0.3633  0.2317
    6CHTO   C55 2318   6.831   4.784   3.639  0.5013 -0.1814  0.1063
    6CHTO  H112 2319   6.853   4.854   3.721 -1.5090 -0.2506  0.7442
    6CHTO   C56 2320   6.878   4.834   3.502  0.3221 -0.5609 -0.2964
    6CHTO  H113 2321   6.857   4.751   3.434  1.1842 -1.8199  0.9475
    6CHTO   O42 2322   6.803   4.940   3.446 -0.3706 -0.2435 -0.0610
    6CHTO  H100 2323   6.794   4.951   3.353 -1.7393 -0.2597  0.0565
    6CHTO   C57 2324   7.037   4.870   3.501 -0.1227 -0.4345 -0.0748
    6CHTO  H114 2325   7.060   4.972   3.532  0.3132 -0.8038  0.8597
    6CHTO   N10 2326   7.094   4.870   3.366 -0.1917 -0.2296 -0.0320
    6CHTO  H106 2327   7.201   4.857   3.355  0.3003  3.6183 -0.3661
    6CHTO  H107 2328   7.040   4.796   3.309 -2.2250  1.0155  0.2110
    6CHTO   C58 2329   7.119   4.770   3.584 -0.4808 -0.3078 -0.0010
    6CHTO  H115 2330   7.151   4.686   3.519 -0.1497  0.6000 -1.0348
    6CHTO   O37 2331   7.049   4.718   3.696  0.7518 -0.2514 -0.2312
    6CHTO   C59 2332   6.918   4.661   3.671 -0.2067  0.2586  0.7904
    6CHTO  H116 2333   6.930   4.600   3.582 -0.5655 -0.2523  1.0915
    6CHTO   C70 2334   6.868   4.575   3.790  0.2496 -0.0033 -0.2762
    6CHTO   O46 2335   6.748   4.507   3.766 -0.0245 -0.3054  0.0979
    6CHTO  H103 2336   6.770   4.420   3.736 -0.4378  0.0387 -1.1879
    6CHTO   O39 2337   7.266   4.842   3.643 -0.2865 -0.0725 -0.6297
    6CHTO   C60 2338   7.390   4.777   3.605 -0.6345  0.3606 -0.4834
    6CHTO  H117 2339   7.379   4.669   3.611  0.3577  0.2141 -1.0973
    6CHTO   C62 2340   7.435   4.803   3.455  0.1043  0.3729 -0.2165
    6CHTO  H119 2341   7.359   4.741   3.404 -0.4647  0.3037  0.6953
    6CHTO   O43 2342   7.426   4.945   3.432  0.1281  0.2754 -0.6176
    6CHTO  H101 2343   7.473   4.988   3.501  0.2893 -1.1557  0.1937
    6CHTO   C66 2344   7.585   4.743   3.436 -0.0271 -0.2178  0.8385
    6CHTO  H123 2345   7.579   4.634   3.444  0.4736 -0.3287 -0.2627
    6CHTO   N12 2346   7.628   4.768   3.290  0.3340  0.6261 -0.2583
    6CHTO  H110 2347   7.634   4.872   3.262 -0.1152  0.7981  0.2707
    6CHTO  H111 2348   7.555   4.717   3.229  1.0469 -0.2239 -0.3926
    6CHTO   C69 2349   7.682   4.795   3.543  0.3292  0.2986 -0.7022
    6CHTO  H126 2350   7.673   4.905   3.531 -1.2391  0.1150 -1.3269
    6CHTO   O41 2351   7.623   4.751   3.686  0.3554 -0.1491  0.7713
    6CHTO   C64 2352   7.495   4.811   3.716 -1.0200  0.6010  0.2158
    6CHTO  H121 2353   7.511   4.920   3.716  0.0504  0.4556 -1.0542
    6CHTO   C71 2354   7.446   4.761   3.858  0.0930 -0.1654  0.0724
    6CHTO   O47 2355   7.404   4.620   3.847  0.0844 -0.1153  0.0989
    6CHTO  H104 2356   7.324   4.606   3.894  0.1291 -0.3560  0.1005
    6CHTO   O34 2357   7.831   4.731   3.513 -0.6871 -0.1967  0.2492
    6CHTO   C49 2358   7.971   4.695   3.418  0.2310  0.1608 -0.1751
    6CHTO   H91 2359   7.934   4.647   3.327  1.6059 -3.2990  1.0285
    6CHTO   C47 2360   8.051   4.601   3.505  0.3942 -0.0213 -0.3450
    6CHTO   H89 2361   8.138   4.566   3.445  0.3036  0.6161 -0.8588
    6CHTO   O33 2362   7.968   4.485   3.535  0.1514 -0.4185 -0.0829
    6CHTO   H70 2363   7.996   4.452   3.618  1.7216  2.1200  0.4276
    6CHTO   C45 2364   8.103   4.681   3.635  0.0572 -0.2625  0.3439
    6CHTO   H87 2365   8.028   4.669   3.715  1.1068 -2.1511  1.0926
    6CHTO    N8 2366   8.231   4.619   3.678 -0.2946 -0.3128  0.1463
    6CHTO   H75 2367   8.270   4.678   3.759 -3.5093  2.1029  0.0286
    6CHTO   H76 2368   8.295   4.629   3.592 -0.3026  1.7313  0.3583
    6CHTO   C43 2369   8.104   4.843   3.617 -0.2817  0.0127 -0.4074
    6CHTO   H85 2370   8.005   4.877   3.646  0.4642 -0.4066  2.7729
    6CHTO   O29 2371   8.134   4.875   3.482  0.3416  0.1383 -0.0376
    6CHTO   C50 2372   8.047   4.827   3.377  0.0829  0.2174 -0.2520
    6CHTO   H92 2373   7.985   4.915   3.355 -2.1382 -0.2438  3.6658
    6CHTO   C54 2374   8.133   4.801   3.255 -0.4436  0.1325  0.1728
    6CHTO   O36 2375   8.177   4.925   3.200 -0.7051  0.0919 -0.3954
    6CHTO   H72 2376   8.269   4.939   3.207 -1.0013  2.4127 -0.8213
    6CHTO   O27 2377   8.184   4.905   3.720 -0.0860  0.3069 -0.6610
    6CHTO   C37 2378   8.273   5.002   3.782  0.7985  0.1809 -0.2535
    6CHTO   H79 2379   8.377   4.979   3.755  0.7088 -0.3638 -0.1387
    6CHTO   C38 2380   8.236   5.134   3.718  0.1215 -0.2128 -0.8478
    6CHTO   H80 2381   8.128   5.156   3.724  0.3744  0.7604  0.4541
    6CHTO   O31 2382   8.266   5.131   3.584 -0.3851  0.9683 -0.0210
    6CHTO   H68 2383   8.185   5.138   3.536 -0.3058 -2.1665 -0.7727
    6CHTO   C39 2384   8.317   5.257   3.783  0.4111  0.2168 -0.1042
    6CHTO   H81 2385   8.425   5.244   3.776  0.5650  1.0105  0.6977
    6CHTO    N7 2386   8.276   5.388   3.727  0.6076  0.1390  1.0860
    6CHTO   H73 2387   8.304   5.383   3.623  0.1039  0.8607  0.9123
    6CHTO   H74 2388   8.172   5.413   3.743  0.6524 -0.0223  1.6340
    6CHTO   C40 2389   8.297   5.254   3.938  0.6355  0.3928 -0.1139
    6CHTO   H82 2390   8.194   5.276   3.965  0.2123 -1.7237  0.0560
    6CHTO   O26 2391   8.336   5.123   3.987  0.1110 -0.1767 -0.5948
    6CHTO   C41 2392   8.254   5.014   3.938 -0.0545  0.2222  0.6652
    6CHTO   H83 2393   8.149   5.040   3.958 -0.2828  0.4354 -0.7437
    6CHTO   C52 2394   8.296   4.888   4.015 -0.5933  0.1154 -0.0475
    6CHTO   O35 2395   8.263   4.888   4.160  0.6378  0.4189  0.4726
    6CHTO   H71 2396   8.218   4.808   4.178  0.3216  0.9022  1.8734
    6CHTO   O28 2397   8.383   5.356   3.994  0.1342 -0.1213 -0.2784
    6CHTO   C42 2398   8.376   5.406   4.136 -0.1879  0.9249 -0.8206
    6CHTO   H84 2399   8.475   5.451   4.144 -0.3300  1.3927 -1.6443
    6CHTO   C44 2400   8.350   5.298   4.248  0.1582  0.0813 -0.4765
    6CHTO   H86 2401   8.259   5.242   4.227  1.2797 -1.8745 -0.2188
    6CHTO   O32 2402   8.467   5.216   4.239  0.3897 -0.1919 -0.0832
    6CHTO   H69 2403   8.446   5.125   4.245 -0.3154 -0.0220  0.0314
    6CHTO   C48 2404   8.348   5.360   4.393 -0.1420 -0.6052  0.4504
    6CHTO   H90 2405   8.445   5.402   4.421 -0.5490  0.3203  0.4866
    6CHTO    N9 2406   8.318   5.257   4.497 -1.3323  0.3414 -0.0307
    6CHTO   H77 2407   8.291   5.163   4.452  0.4341 -0.1619 -0.0619
    6CHTO   H78 2408   8.240   5.292   4.563 -2.1525 -0.7440 -0.4130
    6CHTO   C51 2409   8.243   5.482   4.395  0.1567  0.2711  0.1818
    6CHTO   H93 2410   8.141   5.454   4.370  0.0026  0.3221  0.7476
    6CHTO   O30 2411   8.283   5.586   4.308 -0.3773  0.3643 -0.3444
    6CHTO   C46 2412   8.275   5.521   4.148  0.1208  0.4522 -0.4257
    6CHTO   H88 2413   8.176   5.481   4.127  0.4286 -0.1785 -0.6715
    6CHTO   C53 2414   8.309   5.634   4.048  0.4870 -0.3160 -0.1021
    6CHTO   O72 2415   8.259   5.761   4.090 -0.4382  0.1509  0.3975
    6CHTO  H199 2416   8.191   5.781   4.029  0.6696 -1.3385 -1.3693
    6CHTO   O22 2417   8.241   5.553   4.523  0.5857  0.2817  0.0125
    6CHTO   C31 2418   8.118   5.625   4.573 -0.4490  0.0163  0.3471
    6CHTO   H59 2419   8.154   5.682   4.660  0.3835  0.5259 -0.3280
    6CHTO   C29 2420   8.055   5.720   4.476  0.2648  0.0087 -0.0814
    6CHTO   H57 2421   8.024   5.679   4.379 -2.0062  0.3247  0.4916
    6CHTO   O21 2422   8.154   5.825   4.441  0.5904  0.3526 -0.1191
    6CHTO   H37 2423   8.119   5.882   4.375  1.0734  0.4956 -0.2530
    6CHTO   C27 2424   7.925   5.789   4.539  0.1347  0.5206  1.0858
    6CHTO   H55 2425   7.961   5.848   4.624 -1.2001  1.3393  1.0968
    6CHTO    N5 2426   7.856   5.878   4.438 -0.4905  0.0503  0.0460
    6CHTO   H43 2427   7.761   5.906   4.481 -1.1628 -2.0042 -0.0824
    6CHTO   H44 2428   7.856   5.829   4.342 -1.4572  0.9685 -0.4354
    6CHTO   C25 2429   7.825   5.680   4.595 -0.2113 -0.2872  0.0311
    6CHTO   H53 2430   7.776   5.617   4.519 -0.2079  1.5229 -1.5200
    6CHTO   O17 2431   7.898   5.589   4.683  0.8966 -0.1069  0.7029
    6CHTO   C32 2432   8.007   5.524   4.621  0.5326  0.4405 -0.4258
    6CHTO   H60 2433   7.978   5.451   4.546 -1.3086  1.8983 -1.1711
    6CHTO   C36 2434   8.067   5.436   4.736 -0.3889  0.2267 -0.4274
    6CHTO   O25 2435   7.961   5.355   4.800 -0.3100 -0.0225  0.1771
    6CHTO   H40 2436   7.996   5.286   4.853 -2.2177 -0.9231  0.3033
    6CHTO   O15 2437   7.711   5.742   4.681 -0.4966 -0.0863  0.3743
    6CHTO   C19 2438   7.601   5.837   4.714 -0.5862  0.4752 -0.3595
    6CHTO   H47 2439   7.556   5.783   4.799 -0.7815  1.5863  0.2501
    6CHTO   C20 2440   7.652   5.981   4.754 -0.1554 -0.0800 -0.5968
    6CHTO   H48 2441   7.723   6.024   4.681 -1.0787  0.0319 -1.4321
    6CHTO   O19 2442   7.734   5.965   4.872 -0.8937  0.0390  0.2706
    6CHTO   H35 2443   7.819   6.002   4.857 -0.6395 -1.2205 -1.6622
    6CHTO   C21 2444   7.528   6.088   4.777  0.5026 -0.3527  0.3391
    6CHTO   H49 2445   7.476   6.070   4.871  0.0239  1.0775  0.3583
    6CHTO    N4 2446   7.577   6.227   4.781 -0.3985 -0.0293 -0.1988
    6CHTO   H41 2447   7.642   6.251   4.698  0.1863 -1.4988 -0.1809
    6CHTO   H42 2448   7.631   6.247   4.873 -1.7850 -0.4407  0.7074
    6CHTO   C22 2449   7.427   6.070   4.664  0.6044  0.1011 -0.6991
    6CHTO   H50 2450   7.459   6.097   4.564  0.4193  0.0922 -0.7618
    6CHTO   O14 2451   7.384   5.935   4.651  0.0359  0.0467  0.2165
    6CHTO   C23 2452   7.491   5.851   4.605 -0.1839 -0.0403 -0.1032
    6CHTO   H51 2453   7.530   5.897   4.513 -1.3348  1.0164 -0.0687
    6CHTO   C34 2454   7.429   5.719   4.562  0.2343 -0.1983  0.3231
    6CHTO   O23 2455   7.323   5.673   4.653 -0.3802  0.0149  0.2733
    6CHTO   H38 2456   7.344   5.592   4.696  0.3837 -0.1250 -0.3416
    6CHTO   O16 2457   7.300   6.131   4.697 -0.1013  0.0540  0.4471
    6CHTO   C24 2458   7.196   6.146   4.588  0.3100  0.1214  0.3879
    6CHTO   H52 2459   7.212   6.078   4.505 -1.5669  0.4836 -0.2956
    6CHTO   C26 2460   7.203   6.294   4.547 -0.0202 -0.3252 -0.2765
    6CHTO   H54 2461   7.207   6.357   4.638  1.8474  0.0488 -0.5833
    6CHTO   O20 2462   7.334   6.321   4.484 -0.3879  0.0008 -0.2732
    6CHTO   H36 2463   7.353   6.404   4.444  0.6012  0.8453  1.8315
    6CHTO   C30 2464   7.090   6.330   4.450 -0.0826 -0.6883 -0.7932
    6CHTO   H58 2465   7.096   6.276   4.354  0.4614 -1.7219 -0.1921
    6CHTO    N6 2466   7.099   6.476   4.416  0.3823  0.0395 -0.0277
    6CHTO   H45 2467   7.102   6.495   4.310 -0.7246  1.4908  0.1823
    6CHTO   H46 2468   7.188   6.519   4.461 -0.4845  0.3927  1.3705
    6CHTO   C33 2469   6.954   6.289   4.515  0.7468 -0.2401 -0.6027
    6CHTO   H61 2470   6.935   6.344   4.608  1.1399  0.3278 -0.8509
    6CHTO   O18 2471   6.959   6.150   4.544  0.7091 -0.2910  0.0885
    6CHTO   C28 2472   7.061   6.117   4.645  0.5686 -0.1257 -0.5436
    6CHTO   H56 2473   7.055   6.179   4.735  0.2547 -0.3747 -0.3892
    6CHTO   C35 2474   7.034   5.969   4.679  0.3294  0.1582  0.1466
    6CHTO   O24 2475   6.911   5.954   4.750  0.2487  0.2340  0.1279
    6CHTO   H39 2476   6.920   5.989   4.837 -0.4036  0.5922  0.0473
    6CHTO    O9 2477   6.844   6.327   4.426 -0.2640  0.2353 -0.0110
    6CHTO   C13 2478   6.699   6.345   4.513  0.5516  0.6068  0.2669
    6CHTO   H26 2479   6.714   6.428   4.585  1.5335 -0.2861  1.1082
    6CHTO   C11 2480   6.661   6.206   4.585 -0.2981  0.2886 -0.3779
    6CHTO   H24 2481   6.741   6.184   4.657 -3.0907 -2.8415  1.9558
    6CHTO    O8 2482   6.654   6.090   4.502 -0.3666  0.0421 -0.4711
    6CHTO    H3 2483   6.743   6.081   4.475 -0.7647 -1.7076 -1.2555
    6CHTO    C9 2484   6.541   6.237   4.671 -0.0777 -0.1430  0.2397
    6CHTO   H22 2485   6.566   6.333   4.718 -1.8723 -1.1089  3.3654
    6CHTO    N2 2486   6.519   6.139   4.782 -0.4575  0.1784  0.4286
    6CHTO   H10 2487   6.553   6.177   4.877  2.0523  0.4213 -0.5440
    6CHTO   H11 2488   6.553   6.040   4.756 -1.1718  0.0444 -0.0091
    6CHTO    C7 2489   6.419   6.267   4.572 -0.9535 -0.2841 -0.2840
    6CHTO   H20 2490   6.341   6.303   4.642 -1.7951 -1.8516 -0.3804
    6CHTO    O4 2491   6.448   6.364   4.470  0.2305  0.8428 -0.5817
    6CHTO   C14 2492   6.580   6.379   4.422  0.4024 -0.2771 -0.5360
    6CHTO   H27 2493   6.592   6.488   4.406  1.6141 -0.3815 -0.3533
    6CHTO   C18 2494   6.593   6.314   4.285  0.3753  0.6560 -0.6771
    6CHTO   O13 2495   6.533   6.392   4.185  0.0478 -0.0989  0.2971
    6CHTO    H7 2496   6.554   6.346   4.106  1.3972 -2.1679  1.7967
    6CHTO    O2 2497   6.364   6.131   4.517 -0.3470  0.5327 -0.4696
    6CHTO    C1 2498   6.224   6.108   4.484 -0.7459 -0.4653 -0.1425
    6CHTO   H14 2499   6.219   6.005   4.444 -0.7423 -0.8700  0.8931
    6CHTO    C2 2500   6.164   6.203   4.381 -0.1138 -0.3767  0.1149
    6CHTO   H15 2501   6.176   6.303   4.425  0.0316  0.5153 -1.8923
    6CHTO    O6 2502   6.238   6.200   4.254  0.4859 -0.1179  0.0135
    6CHTO    H1 2503   6.225   6.122   4.205 -0.6266  0.3097 -0.3803
    6CHTO    C3 2504   6.013   6.171   4.360  0.1144  0.3980 -0.4692
    6CHTO   H16 2505   5.997   6.072   4.315  1.0444  0.3127 -0.6283
    6CHTO    N1 2506   5.943   6.259   4.261  0.0006  0.3261 -0.1470
    6CHTO    H8 2507   6.008   6.343   4.246 -2.5213  2.0390 -2.0106
    6CHTO    H9 2508   5.941   6.206   4.167  0.3671 -1.3555  0.7740
    6CHTO    C4 2509   5.935   6.168   4.499  0.1098  0.4275 -0.5111
    6CHTO   H17 2510   5.929   6.268   4.544  1.2404 -0.1530  0.9547
    6CHTO    O1 2511   6.007   6.078   4.583 -0.3126 -0.2051  0.0703
    6CHTO    C5 2512   6.140   6.107   4.615  0.3794 -0.0960 -0.5184
    6CHTO   H18 2513   6.152   6.201   4.670 -2.2377  0.3185 -0.5956
    6CHTO   C16 2514   6.191   5.983   4.703  0.1135  0.1736  0.3015
    6CHTO   O11 2515   6.187   5.859   4.633 -0.3207 -0.3689  0.3214
    6CHTO    H5 2516   6.274   5.828   4.621  0.3625  1.4797  0.3192
    6CHTO    O3 2517   5.805   6.108   4.487 -0.2780 -0.6072 -0.2823
    6CHTO    C6 2518   5.718   6.106   4.606 -0.0369 -0.3701  0.1625
    6CHTO   H19 2519   5.778   6.121   4.697  1.8574 -1.9395 -0.8001
    6CHTO    C8 2520   5.608   6.217   4.593  0.1104 -0.9802  0.1804
    6CHTO   H21 2521   5.575   6.218   4.489  2.4978  1.4862 -0.5903
    6CHTO    O7 2522   5.662   6.346   4.634 -0.6130  0.8022  0.1754
    6CHTO    H2 2523   5.715   6.342   4.712  1.5756 -1.0723 -1.3302
    6CHTO   C12 2524   5.478   6.195   4.681  0.0692 -0.3504 -0.2573
    6CHTO   H25 2525   5.501   6.226   4.785 -0.9927 -1.0975  0.2146
    6CHTO    N3 2526   5.369   6.288   4.628 -0.2287 -0.0289 -0.4735
    6CHTO   H12 2527   5.287   6.282   4.698  1.4667 -0.9680  1.4997
    6CHTO   H13 2528   5.338   6.264   4.528  2.6169  0.5891 -1.5427
    6CHTO   C15 2529   5.442   6.043   4.678  0.2233  0.3251 -0.0945
    6CHTO   H28 2530   5.386   6.011   4.590 -2.7979 -2.5853  2.7727
    6CHTO   O10 2531   5.360   6.010   4.792 -0.3041  0.0719 -0.2683
    6CHTO    H4 2532   5.313   5.930   4.780 -1.1544  0.5986 -0.4665
    6CHTO    O5 2533   5.551   5.960   4.712  0.1374 -0.0151  0.6200
    6CHTO   C10 2534   5.658   5.967   4.615  0.1205  0.2349 -0.4330
    6CHTO   H23 2535   5.608   5.942   4.522 -3.1945  0.0912  1.2804
    6CHTO   C17 2536   5.756   5.858   4.658  0.1159 -0.2472 -0.0632
    6CHTO   O12 2537   5.684   5.733   4.641  0.6006 -0.0534  0.0083
    6CHTO    H6 2538   5.746   5.664   4.629 -0.5964 -0.9213 -1.2768
    7CHTO  H203 2539   4.914   2.196   2.371 -0.8441  3.3991 -1.1963
    7CHTO   O82 2540   4.941   2.158   2.289 -0.2728  0.7732  0.1435
    7CHTO  C123 2541   5.052   2.231   2.228 -0.5559 -0.4936 -0.5705
    7CHTO  H227 2542   5.025   2.338   2.226  3.0175  0.4558  0.0324
    7CHTO   O77 2543   5.164   2.218   2.323  0.0616 -0.0208 -0.1880
    7CHTO  C118 2544   5.276   2.299   2.290 -0.0323  0.9206  0.0119
    7CHTO  H222 2545   5.246   2.402   2.265 -2.1085 -0.0325 -1.6418
    7CHTO  C125 2546   5.376   2.302   2.409  0.2825 -0.9691  0.1095
    7CHTO   O84 2547   5.319   2.352   2.531  0.4416 -0.4310 -0.7573
    7CHTO  H205 2548   5.294   2.280   2.586 -0.8857  1.7870  1.6659
    7CHTO  C114 2549   5.336   2.243   2.160 -0.4007  0.1123 -0.5287
    7CHTO  H218 2550   5.367   2.140   2.181  0.3191  0.2601 -0.8613
    7CHTO  C116 2551   5.234   2.240   2.044  0.2316 -0.1649  0.1975
    7CHTO  H220 2552   5.216   2.346   2.017 -2.2812 -0.2252  1.5234
    7CHTO   O79 2553   5.281   2.169   1.928 -0.1718  0.1434 -0.5198
    7CHTO  H201 2554   5.266   2.217   1.848  0.0189  0.3690 -0.4214
    7CHTO  C120 2555   5.098   2.182   2.085  0.7736 -0.5031 -0.0125
    7CHTO  H224 2556   5.123   2.076   2.108 -3.3396 -1.6824 -0.5931
    7CHTO   N21 2557   4.996   2.181   1.984 -0.1764  0.4041  1.3236
    7CHTO  H211 2558   4.928   2.101   2.006 -1.1148  1.3733  1.9636
    7CHTO  H212 2559   5.036   2.189   1.884 -1.4232  0.3538  0.8136
    7CHTO   O75 2560   5.445   2.327   2.144 -0.4777  0.4472  0.2381
    7CHTO  C112 2561   5.573   2.262   2.102  0.3802  1.0043  0.0150
    7CHTO  H216 2562   5.562   2.187   2.023  0.4342  0.7926  0.2070
    7CHTO   O73 2563   5.636   2.206   2.217  0.1371 -0.1234  0.3881
    7CHTO  C113 2564   5.756   2.134   2.187  0.2821  0.0952 -0.2122
    7CHTO  H217 2565   5.724   2.064   2.106 -2.1086  0.9750 -0.0638
    7CHTO  C124 2566   5.785   2.053   2.312 -0.4737 -0.0052 -0.4208
    7CHTO   O83 2567   5.697   1.943   2.332  0.1958  0.1103  0.1349
    7CHTO  H204 2568   5.610   1.977   2.333 -0.0912 -0.5981 -0.3333
    7CHTO  C109 2569   5.869   2.223   2.138  0.3004 -0.1377  1.0780
    7CHTO  H213 2570   5.896   2.286   2.225  0.1450  0.2441  0.8521
    7CHTO  C110 2571   5.822   2.315   2.021 -1.2270 -0.1065 -0.6018
    7CHTO  H214 2572   5.822   2.259   1.928 -2.0348 -0.7396 -0.2272
    7CHTO   O78 2573   5.922   2.418   1.994  0.3946  0.4093 -0.5265
    7CHTO  H200 2574   5.914   2.476   2.067  2.2998  0.1625 -0.0948
    7CHTO  C111 2575   5.679   2.371   2.044 -0.4735  0.1010 -0.5217
    7CHTO  H215 2576   5.681   2.446   2.124 -0.3585 -1.7736  1.2750
    7CHTO   N19 2577   5.627   2.435   1.928 -0.6650  0.0199 -0.1000
    7CHTO  H207 2578   5.655   2.373   1.844  0.9407 -0.1668  0.5559
    7CHTO  H208 2579   5.667   2.535   1.928 -0.9837  0.1633  1.4622
    7CHTO   O74 2580   5.979   2.145   2.098 -0.1591 -1.1731 -0.1331
    7CHTO  C115 2581   6.119   2.236   2.143  0.3547 -0.3771  0.0260
    7CHTO  H219 2582   6.118   2.335   2.096  1.7749 -1.3276 -2.0641
    7CHTO   O76 2583   6.123   2.267   2.306  0.2022 -0.0668  0.0942
    7CHTO  C122 2584   6.145   2.140   2.373 -0.8284  0.2076  0.0434
    7CHTO  H226 2585   6.068   2.072   2.337 -0.8391  0.6976 -0.8791
    7CHTO  C126 2586   6.107   2.171   2.516  0.1463 -0.0313  0.2126
    7CHTO   O85 2587   6.088   2.052   2.596 -0.6749 -0.7760 -0.1155
    7CHTO  H206 2588   6.137   2.070   2.674 -0.2760 -3.2690  0.2284
    7CHTO  C121 2589   6.287   2.077   2.330 -1.1738  0.6083  0.4128
    7CHTO  H225 2590   6.370   2.149   2.348  0.9304 -1.6100 -0.2410
    7CHTO   O81 2591   6.322   1.960   2.408  0.0169 -0.9350  0.0688
    7CHTO  H202 2592   6.406   1.975   2.446  0.1772  1.9664 -1.2342
    7CHTO  C119 2593   6.277   2.038   2.179 -0.1132  0.2683  0.0374
    7CHTO  H223 2594   6.371   1.996   2.142 -0.8412 -2.0749  0.8127
    7CHTO  C117 2595   6.235   2.159   2.080 -0.2137  0.1180  0.6683
    7CHTO  H221 2596   6.207   2.131   1.978  1.8362  0.7577 -0.0774
    7CHTO   N20 2597   6.346   2.251   2.060  0.0195 -0.3401  0.3834
    7CHTO  H209 2598   6.422   2.197   2.005  0.4180 -0.7956  1.3772
    7CHTO  H210 2599   6.384   2.294   2.151  0.9336 -0.6147  0.1392
    7CHTO   O80 2600   6.166   1.912   2.145 -0.1187  0.1630 -0.0581
    7CHTO  C103 2601   6.160   1.848   2.015 -0.2085 -0.1000  0.5004
    7CHTO  H190 2602   6.096   1.893   1.939  0.8448  0.3113 -0.1490
    7CHTO  C101 2603   6.296   1.816   1.941 -0.0475  0.1085 -0.2381
    7CHTO  H188 2604   6.374   1.795   2.015 -0.8385 -1.6807  0.1314
    7CHTO   O68 2605   6.358   1.955   1.867 -0.0130  0.0040  0.7123
    7CHTO  H168 2606   6.397   2.011   1.931 -0.8984  0.3792  0.9291
    7CHTO   C99 2607   6.275   1.707   1.820 -0.5221  0.0948  0.4376
    7CHTO  H186 2608   6.222   1.764   1.741 -0.9743 -0.5306  0.2812
    7CHTO   N17 2609   6.402   1.658   1.762 -0.3214  0.1330 -1.0188
    7CHTO  H174 2610   6.394   1.574   1.695 -1.2748 -0.2127 -0.4816
    7CHTO  H175 2611   6.456   1.737   1.713 -0.3660  1.7887  1.4978
    7CHTO   C97 2612   6.177   1.590   1.858 -0.9166 -0.1787 -0.8463
    7CHTO  H184 2613   6.230   1.511   1.913 -0.3197  0.0720 -1.0616
    7CHTO   O64 2614   6.066   1.638   1.934  0.0130 -0.7313 -0.2721
    7CHTO  C104 2615   6.094   1.716   2.055  0.4823  0.0209 -0.1522
    7CHTO  H191 2616   6.155   1.661   2.126  0.5975 -0.9124 -0.9628
    7CHTO  C108 2617   5.960   1.743   2.122 -0.3126 -0.1513  0.4605
    7CHTO   O71 2618   5.894   1.624   2.179 -0.2722 -0.4233 -0.2719
    7CHTO  H171 2619   5.820   1.649   2.232 -1.6858  1.8562 -3.1428
    7CHTO   O62 2620   6.112   1.540   1.742  0.3405  0.6448  0.1208
    7CHTO   C91 2621   6.120   1.396   1.722  0.2050 -0.7562 -0.4365
    7CHTO  H178 2622   6.222   1.372   1.694  0.1179 -1.1958 -0.3703
    7CHTO   C92 2623   6.033   1.358   1.598 -0.4760 -0.0433  0.3991
    7CHTO  H179 2624   6.056   1.411   1.504 -2.2223  0.4777  0.2448
    7CHTO   O66 2625   6.072   1.221   1.561 -0.6212 -0.2804  0.1519
    7CHTO  H166 2626   6.034   1.186   1.483  1.2775 -1.5295 -0.2275
    7CHTO   C93 2627   5.877   1.352   1.622 -0.1974 -0.0100  0.1157
    7CHTO  H180 2628   5.836   1.271   1.560 -0.9842  0.8891 -0.5536
    7CHTO   N16 2629   5.809   1.471   1.571  0.0737  0.0993  0.4263
    7CHTO  H172 2630   5.703   1.453   1.559  0.5064 -3.2381  0.9577
    7CHTO  H173 2631   5.860   1.521   1.490  1.1138 -2.2064 -0.3872
    7CHTO   C94 2632   5.832   1.333   1.767  0.4815 -0.3968  0.2844
    7CHTO  H181 2633   5.836   1.424   1.827 -1.5043 -0.4513  0.5455
    7CHTO   O61 2634   5.927   1.251   1.829 -0.1316  0.2945 -0.4615
    7CHTO   C95 2635   6.065   1.305   1.843  0.1233 -0.2915 -0.3285
    7CHTO  H182 2636   6.073   1.355   1.939  1.2250 -0.8949 -0.0961
    7CHTO  C106 2637   6.152   1.170   1.855 -0.2320 -0.5801 -0.2502
    7CHTO   O69 2638   6.120   1.077   1.956 -0.2848  0.0800  0.0913
    7CHTO  H169 2639   6.088   0.995   1.923 -2.5077  0.4248  1.3565
    7CHTO   O63 2640   5.692   1.272   1.786  0.0006 -0.2016 -0.3196
    7CHTO   C96 2641   5.615   1.328   1.917  0.3305  0.1310  0.5854
    7CHTO  H183 2642   5.613   1.437   1.908  2.1301  0.2480  1.4040
    7CHTO   C98 2643   5.690   1.309   2.054  0.8738  0.0479  0.2529
    7CHTO  H185 2644   5.794   1.342   2.044  0.1872  1.2082 -3.4857
    7CHTO   O67 2645   5.622   1.399   2.139  0.5666 -0.2812 -0.1002
    7CHTO  H167 2646   5.537   1.369   2.161 -0.4267  1.9320 -0.7562
    7CHTO  C102 2647   5.676   1.162   2.113  0.1230 -0.3961 -0.3319
    7CHTO  H189 2648   5.681   1.175   2.223  0.7804  0.6983 -0.4858
    7CHTO   N18 2649   5.793   1.073   2.083 -0.3961 -0.4413 -0.2748
    7CHTO  H176 2650   5.842   1.049   2.176  0.4889 -0.9159 -0.8475
    7CHTO  H177 2651   5.869   1.135   2.036  1.7709  0.0467  3.6464
    7CHTO  C105 2652   5.537   1.102   2.080 -0.2395 -0.0956  0.7264
    7CHTO  H192 2653   5.546   1.033   1.996  1.2332  0.3914  0.4709
    7CHTO   O65 2654   5.439   1.200   2.042  0.6568  0.0004 -0.2938
    7CHTO  C100 2655   5.467   1.276   1.919  0.5309  0.5607  0.4233
    7CHTO  H187 2656   5.456   1.206   1.835  0.3664  0.1571  0.7778
    7CHTO  C107 2657   5.357   1.380   1.904 -0.0430  0.4546 -0.0662
    7CHTO   O70 2658   5.393   1.470   1.800 -0.3159  0.2054  0.1147
    7CHTO  H170 2659   5.458   1.529   1.831 -0.9740 -0.3330  2.5750
    7CHTO   O57 2660   5.493   1.029   2.208 -0.1094  0.1862 -0.2884
    7CHTO   C85 2661   5.495   0.886   2.219 -0.4408  0.4877 -0.8194
    7CHTO  H157 2662   5.568   0.859   2.139  0.2286 -1.7735  0.5250
    7CHTO   C83 2663   5.347   0.829   2.185  0.1852  0.0343 -0.5629
    7CHTO  H155 2664   5.317   0.861   2.085  1.8962  0.9206 -0.8153
    7CHTO   O56 2665   5.247   0.880   2.272  0.8973  0.5043  0.6034
    7CHTO  H135 2666   5.166   0.833   2.271  0.3669  1.4116 -0.8905
    7CHTO   C81 2667   5.361   0.671   2.192 -0.2813 -0.4985  0.1731
    7CHTO  H153 2668   5.436   0.649   2.116  0.8076  0.5205  0.9261
    7CHTO   N14 2669   5.234   0.608   2.153 -0.4930  0.5985 -0.0233
    7CHTO  H141 2670   5.176   0.585   2.241 -0.0719  2.2750  0.7145
    7CHTO  H142 2671   5.242   0.525   2.087 -1.5356  0.9449 -0.5987
    7CHTO   C79 2672   5.415   0.625   2.333  0.6218 -1.2499  0.2346
    7CHTO  H151 2673   5.435   0.518   2.328  2.1880 -1.0600  1.8144
    7CHTO   O52 2674   5.542   0.691   2.365  0.2929 -0.0047  0.4910
    7CHTO   C86 2675   5.543   0.836   2.361  0.1478 -0.3513 -0.7159
    7CHTO  H158 2676   5.476   0.870   2.442  0.5853 -0.0633 -0.4722
    7CHTO   C90 2677   5.680   0.881   2.403 -0.2786  0.0142 -0.1391
    7CHTO   O60 2678   5.790   0.789   2.356  0.5806 -0.5351  0.4514
    7CHTO  H138 2679   5.837   0.833   2.287  2.0292 -0.7613  1.2647
    7CHTO   O50 2680   5.324   0.667   2.442 -0.3348  0.7708  0.2993
    7CHTO   C73 2681   5.357   0.622   2.578 -0.6964 -0.2943  0.4429
    7CHTO  H145 2682   5.465   0.632   2.598 -0.1554 -2.5065 -1.2137
    7CHTO   C74 2683   5.325   0.470   2.594  0.4763 -0.0645 -0.0050
    7CHTO  H146 2684   5.382   0.418   2.515  0.7073 -0.6919  0.5744
    7CHTO   O54 2685   5.382   0.412   2.714  0.2905  0.6295  0.5686
    7CHTO  H133 2686   5.475   0.417   2.703  0.4918  0.5236  2.0742
    7CHTO   C75 2687   5.167   0.452   2.578 -0.0707  0.1426  0.3808
    7CHTO  H147 2688   5.142   0.485   2.476  0.3780  1.8735  0.8081
    7CHTO   N13 2689   5.125   0.313   2.575 -0.2153  0.5418 -0.3228
    7CHTO  H139 2690   5.204   0.249   2.538 -1.1996 -1.2857  0.6342
    7CHTO  H140 2691   5.031   0.296   2.524 -0.2810 -0.6127  0.1601
    7CHTO   C76 2692   5.087   0.545   2.682 -0.0142 -0.2367  0.0680
    7CHTO  H148 2693   5.112   0.508   2.782 -1.4549 -0.8535  0.2099
    7CHTO   O49 2694   5.137   0.684   2.684  0.2613 -0.6041 -0.2316
    7CHTO   C77 2695   5.282   0.700   2.690  0.2301 -1.3903 -0.8472
    7CHTO  H149 2696   5.315   0.665   2.788 -1.2742 -0.0057  0.1735
    7CHTO   C88 2697   5.313   0.852   2.683  0.9721  0.2720 -0.3918
    7CHTO   O58 2698   5.230   0.923   2.553 -0.4781  0.0334 -0.1615
    7CHTO  H136 2699   5.282   0.895   2.480  0.4342  0.3276  0.3736
    7CHTO   O51 2700   4.922   0.542   2.673  0.2659  0.2526 -0.0626
    7CHTO   C78 2701   4.855   0.544   2.797 -0.2659  0.4094  0.2864
    7CHTO  H150 2702   4.923   0.554   2.884 -1.3158 -0.1049  1.1698
    7CHTO   C80 2703   4.776   0.417   2.811  0.2917  0.4552 -0.1490
    7CHTO  H152 2704   4.696   0.405   2.735 -0.8001 -2.4475  1.3565
    7CHTO   O55 2705   4.862   0.304   2.801 -0.3806  0.3820  0.4984
    7CHTO  H134 2706   4.875   0.284   2.710  0.2726 -0.5119  0.7791
    7CHTO   C84 2707   4.704   0.410   2.951  0.6335  0.1716  0.5360
    7CHTO  H156 2708   4.778   0.405   3.030  0.5076 -2.1113  0.5373
    7CHTO   N15 2709   4.619   0.287   2.982 -0.1852 -0.5144  0.0907
    7CHTO  H143 2710   4.671   0.230   3.056  1.0156 -0.1993 -0.5002
    7CHTO  H144 2711   4.522   0.311   3.023  0.9850 -1.9852  3.9733
    7CHTO   C87 2712   4.620   0.538   2.977  0.2418  0.2439  0.3234
    7CHTO  H159 2713   4.525   0.533   2.924  0.2234  1.1558  0.2692
    7CHTO   O53 2714   4.689   0.661   2.922 -0.3443 -0.4376 -0.8688
    7CHTO   C82 2715   4.755   0.660   2.801 -0.7713 -0.6472  0.7375
    7CHTO  H154 2716   4.677   0.654   2.725 -0.8795  0.0119  0.7950
    7CHTO   C89 2717   4.817   0.795   2.781 -0.6041  0.2589 -0.6394
    7CHTO   O59 2718   4.711   0.887   2.749  0.2409  0.4657 -0.0671
    7CHTO  H137 2719   4.679   0.870   2.663  0.7297  1.1919 -0.3967
    7CHTO   O45 2720   4.595   0.555   3.153  0.4018 -0.2957  0.1883
    7CHTO   C67 2721   4.683   0.649   3.213 -0.8652 -0.0712 -0.1225
    7CHTO  H124 2722   4.765   0.678   3.148  1.1056  1.7972  3.0678
    7CHTO   C65 2723   4.604   0.778   3.262 -0.6688 -0.7301  0.0217
    7CHTO  H122 2724   4.500   0.746   3.269 -0.2826 -1.8259  0.9543
    7CHTO   O44 2725   4.618   0.875   3.159 -0.2436 -0.1372  0.3090
    7CHTO  H102 2726   4.579   0.958   3.179 -0.9295 -0.3139 -0.2879
    7CHTO   C63 2727   4.641   0.829   3.400 -0.5890 -0.1688 -0.9034
    7CHTO  H120 2728   4.601   0.757   3.471 -2.1639  1.7385  0.2204
    7CHTO   N11 2729   4.567   0.954   3.447 -0.5099  0.3368 -0.2550
    7CHTO  H108 2730   4.497   0.930   3.525  1.0845  0.6412  1.3118
    7CHTO  H109 2731   4.520   0.992   3.359  2.7847  0.5981 -1.9980
    7CHTO   C61 2732   4.798   0.826   3.422 -0.0954 -0.6892 -0.0563
    7CHTO  H118 2733   4.819   0.851   3.527  0.2093  0.0974 -0.3030
    7CHTO   O40 2734   4.853   0.694   3.395 -0.9202 -0.4891 -0.0939
    7CHTO   C68 2735   4.766   0.593   3.344  0.7953  0.2304 -0.5014
    7CHTO  H125 2736   4.698   0.555   3.423  0.3075 -1.7324 -1.8674
    7CHTO   C72 2737   4.851   0.479   3.300 -0.4049 -0.4648 -0.0104
    7CHTO   O48 2738   4.886   0.385   3.398 -0.7155  0.0933  0.2484
    7CHTO  H105 2739   4.805   0.345   3.424 -1.2986 -0.1326 -1.8420
    7CHTO   O38 2740   4.855   0.922   3.331 -0.6107 -0.0968  0.0620
    7CHTO   C55 2741   4.988   0.963   3.372 -0.0862 -0.4229  0.2574
    7CHTO  H112 2742   5.037   0.885   3.433  0.9347 -0.9195 -1.1878
    7CHTO   C56 2743   4.989   1.103   3.446  0.0804 -0.3624 -0.6782
    7CHTO  H113 2744   4.935   1.173   3.379 -2.6194 -1.7741 -0.0414
    7CHTO   O42 2745   4.901   1.103   3.558 -0.3224 -0.0024 -0.2320
    7CHTO  H100 2746   4.875   1.014   3.569 -0.3819  0.0149 -0.2334
    7CHTO   C57 2747   5.138   1.157   3.478 -0.0672  0.8621  0.3331
    7CHTO  H114 2748   5.175   1.089   3.555 -0.7956  1.0676  0.8762
    7CHTO   N10 2749   5.135   1.299   3.525  0.0512  0.5411 -0.0200
    7CHTO  H106 2750   5.222   1.315   3.587 -0.8848 -0.7017  1.6634
    7CHTO  H107 2751   5.045   1.311   3.582  0.8763  2.3152  0.9539
    7CHTO   C58 2752   5.224   1.146   3.352  0.3019 -0.2585  0.0498
    7CHTO  H115 2753   5.194   1.222   3.277  1.0054 -0.9575 -0.9562
    7CHTO   O37 2754   5.210   1.016   3.296 -0.5747  0.2851 -0.2611
    7CHTO   C59 2755   5.076   0.983   3.248 -0.3548 -0.6822  0.1949
    7CHTO  H116 2756   5.043   1.069   3.188 -0.3889 -1.5203 -0.9979
    7CHTO   C70 2757   5.068   0.858   3.161  0.6839 -0.5916 -0.1403
    7CHTO   O46 2758   5.148   0.878   3.044 -0.4169  0.1339 -0.0751
    7CHTO  H103 2759   5.137   0.804   2.988  1.5675 -0.7253  0.6457
    7CHTO   O39 2760   5.394   1.168   3.398 -0.4046 -0.4232  0.2625
    7CHTO   C60 2761   5.488   1.085   3.324  0.4513  0.0377 -0.4215
    7CHTO  H117 2762   5.448   0.984   3.332 -1.5210  0.7636 -0.8941
    7CHTO   C62 2763   5.483   1.107   3.174 -0.5456 -0.2803  0.1360
    7CHTO  H119 2764   5.380   1.090   3.136 -0.8124  0.4199  0.5320
    7CHTO   O43 2765   5.507   1.245   3.152 -0.2251 -0.1621  0.9945
    7CHTO  H101 2766   5.452   1.296   3.095  1.7866 -0.0815 -0.9451
    7CHTO   C66 2767   5.577   1.003   3.094 -0.1463  0.0202 -0.7587
    7CHTO  H123 2768   5.546   0.905   3.131 -0.5959  0.4055 -0.1058
    7CHTO   N12 2769   5.550   1.009   2.950 -0.1866  0.1439  0.0769
    7CHTO  H110 2770   5.453   0.966   2.932 -2.2319  3.1454  3.2404
    7CHTO  H111 2771   5.549   1.111   2.914 -2.1563  0.3889  0.7862
    7CHTO   C69 2772   5.726   1.004   3.141  0.3397  0.6619  0.1430
    7CHTO  H126 2773   5.778   1.101   3.123  1.5640  0.0040  0.0380
    7CHTO   O41 2774   5.721   0.972   3.305  0.3004 -0.2667 -0.0717
    7CHTO   C64 2775   5.634   1.081   3.384 -0.6244 -0.1012  0.7693
    7CHTO  H121 2776   5.679   1.181   3.368  1.1245 -1.2347 -1.7283
    7CHTO   C71 2777   5.624   1.044   3.537 -0.4570 -0.3114  0.0860
    7CHTO   O47 2778   5.741   1.099   3.605  0.1781 -0.0520  0.0718
    7CHTO  H104 2779   5.733   1.192   3.600  1.0003 -0.0105 -0.7030
    7CHTO   O34 2780   5.812   0.889   3.065  0.3645  0.4768  0.2178
    7CHTO   C49 2781   5.872   0.821   2.931  0.8870  0.0272  0.9644
    7CHTO   H91 2782   5.947   0.748   2.961  0.4162 -1.4629 -1.3360
    7CHTO   C47 2783   5.942   0.932   2.848  0.0821 -0.3078 -0.1303
    7CHTO   H89 2784   6.038   0.951   2.901  0.7391 -1.6923 -0.7992
    7CHTO   O33 2785   5.872   1.059   2.840 -0.1329  0.1085  0.3090
    7CHTO   H70 2786   5.928   1.127   2.809  0.7540 -0.8179 -0.1876
    7CHTO   C45 2787   5.965   0.891   2.691 -0.3961  0.1182  0.2373
    7CHTO   H87 2788   5.878   0.931   2.636  1.3272  1.0352 -1.8694
    7CHTO    N8 2789   6.086   0.951   2.624 -0.1749  0.1367  0.2008
    7CHTO   H75 2790   6.168   0.886   2.599  0.2768  0.1979  1.4766
    7CHTO   H76 2791   6.130   1.026   2.688  0.6811 -0.4153  0.2617
    7CHTO   C43 2792   5.968   0.731   2.670  0.0387 -0.0463  0.2948
    7CHTO   H85 2793   5.991   0.702   2.568  0.9257  0.5717  0.3111
    7CHTO   O29 2794   5.839   0.678   2.717  0.2087 -0.2950 -0.8942
    7CHTO   C50 2795   5.779   0.746   2.833  0.4096  0.2384  0.5293
    7CHTO   H92 2796   5.708   0.820   2.792  0.8638 -0.4324 -1.5351
    7CHTO   C54 2797   5.686   0.642   2.899  0.0623 -0.4685 -0.3219
    7CHTO   O36 2798   5.562   0.620   2.832 -0.0170 -0.5600  0.3055
    7CHTO   H72 2799   5.489   0.615   2.891 -0.0779  0.1789  0.3023
    7CHTO   O27 2800   6.081   0.671   2.736  0.2103 -0.1169  0.1215
    7CHTO   C37 2801   6.138   0.583   2.829 -0.4046  0.3921  0.1412
    7CHTO   H79 2802   6.127   0.625   2.930  1.5208  0.5590  0.2975
    7CHTO   C38 2803   6.075   0.439   2.825 -0.3439 -0.6439 -0.1388
    7CHTO   H80 2804   6.070   0.405   2.721  0.0855  0.1742 -0.4350
    7CHTO   O31 2805   5.936   0.442   2.863  0.0313 -0.4736  0.0168
    7CHTO   H68 2806   5.896   0.524   2.845  3.4255  0.7344 -2.6731
    7CHTO   C39 2807   6.150   0.337   2.909  0.1082  0.3307 -0.0633
    7CHTO   H81 2808   6.129   0.358   3.013 -2.4307 -2.0761 -0.0430
    7CHTO    N7 2809   6.100   0.196   2.880 -0.9413  0.0224  0.2744
    7CHTO   H73 2810   6.188   0.139   2.854 -0.6421  0.2480  0.7967
    7CHTO   H74 2811   6.037   0.199   2.792 -2.4009 -0.7822  1.2809
    7CHTO   C40 2812   6.303   0.348   2.880 -0.0873  0.0497  0.1672
    7CHTO   H82 2813   6.312   0.298   2.784 -1.0497 -1.3511  0.7948
    7CHTO   O26 2814   6.347   0.486   2.880 -0.5992  0.1246 -0.0396
    7CHTO   C41 2815   6.287   0.570   2.789 -0.0815 -0.3531  1.0441
    7CHTO   H83 2816   6.272   0.525   2.690  1.9193  2.0609 -0.4022
    7CHTO   C52 2817   6.370   0.703   2.784 -0.2817  0.6003  0.0674
    7CHTO   O35 2818   6.500   0.688   2.728  0.1174  0.1780  0.5826
    7CHTO   H71 2819   6.499   0.693   2.634  2.7174 -0.2646  0.4880
    7CHTO   O28 2820   6.383   0.279   2.977 -0.0349 -0.8338  0.2308
    7CHTO   C42 2821   6.521   0.246   2.936  0.5411 -0.0583  0.6761
    7CHTO   H84 2822   6.551   0.188   3.023  0.2653 -1.5060 -0.1763
    7CHTO   C44 2823   6.622   0.365   2.923 -0.3488  0.2463 -0.6411
    7CHTO   H86 2824   6.591   0.440   2.849  0.9580 -0.0329 -1.5038
    7CHTO   O32 2825   6.619   0.433   3.052 -0.1120  0.0393 -0.3536
    7CHTO   H69 2826   6.665   0.378   3.113 -0.5952 -0.3034 -0.2953
    7CHTO   C48 2827   6.768   0.319   2.887 -0.4163 -0.4142 -0.2021
    7CHTO   H90 2828   6.804   0.254   2.966 -3.8835 -3.1885 -0.7951
    7CHTO    N9 2829   6.870   0.429   2.873 -0.4565 -0.6643  0.0531
    7CHTO   H77 2830   6.963   0.379   2.849 -0.4751 -1.4497  1.5920
    7CHTO   H78 2831   6.845   0.490   2.787 -0.5377  1.5998  1.6457
    7CHTO   C51 2832   6.756   0.231   2.754  0.4540 -0.3865 -0.0764
    7CHTO   H93 2833   6.705   0.303   2.690 -2.1697 -0.5974  1.7236
    7CHTO   O30 2834   6.683   0.118   2.783  0.3993 -0.0995 -0.2313
    7CHTO   C46 2835   6.528   0.152   2.811  0.2899 -0.4447 -0.6747
    7CHTO   H88 2836   6.483   0.206   2.728  0.0186  0.0729 -0.1965
    7CHTO   C53 2837   6.450   0.031   2.846  0.3652  0.2677  0.0268
    7CHTO   O72 2838   6.473  -0.054   2.739  0.5254  0.5081 -0.6307
    7CHTO  H199 2839   6.404  -0.117   2.726  0.7518  0.1928 -0.3200
    7CHTO   O22 2840   6.881   0.175   2.697 -0.0670 -0.1521 -0.3210
    7CHTO   C31 2841   6.902   0.128   2.555 -0.6846 -0.1838 -1.1339
    7CHTO   H59 2842   7.002   0.081   2.555 -0.8133 -0.5506  1.7488
    7CHTO   C29 2843   6.804   0.020   2.507  0.7005 -0.4355  0.4514
    7CHTO   H57 2844   6.706   0.067   2.521  1.4282  1.1057  0.5721
    7CHTO   O21 2845   6.823  -0.092   2.591 -0.3224 -0.0048 -0.0490
    7CHTO   H37 2846   6.783  -0.165   2.549  0.2209  1.3659 -3.1148
    7CHTO   C27 2847   6.814  -0.009   2.354 -0.4932 -0.3594  0.0097
    7CHTO   H55 2848   6.908  -0.063   2.335  0.5053  1.3222  0.0486
    7CHTO    N5 2849   6.701  -0.093   2.306 -0.2088  0.3384  0.9423
    7CHTO   H43 2850   6.625  -0.104   2.381 -0.0711 -3.1174  0.6334
    7CHTO   H44 2851   6.649  -0.061   2.217  3.5650 -0.0068 -1.4867
    7CHTO   C25 2852   6.821   0.122   2.273 -0.2694  0.3968 -0.5395
    7CHTO   H53 2853   6.728   0.180   2.276  1.6509  3.5198  1.4686
    7CHTO   O17 2854   6.923   0.209   2.328  0.7810 -0.5519 -0.4671
    7CHTO   C32 2855   6.903   0.253   2.463  0.2545  0.2401  0.2885
    7CHTO   H60 2856   6.813   0.308   2.488  0.9697  0.8628  1.5174
    7CHTO   C36 2857   7.020   0.346   2.507  0.4164 -0.2517 -0.0609
    7CHTO   O25 2858   6.979   0.483   2.480 -0.2972  0.2438  0.8600
    7CHTO   H40 2859   7.052   0.539   2.495  0.6214 -0.9257  0.7901
    7CHTO   O15 2860   6.847   0.084   2.109  0.0915 -0.3914  0.5301
    7CHTO   C19 2861   6.827   0.172   1.995  0.0313  0.1396  0.6846
    7CHTO   H47 2862   6.865   0.106   1.915  1.7341  0.3670  1.2802
    7CHTO   C20 2863   6.676   0.196   1.970 -0.1641  0.8755  0.1603
    7CHTO   H48 2864   6.630   0.237   2.062 -0.0058  1.3196  0.0424
    7CHTO   O19 2865   6.617   0.070   1.947  0.2842 -0.2145  0.1038
    7CHTO   H35 2866   6.524   0.067   1.958  0.0776 -0.3035 -1.5161
    7CHTO   C21 2867   6.663   0.289   1.847  0.0322  0.2412  0.1145
    7CHTO   H49 2868   6.693   0.237   1.756 -0.7500  1.8428 -1.0804
    7CHTO    N4 2869   6.521   0.317   1.817  0.2907 -0.0349 -0.2576
    7CHTO   H41 2870   6.463   0.234   1.781 -0.2041  0.9526 -1.7821
    7CHTO   H42 2871   6.466   0.354   1.902  1.0657 -2.3201  1.2809
    7CHTO   C22 2872   6.738   0.417   1.875 -0.1570 -0.0744 -0.4344
    7CHTO   H50 2873   6.702   0.470   1.963  0.9481  0.8682 -0.5383
    7CHTO   O14 2874   6.878   0.379   1.883  0.6313 -0.3324  0.4530
    7CHTO   C23 2875   6.911   0.295   1.997  0.2398 -0.1087 -0.0533
    7CHTO   H51 2876   6.893   0.354   2.088  0.1059  0.9744 -0.7769
    7CHTO   C34 2877   7.059   0.268   2.003  0.6238  0.0218  0.7472
    7CHTO   O23 2878   7.136   0.389   1.998 -0.5591  0.8460 -0.4143
    7CHTO   H38 2879   7.077   0.461   1.985 -0.2361  1.2442  0.2606
    7CHTO   O16 2880   6.741   0.511   1.761 -0.3276 -0.1090 -0.0807
    7CHTO   C24 2881   6.746   0.665   1.801 -1.0259  0.2800  0.1982
    7CHTO   H52 2882   6.772   0.681   1.906 -1.4113 -2.3850  0.7418
    7CHTO   C26 2883   6.613   0.730   1.775 -0.0075 -0.2339  0.5416
    7CHTO   H54 2884   6.592   0.710   1.667  2.5029  0.1769 -0.0659
    7CHTO   O20 2885   6.509   0.665   1.850  0.0754 -0.4544  0.2490
    7CHTO   H36 2886   6.435   0.723   1.845  0.3997  0.0587  1.1803
    7CHTO   C30 2887   6.620   0.884   1.802  0.2148 -0.1958  0.1667
    7CHTO   H58 2888   6.630   0.905   1.910 -0.7068 -2.0832  0.6317
    7CHTO    N6 2889   6.493   0.948   1.766 -0.5979  1.2201  0.4236
    7CHTO   H45 2890   6.452   0.901   1.677 -0.3054 -0.3132  1.0993
    7CHTO   H46 2891   6.501   1.054   1.743 -0.3834  1.1982  0.3976
    7CHTO   C33 2892   6.745   0.952   1.723 -0.8108 -0.2444  0.1273
    7CHTO   H61 2893   6.737   0.950   1.614  2.6139 -1.5018 -0.1455
    7CHTO   O18 2894   6.857   0.871   1.754  0.0962 -0.0916 -0.1039
    7CHTO   C28 2895   6.853   0.733   1.714 -0.4297 -0.4164  0.0133
    7CHTO   H56 2896   6.825   0.726   1.609 -4.3994  1.2823  0.8810
    7CHTO   C35 2897   6.996   0.670   1.729 -0.6587 -0.0065  0.9192
    7CHTO   O24 2898   7.044   0.668   1.866  0.0412 -0.7956  0.5540
    7CHTO   H39 2899   7.020   0.585   1.902  1.5027 -1.8872 -0.9289
    7CHTO    O9 2900   6.767   1.094   1.756  0.0867  0.4513  0.2014
    7CHTO   C13 2901   6.878   1.155   1.682  0.4238  0.0883 -0.4209
    7CHTO   H26 2902   6.869   1.127   1.575  1.8881 -0.1702 -0.4870
    7CHTO   C11 2903   7.022   1.110   1.745 -0.0754  0.5921 -0.2616
    7CHTO   H24 2904   7.053   1.012   1.705  2.6374  1.4357 -0.3168
    7CHTO    O8 2905   7.009   1.103   1.889  0.2103  0.2061 -0.1408
    7CHTO    H3 2906   7.092   1.088   1.929  0.8074  0.4122 -1.2851
    7CHTO    C9 2907   7.136   1.205   1.700 -0.6585 -0.2856  0.7176
    7CHTO   H22 2908   7.135   1.202   1.590 -0.8498  2.1834  0.6325
    7CHTO    N2 2909   7.278   1.171   1.730  0.3029  0.3747 -0.0970
    7CHTO   H10 2910   7.301   1.066   1.744  0.7475  0.8247  2.7058
    7CHTO   H11 2911   7.311   1.222   1.819 -0.7657  1.0299 -0.0605
    7CHTO    C7 2912   7.104   1.354   1.745  0.5338  0.1814 -0.4884
    7CHTO   H20 2913   7.135   1.415   1.657  1.5951  1.5795  0.8350
    7CHTO    O4 2914   6.962   1.383   1.758 -0.3044  0.4187 -0.8770
    7CHTO   C14 2915   6.859   1.316   1.682  0.8096 -0.9340  0.2485
    7CHTO   H27 2916   6.876   1.347   1.577  2.0798 -0.5706  0.5501
    7CHTO   C18 2917   6.715   1.366   1.728  0.7181  0.5596 -1.3339
    7CHTO   O13 2918   6.678   1.499   1.708 -0.0622 -0.0705  0.6254
    7CHTO    H7 2919   6.752   1.556   1.716  0.0195  0.1628 -1.6976
    7CHTO    O2 2920   7.172   1.414   1.880  0.3699 -0.4851 -0.0029
    7CHTO    C1 2921   7.187   1.559   1.886  0.1133  0.6212 -0.4359
    7CHTO   H14 2922   7.118   1.609   1.816  0.2664  1.0193 -0.3078
    7CHTO    C2 2923   7.334   1.606   1.843  0.1132  0.6109 -0.0335
    7CHTO   H15 2924   7.404   1.539   1.894  1.1050 -0.3056 -2.4937
    7CHTO    O6 2925   7.343   1.581   1.700 -0.2682 -0.1520 -0.3730
    7CHTO    H1 2926   7.418   1.614   1.654 -1.2998  2.5666 -0.1692
    7CHTO    C3 2927   7.369   1.750   1.879 -1.2295 -0.6687  0.2920
    7CHTO   H16 2928   7.319   1.823   1.814 -0.7165  0.6279  1.3368
    7CHTO    N1 2929   7.520   1.769   1.859 -0.4271  0.5556  0.0745
    7CHTO    H8 2930   7.548   1.871   1.882 -0.6502  0.8596 -0.9938
    7CHTO    H9 2931   7.587   1.703   1.913  0.7161  0.0327 -1.9252
    7CHTO    C4 2932   7.323   1.777   2.028  0.6419  0.2266 -0.0014
    7CHTO   H17 2933   7.366   1.705   2.097  0.6281 -0.4918 -0.7500
    7CHTO    O1 2934   7.187   1.754   2.028 -0.1273  0.2247  0.0187
    7CHTO    C5 2935   7.148   1.619   2.025  0.2275  0.8945  0.0354
    7CHTO   H18 2936   7.203   1.558   2.096  0.1053 -0.7044 -1.2111
    7CHTO   C16 2937   6.996   1.613   2.050 -0.3950  0.0291 -0.1612
    7CHTO   O11 2938   6.923   1.491   2.040 -0.2212  0.2821  0.2507
    7CHTO    H5 2939   6.915   1.444   2.121  0.0878  2.3266  1.5253
    7CHTO    O3 2940   7.333   1.912   2.072  0.6192 -0.2418  0.0093
    7CHTO    C6 2941   7.401   1.934   2.201 -0.6002 -0.1177 -0.2816
    7CHTO   H19 2942   7.468   1.858   2.242  0.9975  1.3194 -0.1254
    7CHTO    C8 2943   7.505   2.057   2.192 -0.0385  0.1399  0.5827
    7CHTO   H21 2944   7.455   2.137   2.138 -0.1071  1.0284  1.9476
    7CHTO    O7 2945   7.625   2.023   2.120  0.0153  0.0203  0.0834
    7CHTO    H2 2946   7.612   1.956   2.056 -0.3615  2.9150 -2.9597
    7CHTO   C12 2947   7.556   2.113   2.331 -0.1170  0.2236 -0.0899
    7CHTO   H25 2948   7.619   2.035   2.376 -1.0878 -0.9376 -0.7101
    7CHTO    N3 2949   7.646   2.235   2.323  0.2859 -0.6305  0.0978
    7CHTO   H12 2950   7.693   2.249   2.227 -0.2494  0.6399  0.0097
    7CHTO   H13 2951   7.700   2.262   2.413  0.5359 -1.3492  0.1652
    7CHTO   C15 2952   7.432   2.130   2.433 -0.6433 -0.2132  0.0841
    7CHTO   H28 2953   7.367   2.214   2.409  0.7618 -0.0417 -3.3776
    7CHTO   O10 2954   7.485   2.145   2.577 -0.2615 -0.4397  0.0875
    7CHTO    H4 2955   7.559   2.090   2.591 -0.0403 -0.2554 -0.3549
    7CHTO    O5 2956   7.357   2.006   2.436  0.6818 -0.4656 -0.1622
    7CHTO   C10 2957   7.298   1.960   2.313 -0.8574 -0.4728  0.4558
    7CHTO   H23 2958   7.233   2.038   2.275  0.9723  1.2266  0.7284
    7CHTO   C17 2959   7.212   1.842   2.350 -0.0275 -0.2202  0.2271
    7CHTO   O12 2960   7.108   1.854   2.452  0.5108 -0.1853  0.0638
    7CHTO    H6 2961   7.064   1.936   2.456 -0.5781 -0.7548 -0.2040
    8CHTO  H203 2962   7.421   8.198   0.860  0.3673 -0.2378  0.4815
    8CHTO   O82 2963   7.354   8.144   0.898 -0.5880  0.3783 -0.2968
    8CHTO  C123 2964   7.286   8.197   1.018  0.1768 -0.8760  0.7612
    8CHTO  H227 2965   7.357   8.197   1.102 -0.7377 -0.8892  1.5457
    8CHTO   O77 2966   7.242   8.331   0.962  0.0458 -0.4273  0.4659
    8CHTO  C118 2967   7.178   8.418   1.055 -0.1784  0.5833 -0.5980
    8CHTO  H222 2968   7.233   8.429   1.149 -0.8910 -1.6142  0.1026
    8CHTO  C125 2969   7.159   8.562   0.989 -0.1591 -0.5155 -0.3966
    8CHTO   O84 2970   7.273   8.598   0.907 -0.2496  0.1109 -0.1048
    8CHTO  H205 2971   7.282   8.691   0.904  1.0756 -0.0313 -0.6075
    8CHTO  C114 2972   7.044   8.347   1.087 -0.4844  0.2006  0.0703
    8CHTO  H218 2973   6.989   8.333   0.995 -0.9220  2.4094 -0.0277
    8CHTO  C116 2974   7.070   8.204   1.150 -0.0451 -0.0949  0.0331
    8CHTO  H220 2975   7.119   8.215   1.250  0.1811  0.1360 -0.1023
    8CHTO   O79 2976   6.939   8.146   1.179 -0.0432 -0.7434 -0.0893
    8CHTO  H201 2977   6.921   8.097   1.101 -1.4160 -0.0044 -0.2676
    8CHTO  C120 2978   7.156   8.118   1.050  0.0271 -0.0978 -0.5177
    8CHTO  H224 2979   7.089   8.109   0.962 -0.0684  2.0700 -0.7081
    8CHTO   N21 2980   7.189   7.978   1.094 -0.3331 -0.0518  0.7751
    8CHTO  H211 2981   7.193   7.910   1.010  0.7637  2.1866 -1.0477
    8CHTO  H212 2982   7.288   7.975   1.135 -0.6321 -0.9104  1.4344
    8CHTO   O75 2983   6.980   8.430   1.181 -0.0301  0.1709 -0.2356
    8CHTO  C112 2984   6.814   8.451   1.138  0.3519  0.0856  0.2808
    8CHTO  H216 2985   6.765   8.353   1.122 -0.7612  0.4945  1.1366
    8CHTO   O73 2986   6.803   8.533   1.017  0.3779 -0.2422  0.3405
    8CHTO  C113 2987   6.663   8.546   0.980 -0.1410  0.0089 -0.1967
    8CHTO  H217 2988   6.608   8.451   0.964 -0.0058 -0.0138 -0.5294
    8CHTO  C124 2989   6.662   8.618   0.843  0.2596  0.0504  0.2186
    8CHTO   O83 2990   6.707   8.756   0.853 -0.3628 -0.0103  0.0470
    8CHTO  H204 2991   6.795   8.765   0.882 -0.9117  2.5001  0.9966
    8CHTO  C109 2992   6.583   8.629   1.091  0.2346 -0.5084  0.6171
    8CHTO  H213 2993   6.635   8.726   1.099  0.4325 -0.5461 -0.1564
    8CHTO  C110 2994   6.595   8.552   1.228  0.8824  0.3342  0.5272
    8CHTO  H214 2995   6.544   8.457   1.210  2.1703 -0.1787 -0.5029
    8CHTO   O78 2996   6.537   8.634   1.333  0.1375  0.3669  0.1696
    8CHTO  H200 2997   6.528   8.578   1.408 -1.7017 -0.5598 -0.7023
    8CHTO  C111 2998   6.746   8.524   1.258 -1.1264  0.7560  0.4709
    8CHTO  H215 2999   6.804   8.617   1.266  1.5521 -0.8930  0.7311
    8CHTO   N19 3000   6.767   8.446   1.386  0.2818  0.1077  0.3503
    8CHTO  H207 3001   6.867   8.455   1.424  0.2045  1.1454  0.3260
    8CHTO  H208 3002   6.749   8.341   1.367  0.8538  0.4443 -2.2217
    8CHTO   O74 3003   6.445   8.659   1.057 -0.0058  0.2163 -0.1490
    8CHTO  C115 3004   6.351   8.533   1.046 -0.2381  0.1302 -0.1629
    8CHTO  H219 3005   6.395   8.447   0.996 -2.5566 -0.1720 -1.7960
    8CHTO   O76 3006   6.292   8.478   1.196  0.5500 -0.2123 -0.1872
    8CHTO  C122 3007   6.208   8.570   1.253 -0.3609  0.0712 -0.5749
    8CHTO  H226 3008   6.253   8.669   1.257  0.7165 -0.5051  2.3098
    8CHTO  C126 3009   6.186   8.520   1.398  0.0901 -0.6290 -0.0941
    8CHTO   O85 3010   6.289   8.571   1.489  0.3038  0.4245  0.2425
    8CHTO  H206 3011   6.356   8.507   1.504 -0.3851  0.0747  1.9149
    8CHTO  C121 3012   6.082   8.603   1.162  0.0339  0.7275  0.1616
    8CHTO  H225 3013   6.024   8.510   1.144  0.9558  0.3810 -1.0459
    8CHTO   O81 3014   5.999   8.703   1.232 -0.0949  0.1551  0.1765
    8CHTO  H202 3015   5.906   8.700   1.218 -0.3121  0.9063  1.4380
    8CHTO  C119 3016   6.120   8.664   1.024 -0.1194 -0.4694  0.7003
    8CHTO  H223 3017   6.029   8.671   0.964 -0.0953  0.9078  0.8062
    8CHTO  C117 3018   6.232   8.567   0.949  0.2179  0.4523 -0.9949
    8CHTO  H221 3019   6.269   8.616   0.859  0.9798  2.1836  0.2328
    8CHTO   N20 3020   6.159   8.444   0.901 -0.9048  0.2147  0.0726
    8CHTO  H209 3021   6.205   8.382   0.826 -2.3792 -0.7776 -0.0279
    8CHTO  H210 3022   6.131   8.379   0.983 -2.1367 -1.2562 -1.4919
    8CHTO   O80 3023   6.159   8.816   1.027 -0.3165 -0.2393 -0.6202
    8CHTO  C103 3024   6.042   8.931   1.020 -0.3615  0.3362 -0.4008
    8CHTO  H190 3025   5.940   8.893   1.025 -0.7025  1.3290  0.6029
    8CHTO  C101 3026   6.066   9.034   1.140  0.4277 -0.5436  0.1058
    8CHTO  H188 3027   6.174   9.030   1.158  0.2084 -0.5865  1.4637
    8CHTO   O68 3028   5.988   8.988   1.273 -0.1089 -0.0040  0.2773
    8CHTO  H168 3029   6.019   9.052   1.335 -2.8236  0.5675  1.1324
    8CHTO   C99 3030   6.025   9.183   1.102 -0.5679  0.1973  0.4583
    8CHTO  H186 3031   5.915   9.190   1.117 -0.5184 -0.1732  1.0284
    8CHTO   N17 3032   6.089   9.287   1.201  0.7615 -0.1428  0.6727
    8CHTO  H174 3033   6.183   9.326   1.165 -0.3066  2.8191  0.9506
    8CHTO  H175 3034   6.014   9.360   1.227  0.2502 -1.1794  2.1674
    8CHTO   C97 3035   6.052   9.219   0.954  0.1351 -0.3843 -0.3294
    8CHTO  H184 3036   6.160   9.237   0.938  0.1916  0.2304  0.7296
    8CHTO   O64 3037   5.993   9.119   0.867 -0.4465  0.1296  0.4936
    8CHTO  C104 3038   6.064   8.998   0.874  0.4153  0.6989 -0.6819
    8CHTO  H191 3039   6.172   9.012   0.859  0.5441 -1.5190 -1.9842
    8CHTO  C108 3040   6.014   8.902   0.761 -0.3402 -0.1485 -0.4455
    8CHTO   O71 3041   6.052   8.939   0.630 -0.0005  0.6168 -0.3280
    8CHTO  H171 3042   5.988   8.996   0.590 -0.0690  0.3693 -0.5717
    8CHTO   O62 3043   5.986   9.344   0.918 -0.3236  0.3384 -0.0070
    8CHTO   C91 3044   6.047   9.400   0.799  0.2886 -0.6954 -0.1536
    8CHTO  H178 3045   6.102   9.325   0.743 -0.1937 -0.0101 -1.5790
    8CHTO   C92 3046   6.155   9.510   0.840 -0.4767 -0.5690 -0.0784
    8CHTO  H179 3047   6.100   9.577   0.909  0.3542  1.9924 -1.8250
    8CHTO   O66 3048   6.267   9.442   0.906  0.6882  0.7828 -0.4179
    8CHTO  H166 3049   6.320   9.389   0.849 -2.1062 -2.4699 -0.1418
    8CHTO   C93 3050   6.209   9.598   0.723  0.1769  0.3150 -0.3636
    8CHTO  H180 3051   6.277   9.536   0.663  0.4806  0.6718 -0.3894
    8CHTO   N16 3052   6.291   9.712   0.770 -0.0872  0.5781  0.2960
    8CHTO  H172 3053   6.230   9.788   0.817  0.9371  1.1140  0.7826
    8CHTO  H173 3054   6.375   9.680   0.830  2.1116  2.8691 -1.4274
    8CHTO   C94 3055   6.098   9.657   0.626 -0.3709 -0.1319  0.1984
    8CHTO  H181 3056   6.036   9.731   0.676  0.0874 -0.2838  0.9985
    8CHTO   O61 3057   6.021   9.538   0.589  0.3904 -0.0988 -0.3622
    8CHTO   C95 3058   5.947   9.465   0.693 -0.5935  0.7968  0.0022
    8CHTO  H182 3059   5.886   9.536   0.749  0.1241  0.0190  1.7889
    8CHTO  C106 3060   5.853   9.370   0.609 -0.6473 -0.1957  0.8664
    8CHTO   O69 3061   5.757   9.446   0.536  0.2356 -0.0631 -0.1317
    8CHTO  H169 3062   5.682   9.390   0.533 -1.2944  2.0177 -2.2246
    8CHTO   O63 3063   6.170   9.718   0.480  0.1655 -0.4996 -0.0179
    8CHTO   C96 3064   6.063   9.734   0.342 -0.2903  0.8080  0.5173
    8CHTO  H183 3065   5.963   9.697   0.367 -0.3654  0.8847  0.3231
    8CHTO   C98 3066   6.121   9.673   0.211 -0.6470 -0.5105 -0.7785
    8CHTO  H185 3067   6.222   9.711   0.190 -0.1852 -2.0482 -1.4076
    8CHTO   O67 3068   6.142   9.533   0.242  0.1535  0.2322 -0.7779
    8CHTO  H167 3069   6.176   9.517   0.328  3.2178 -2.0130 -2.3481
    8CHTO  C102 3070   6.022   9.687   0.092  0.2984 -0.3671 -0.3396
    8CHTO  H189 3071   5.935   9.625   0.118  0.0747 -0.0294 -0.2831
    8CHTO   N18 3072   6.072   9.645  -0.043 -0.4507 -0.3814 -0.1732
    8CHTO  H176 3073   6.112   9.733  -0.093  0.7794 -0.2563  1.0068
    8CHTO  H177 3074   6.005   9.587  -0.104 -0.6906 -0.6639  0.3565
    8CHTO  C105 3075   5.959   9.832   0.080  0.5024  0.0834  0.0341
    8CHTO  H192 3076   6.032   9.897   0.032  0.8019  1.2690  2.0131
    8CHTO   O65 3077   5.932   9.892   0.210  0.1583 -0.1810  0.0433
    8CHTO  C100 3078   6.039   9.884   0.306 -0.3488  0.3363  0.5460
    8CHTO  H187 3079   6.136   9.930   0.283  0.0964 -0.3402  1.0388
    8CHTO  C107 3080   5.997   9.965   0.431 -0.7960  0.1282  0.0590
    8CHTO   O70 3081   5.885   9.918   0.499 -0.0983 -0.4298  0.5340
    8CHTO  H170 3082   5.885   9.943   0.589 -1.0516 -0.2553  0.4887
    8CHTO   O57 3083   5.821   9.822   0.007 -0.2179 -0.5718  0.4981
    8CHTO   C85 3084   5.752   9.925  -0.065 -0.1575 -0.5064  0.1993
    8CHTO  H157 3085   5.828   9.974  -0.130  0.8641  1.2505  2.6494
    8CHTO   C83 3086   5.717  10.036   0.036 -0.6335  0.6119  0.2824
    8CHTO  H155 3087   5.801  10.090   0.080 -1.5167 -0.3185  3.2417
    8CHTO   O56 3088   5.651   9.976   0.153 -0.2011 -0.8691  0.4247
    8CHTO  H135 3089   5.647  10.043   0.218  0.7782 -0.2212 -0.1620
    8CHTO   C81 3090   5.627  10.146  -0.033 -0.6222 -0.1249 -0.3195
    8CHTO  H153 3091   5.678  10.193  -0.117 -0.7614  2.8786  1.1984
    8CHTO   N14 3092   5.598  10.259   0.054  0.1140  0.0771  0.0605
    8CHTO  H141 3093   5.508  10.258   0.112 -0.7943 -0.1986 -1.3309
    8CHTO  H142 3094   5.610  10.356   0.011  3.4943  0.3730  1.5276
    8CHTO   C79 3095   5.491  10.080  -0.086 -0.4602  0.3269 -0.4474
    8CHTO  H151 3096   5.430  10.159  -0.128  0.9384  0.1300 -2.9168
    8CHTO   O52 3097   5.527   9.977  -0.185 -0.1915  0.3828  0.1426
    8CHTO   C86 3098   5.632   9.877  -0.147 -0.0752  0.6931 -0.3190
    8CHTO  H158 3099   5.571   9.805  -0.088  1.0495 -1.0767 -1.2600
    8CHTO   C90 3100   5.679   9.804  -0.276 -0.1672 -0.2604 -0.6932
    8CHTO   O60 3101   5.582   9.721  -0.337 -0.1452  0.1659  0.2440
    8CHTO  H138 3102   5.610   9.707  -0.425  0.9148 -2.0979  0.8972
    8CHTO   O50 3103   5.414  10.015   0.017 -0.4349  0.3261 -0.1425
    8CHTO   C73 3104   5.275   9.999   0.036 -0.7294  0.3840  1.4239
    8CHTO  H145 3105   5.232   9.947  -0.052 -0.6458 -0.4508  1.8682
    8CHTO   C74 3106   5.191  10.136   0.050  0.7385  0.1875 -0.2650
    8CHTO  H146 3107   5.215  10.198  -0.037  0.1980  0.5724 -0.1398
    8CHTO   O54 3108   5.050  10.098   0.035 -0.1808  0.3024 -0.1397
    8CHTO  H133 3109   5.005  10.129  -0.041 -0.3652 -0.4780 -0.3562
    8CHTO   C75 3110   5.233  10.208   0.178  0.3035 -0.6235 -0.7499
    8CHTO  H147 3111   5.338  10.240   0.169  0.1842  0.3354  1.0368
    8CHTO   N13 3112   5.164  10.334   0.202 -0.1546  0.5677 -0.4238
    8CHTO  H139 3113   5.203  10.379   0.293 -0.4303  1.3685 -0.7014
    8CHTO  H140 3114   5.058  10.320   0.194 -0.1694  0.6681 -0.3881
    8CHTO   C76 3115   5.219  10.105   0.304 -0.7130  0.1842 -0.5178
    8CHTO  H148 3116   5.111  10.100   0.318 -0.6315  0.0534  0.0547
    8CHTO   O49 3117   5.287   9.979   0.275 -1.2176  0.0509  0.1936
    8CHTO   C77 3118   5.245   9.914   0.157 -0.2151 -0.2133 -0.3042
    8CHTO  H149 3119   5.138   9.896   0.166  0.0031 -1.2598  0.2638
    8CHTO   C88 3120   5.310   9.777   0.147 -0.2893 -0.5663  0.0593
    8CHTO   O58 3121   5.243   9.691   0.036 -0.3368  0.4041 -0.3067
    8CHTO  H136 3122   5.298   9.618   0.015  0.1276  0.5286  0.4531
    8CHTO   O51 3123   5.302  10.182   0.436  1.0874 -0.5414  0.4682
    8CHTO   C78 3124   5.324  10.090   0.558  0.1858 -0.8802  0.4938
    8CHTO  H150 3125   5.320   9.982   0.531 -0.1101 -0.5588 -0.7398
    8CHTO   C80 3126   5.223  10.111   0.669 -0.2811 -0.3056  0.1412
    8CHTO  H152 3127   5.206  10.221   0.678  0.3395 -0.3216  1.7017
    8CHTO   O55 3128   5.099  10.065   0.616  0.3114 -0.0622 -0.3109
    8CHTO  H134 3129   5.034  10.068   0.683 -0.9617 -0.4692 -1.5009
    8CHTO   C84 3130   5.260  10.043   0.805  0.7017  0.4784 -0.0583
    8CHTO  H156 3131   5.237   9.937   0.795 -1.0216  0.9581 -1.4697
    8CHTO   N15 3132   5.171  10.095   0.912  0.3508  0.5791 -0.7679
    8CHTO  H143 3133   5.181  10.031   0.998  0.4000 -0.7111 -1.7130
    8CHTO  H144 3134   5.192  10.195   0.942 -1.5913  0.8149 -0.1146
    8CHTO   C87 3135   5.412  10.068   0.835  0.1545 -0.0238  0.2159
    8CHTO  H159 3136   5.433  10.171   0.862  1.3686 -0.4395  0.8808
    8CHTO   O53 3137   5.499  10.030   0.709  0.1801 -0.2778 -0.0490
    8CHTO   C82 3138   5.471  10.113   0.599  1.0799  0.2837  0.5322
    8CHTO  H154 3139   5.492  10.217   0.625  1.2857  0.8763 -1.9271
    8CHTO   C89 3140   5.573  10.072   0.493  0.0929 -0.3001 -0.5877
    8CHTO   O59 3141   5.560  10.157   0.377 -0.3334 -0.0795 -0.1999
    8CHTO  H137 3142   5.493  10.127   0.319 -1.3266  3.7489 -1.2352
    8CHTO   O45 3143   5.469   9.982   0.967  0.4690 -0.1861  0.5072
    8CHTO   C67 3144   5.482   9.837   0.952 -0.1430 -0.2735  0.2084
    8CHTO  H124 3145   5.427   9.806   0.863 -1.0353  1.6893  0.0593
    8CHTO   C65 3146   5.621   9.787   0.934  0.1138 -0.2691 -0.5732
    8CHTO  H122 3147   5.684   9.864   0.889 -0.7734 -1.1242 -3.3635
    8CHTO   O44 3148   5.627   9.676   0.842  0.2006 -0.1166  0.1261
    8CHTO  H102 3149   5.574   9.606   0.875  2.1355 -0.9954  1.5146
    8CHTO   C63 3150   5.692   9.761   1.072  0.9101  0.1129  0.5583
    8CHTO  H120 3151   5.665   9.846   1.134 -1.6743  2.8190 -4.0057
    8CHTO   N11 3152   5.842   9.754   1.073 -0.0970  0.2147  0.7215
    8CHTO  H108 3153   5.890   9.783   1.164  1.7777 -0.4414 -0.0393
    8CHTO  H109 3154   5.886   9.817   0.998  0.7424 -0.6554  0.4750
    8CHTO   C61 3155   5.612   9.638   1.139  0.3402  0.2992 -0.5111
    8CHTO  H118 3156   5.638   9.645   1.246 -1.3136  2.3701 -0.2108
    8CHTO   O40 3157   5.475   9.654   1.137 -0.0573 -0.0184  0.3437
    8CHTO   C68 3158   5.409   9.771   1.077  0.4556  0.3607  0.1903
    8CHTO  H125 3159   5.396   9.840   1.163  0.8424  0.7614 -0.0741
    8CHTO   C72 3160   5.266   9.730   1.041 -0.4646 -0.0747  1.2092
    8CHTO   O48 3161   5.255   9.631   0.943  0.1579 -0.0608 -0.4915
    8CHTO  H105 3162   5.285   9.550   0.980 -1.8259 -1.1100 -1.0694
    8CHTO   O38 3163   5.661   9.516   1.084  0.1946 -0.0333 -0.6278
    8CHTO   C55 3164   5.585   9.397   1.117  0.5701  0.5243 -0.8761
    8CHTO  H112 3165   5.482   9.428   1.138  0.7848 -0.7102  2.2856
    8CHTO   C56 3166   5.652   9.324   1.237 -0.7584  0.3864 -0.1935
    8CHTO  H113 3167   5.759   9.304   1.226 -0.7283 -0.7258  1.9641
    8CHTO   O42 3168   5.649   9.406   1.360  0.1998  0.3871  0.3852
    8CHTO  H100 3169   5.665   9.497   1.345  0.4590  0.3183  0.2417
    8CHTO   C57 3170   5.576   9.189   1.264 -0.8060 -0.3318  0.3527
    8CHTO  H114 3171   5.479   9.228   1.294 -1.6365 -1.4295 -0.8381
    8CHTO   N10 3172   5.636   9.112   1.375 -0.2543  0.1691 -0.0363
    8CHTO  H106 3173   5.731   9.075   1.340 -0.0563  1.5264 -0.9983
    8CHTO  H107 3174   5.647   9.179   1.459  0.0675  2.6155 -1.9366
    8CHTO   C58 3175   5.571   9.103   1.135 -0.8298 -0.2349 -0.3637
    8CHTO  H115 3176   5.674   9.085   1.097 -0.1400  2.2102  0.2563
    8CHTO   O37 3177   5.512   9.180   1.031  0.4716  0.1738  0.0764
    8CHTO   C59 3178   5.580   9.304   0.996 -0.1568  0.3722 -0.2346
    8CHTO  H116 3179   5.681   9.279   0.962 -0.1114 -1.5520  1.2122
    8CHTO   C70 3180   5.507   9.369   0.875  0.1010 -0.5849 -0.4364
    8CHTO   O46 3181   5.481   9.293   0.755  0.1268 -0.3749 -0.5482
    8CHTO  H103 3182   5.561   9.295   0.706  0.9303 -0.9553  0.6993
    8CHTO   O39 3183   5.486   8.957   1.151  0.4276  0.0978  0.0375
    8CHTO   C60 3184   5.348   8.958   1.150 -0.4007  0.7084  0.2596
    8CHTO  H117 3185   5.325   9.053   1.198  0.4341  1.4147 -0.7069
    8CHTO   C62 3186   5.286   8.956   1.002  0.7938  0.0069 -0.0274
    8CHTO  H119 3187   5.327   9.050   0.959 -2.2099  1.8739  0.9909
    8CHTO   O43 3188   5.325   8.834   0.938 -0.2316 -0.3887 -0.0640
    8CHTO  H101 3189   5.314   8.846   0.846  1.3904  0.8334 -0.1074
    8CHTO   C66 3190   5.122   8.974   1.006  0.5598 -0.2880  0.0441
    8CHTO  H123 3191   5.102   9.066   1.060 -1.0482 -0.3196 -0.4701
    8CHTO   N12 3192   5.056   9.005   0.874  0.4023  0.1198  0.2532
    8CHTO  H110 3193   4.949   9.013   0.881  0.3207  0.1273 -0.9085
    8CHTO  H111 3194   5.109   9.083   0.822  0.0548  0.0966 -0.1404
    8CHTO   C69 3195   5.065   8.851   1.081  0.1974  0.4081  0.0019
    8CHTO  H126 3196   5.098   8.761   1.025  0.7200 -1.5079  3.2587
    8CHTO   O41 3197   5.123   8.844   1.209 -0.6677 -0.2902  0.2386
    8CHTO   C64 3198   5.280   8.847   1.236 -0.2448 -0.6142  0.0958
    8CHTO  H121 3199   5.327   8.748   1.216 -0.2740 -0.1193 -2.4695
    8CHTO   C71 3200   5.308   8.884   1.387  0.5336  0.1268  0.8284
    8CHTO   O47 3201   5.442   8.872   1.431 -0.4999  0.3472 -0.6305
    8CHTO  H104 3202   5.468   8.947   1.482  0.2159 -1.2807  1.5072
    8CHTO   O34 3203   4.896   8.853   1.085  0.2302  0.1671 -0.1813
    8CHTO   C49 3204   4.812   8.878   1.189  0.1731 -0.7123 -0.4324
    8CHTO   H91 3205   4.834   8.802   1.264  1.4160 -0.5890 -0.6751
    8CHTO   C47 3206   4.669   8.865   1.137  0.0935 -0.2467  0.4627
    8CHTO   H89 3207   4.605   8.883   1.226 -0.2837  3.6860 -0.5446
    8CHTO   O33 3208   4.650   8.728   1.090  0.2384  0.6047  0.2663
    8CHTO   H70 3209   4.677   8.710   1.002  3.0742 -3.1367  1.7455
    8CHTO   C45 3210   4.645   8.978   1.018 -0.2539  0.7641 -0.2247
    8CHTO   H87 3211   4.722   8.959   0.941 -0.7825  1.6324 -0.9775
    8CHTO    N8 3212   4.509   8.952   0.953  0.0565 -0.0858 -0.8488
    8CHTO   H75 3213   4.431   8.916   1.019  0.0806 -1.0676 -1.3500
    8CHTO   H76 3214   4.479   9.041   0.900  1.7818  0.7566 -0.4551
    8CHTO   C43 3215   4.683   9.131   1.066 -0.2092  0.8284 -0.3953
    8CHTO   H85 3216   4.700   9.185   0.973 -2.2637  0.6103 -0.9170
    8CHTO   O29 3217   4.796   9.131   1.150 -0.6795  0.0475  0.2855
    8CHTO   C50 3218   4.827   9.023   1.244  0.5846  0.5176  0.1883
    8CHTO   H92 3219   4.932   9.044   1.271  0.4265  2.0329 -0.3356
    8CHTO   C54 3220   4.748   9.046   1.373 -0.6129  0.0197  0.1944
    8CHTO   O36 3221   4.794   8.953   1.467 -0.1246  0.2228  0.5150
    8CHTO   H72 3222   4.727   8.897   1.500  1.3524 -1.6364  0.4208
    8CHTO   O27 3223   4.563   9.183   1.136 -0.1918  0.5060 -0.3242
    8CHTO   C37 3224   4.506   9.307   1.179  0.0421 -0.3854 -0.2066
    8CHTO   H79 3225   4.430   9.293   1.258  1.0434 -1.7462  0.5416
    8CHTO   C38 3226   4.622   9.407   1.232 -0.1298  1.0363 -0.2553
    8CHTO   H80 3227   4.703   9.408   1.158 -0.0748 -2.8347 -0.3478
    8CHTO   O31 3228   4.681   9.350   1.354 -0.5450 -0.5103  0.2157
    8CHTO   H68 3229   4.616   9.321   1.416  2.7732 -4.6031  2.0174
    8CHTO   C39 3230   4.569   9.559   1.251 -0.5452  0.3965  0.2598
    8CHTO   H81 3231   4.496   9.544   1.331 -1.1088  0.9968 -0.1384
    8CHTO    N7 3232   4.675   9.654   1.298  0.1915  0.4587  0.3604
    8CHTO   H73 3233   4.651   9.759   1.285 -0.3757  0.4100  0.9788
    8CHTO   H74 3234   4.767   9.626   1.251 -0.0565 -1.7018  1.0773
    8CHTO   C40 3235   4.499   9.611   1.129 -0.3724  0.1488 -0.4216
    8CHTO   H82 3236   4.584   9.605   1.061 -1.2926  1.7242 -1.7467
    8CHTO   O26 3237   4.395   9.518   1.090  0.2530  0.4283  0.3858
    8CHTO   C41 3238   4.436   9.384   1.064  0.1487 -0.6556 -0.6206
    8CHTO   H83 3239   4.503   9.385   0.977  1.0938 -0.3453  0.1024
    8CHTO   C52 3240   4.296   9.320   1.022 -0.0604 -0.6379 -0.5317
    8CHTO   O35 3241   4.308   9.191   0.972 -0.4775  0.3892  0.0335
    8CHTO   H71 3242   4.307   9.199   0.878  0.6446  0.5303  0.0290
    8CHTO   O28 3243   4.438   9.745   1.141  0.3468 -0.0052  0.2580
    8CHTO   C42 3244   4.399   9.817   1.018 -0.1335  0.1135  0.0972
    8CHTO   H84 3245   4.358   9.909   1.060 -0.6487 -0.6184  1.1959
    8CHTO   C44 3246   4.278   9.762   0.933  0.6426  0.4145  0.5433
    8CHTO   H86 3247   4.307   9.666   0.888  2.0508  1.3311 -0.5667
    8CHTO   O32 3248   4.178   9.714   1.021 -1.0669 -0.7651 -0.1636
    8CHTO   H69 3249   4.144   9.793   1.057 -1.4949 -0.1589 -1.8627
    8CHTO   C48 3250   4.228   9.861   0.823  0.1322  0.8075 -0.7211
    8CHTO   H90 3251   4.198   9.953   0.873 -3.5416  0.6844 -2.4810
    8CHTO    N9 3252   4.109   9.809   0.747 -0.2324  0.1834  0.1527
    8CHTO   H77 3253   4.120   9.786   0.642 -3.0427  1.0029 -0.3543
    8CHTO   H78 3254   4.030   9.882   0.756 -1.0824 -0.7137  0.0109
    8CHTO   C51 3255   4.355   9.887   0.729 -0.0710 -0.9158 -0.3908
    8CHTO   H93 3256   4.378   9.790   0.686  1.2822 -0.7175 -0.1373
    8CHTO   O30 3257   4.466   9.942   0.799  0.0938  0.1348  0.2522
    8CHTO   C46 3258   4.513   9.863   0.924 -0.3521  0.3436 -0.7560
    8CHTO   H88 3259   4.569   9.778   0.885 -0.4236 -0.6524  1.2061
    8CHTO   C53 3260   4.610   9.953   0.999  0.3787  0.5663  0.2149
    8CHTO   O72 3261   4.703  10.036   0.917 -0.1558  0.2925 -0.1568
    8CHTO  H199 3262   4.770  10.072   0.971  0.0045  1.8106 -1.3451
    8CHTO   O22 3263   4.337   9.996   0.631 -0.3177 -0.4092  0.3428
    8CHTO   C31 3264   4.402   9.998   0.490  0.2200 -0.2654  0.8969
    8CHTO   H59 3265   4.389  10.103   0.454 -3.3056 -1.2738 -1.0625
    8CHTO   C29 3266   4.549   9.967   0.486  0.0097  0.1479 -0.2532
    8CHTO   H57 3267   4.550   9.861   0.516  1.1959  0.5676  1.2806
    8CHTO   O21 3268   4.627  10.047   0.576 -0.3030 -0.4233  0.2082
    8CHTO   H37 3269   4.605  10.026   0.665  2.2571 -0.1192  0.9531
    8CHTO   C27 3270   4.609   9.979   0.342  0.1741 -0.4148 -0.0016
    8CHTO   H55 3271   4.612  10.087   0.323 -1.3964 -0.7032 -2.0451
    8CHTO    N5 3272   4.748   9.924   0.334 -0.4691 -0.3604 -0.2935
    8CHTO   H43 3273   4.804   9.969   0.254 -0.4487 -0.3234 -0.2576
    8CHTO   H44 3274   4.793   9.946   0.430 -0.1473 -1.3848 -0.2002
    8CHTO   C25 3275   4.518   9.919   0.230  0.0057 -0.1386  0.6682
    8CHTO   H53 3276   4.520   9.810   0.243  1.3505 -0.3934 -1.3544
    8CHTO   O17 3277   4.378   9.957   0.246  0.1898 -0.3239 -0.0612
    8CHTO   C32 3278   4.322   9.910   0.382 -0.3092 -1.0734  0.8635
    8CHTO   H60 3279   4.350   9.806   0.395  1.9668 -0.7453 -1.0261
    8CHTO   C36 3280   4.169   9.925   0.388  0.3664  0.2168  0.1361
    8CHTO   O25 3281   4.102   9.825   0.309  0.5935 -0.3443  0.1479
    8CHTO   H40 3282   4.081   9.848   0.220  0.1458  0.6322  0.5000
    8CHTO   O15 3283   4.569   9.944   0.093 -0.1680  0.1405  0.5464
    8CHTO   C19 3284   4.594   9.905  -0.047  0.1099 -0.3950  0.6603
    8CHTO   H47 3285   4.498   9.858  -0.071  0.6684 -3.5959  4.1714
    8CHTO   C20 3286   4.621  10.024  -0.152  0.7599  0.2216  0.5195
    8CHTO   H48 3287   4.694  10.098  -0.116 -0.8410  2.8099 -1.3941
    8CHTO   O19 3288   4.497  10.095  -0.155 -0.0961  0.2529  0.3704
    8CHTO   H35 3289   4.490  10.170  -0.099 -1.2236  3.4429 -3.7696
    8CHTO   C21 3290   4.666   9.989  -0.301 -0.3518 -0.8403  0.0541
    8CHTO   H49 3291   4.577   9.953  -0.354 -0.9814  0.1484  0.4237
    8CHTO    N4 3292   4.710  10.097  -0.390  0.1928 -0.1859  0.1851
    8CHTO   H41 3293   4.627  10.149  -0.435 -2.0078 -2.4274  1.5332
    8CHTO   H42 3294   4.779  10.162  -0.337  2.3096 -1.1750 -1.2738
    8CHTO   C22 3295   4.764   9.871  -0.278  0.1042 -0.3966 -0.4541
    8CHTO   H50 3296   4.851   9.901  -0.218  0.2557 -3.1277  0.7517
    8CHTO   O14 3297   4.707   9.763  -0.203  0.0073  0.6451 -0.3846
    8CHTO   C23 3298   4.695   9.792  -0.066 -0.8421  0.6100  0.0313
    8CHTO   H51 3299   4.794   9.818  -0.028  0.7394 -0.4901 -3.1195
    8CHTO   C34 3300   4.645   9.665   0.006  0.3586 -0.1774 -0.2038
    8CHTO   O23 3301   4.734   9.556  -0.017 -0.0300  0.2659 -0.2051
    8CHTO   H38 3302   4.711   9.476   0.026  0.5238  0.1016 -0.2126
    8CHTO   O16 3303   4.804   9.807  -0.400  0.0317 -0.4905  0.1029
    8CHTO   C24 3304   4.939   9.720  -0.363  0.7125  0.3405  0.7656
    8CHTO   H52 3305   4.949   9.706  -0.256  0.7295  0.8933  0.8365
    8CHTO   C26 3306   5.061   9.804  -0.410 -0.0633  0.4140  0.7806
    8CHTO   H54 3307   5.040   9.854  -0.507  0.6902  1.4735  1.1565
    8CHTO   O20 3308   5.080   9.906  -0.307 -0.1423  0.2886 -0.3383
    8CHTO   H36 3309   5.162   9.952  -0.309 -0.0404  0.2506  1.5800
    8CHTO   C30 3310   5.191   9.727  -0.434  0.2467  0.2019  0.6590
    8CHTO   H58 3311   5.232   9.703  -0.335  1.7849 -0.4689 -0.1274
    8CHTO    N6 3312   5.293   9.810  -0.504 -0.1180  0.1886 -0.8684
    8CHTO   H45 3313   5.389   9.761  -0.495  0.9019  2.1822 -0.5776
    8CHTO   H46 3314   5.276   9.822  -0.610  1.8299 -1.8837 -1.4562
    8CHTO   C33 3315   5.165   9.588  -0.497  0.5529 -1.0181  0.2734
    8CHTO   H61 3316   5.121   9.607  -0.595 -2.2547 -1.5651  1.3899
    8CHTO   O18 3317   5.064   9.521  -0.419  0.1829  0.4213 -0.2780
    8CHTO   C28 3318   4.931   9.582  -0.433 -0.7392  0.7962 -0.0482
    8CHTO   H56 3319   4.894   9.601  -0.534 -1.8794  1.7268  0.5209
    8CHTO   C35 3320   4.831   9.478  -0.373 -0.5879 -0.3401  0.2784
    8CHTO   O24 3321   4.689   9.504  -0.376 -0.7105  0.4534 -0.1040
    8CHTO   H39 3322   4.648   9.429  -0.336 -0.3688  0.6458  0.6077
    8CHTO    O9 3323   5.282   9.506  -0.511  0.0247 -0.1974  0.6254
    8CHTO   C13 3324   5.257   9.378  -0.620  0.2037  0.6052  0.2948
    8CHTO   H26 3325   5.171   9.394  -0.689 -0.7104  1.7083  1.6539
    8CHTO   C11 3326   5.230   9.249  -0.533 -0.1468 -0.3723  0.2578
    8CHTO   H24 3327   5.124   9.254  -0.503 -0.5083  0.5500 -1.1033
    8CHTO    O8 3328   5.311   9.250  -0.410 -0.7590 -0.1007  0.1403
    8CHTO    H3 3329   5.399   9.268  -0.437 -0.4635 -2.0181 -0.2202
    8CHTO    C9 3330   5.252   9.124  -0.622 -0.3709  0.2248  0.0213
    8CHTO   H22 3331   5.182   9.136  -0.706 -0.0986  0.6940 -0.1365
    8CHTO    N2 3332   5.198   9.001  -0.554  0.2479  0.4736 -0.3275
    8CHTO   H10 3333   5.267   8.918  -0.549 -1.4374 -0.9359  0.3594
    8CHTO   H11 3334   5.108   8.970  -0.605  0.7005  0.8022 -1.3364
    8CHTO    C7 3335   5.405   9.125  -0.669  0.0884  0.0017  0.6931
    8CHTO   H20 3336   5.393   9.083  -0.771  0.7388 -0.4773  0.8131
    8CHTO    O4 3337   5.467   9.255  -0.675  0.3765 -0.0209 -0.4458
    8CHTO   C14 3338   5.379   9.356  -0.724  0.4187  0.7687  0.2786
    8CHTO   H27 3339   5.328   9.327  -0.818  0.1886  2.3935 -0.1048
    8CHTO   C18 3340   5.462   9.482  -0.760  0.3542 -0.1474 -0.0075
    8CHTO   O13 3341   5.384   9.562  -0.845  0.4910  0.2434  0.1561
    8CHTO    H7 3342   5.383   9.514  -0.926 -1.2770  0.5753 -0.0200
    8CHTO    O2 3343   5.501   9.012  -0.570  0.4208  0.8101  0.8012
    8CHTO    C1 3344   5.644   9.040  -0.564  0.6531 -0.1006 -0.3431
    8CHTO   H14 3345   5.660   9.149  -0.551  1.3847 -0.3128  0.5778
    8CHTO    C2 3346   5.735   9.001  -0.698 -0.1070 -0.0571 -0.4164
    8CHTO   H15 3347   5.684   8.908  -0.727  1.8578 -0.9911 -0.9646
    8CHTO    O6 3348   5.709   9.112  -0.785 -0.7477  0.0338  0.2106
    8CHTO    H1 3349   5.702   9.093  -0.877 -0.1107 -1.3935  0.4534
    8CHTO    C3 3350   5.893   8.980  -0.671 -0.6560 -0.1156  0.0573
    8CHTO   H16 3351   5.935   9.082  -0.668 -1.0285  0.0644 -0.7555
    8CHTO    N1 3352   5.968   8.911  -0.782 -0.0174 -0.0103 -0.3785
    8CHTO    H8 3353   6.070   8.943  -0.769 -0.8566  1.4903  3.1460
    8CHTO    H9 3354   5.930   8.945  -0.878 -0.5659  0.6193  0.0552
    8CHTO    C4 3355   5.920   8.916  -0.532  0.2341  0.6180  0.0564
    8CHTO   H17 3356   5.891   8.811  -0.536 -0.6483  0.8960 -1.0836
    8CHTO    O1 3357   5.841   8.975  -0.432  0.0985 -0.5301  0.1655
    8CHTO    C5 3358   5.697   8.970  -0.439 -0.4148  0.2985  0.7794
    8CHTO   H18 3359   5.675   8.864  -0.443 -0.0710  0.2636 -0.5251
    8CHTO   C16 3360   5.634   9.033  -0.319  0.6252 -0.1144 -0.1055
    8CHTO   O11 3361   5.660   8.949  -0.205  0.3105  0.4814 -0.2646
    8CHTO    H5 3362   5.612   8.982  -0.132 -0.1105 -1.7036  0.4808
    8CHTO    O3 3363   6.056   8.933  -0.489 -0.4961 -0.3573 -0.1399
    8CHTO    C6 3364   6.106   8.822  -0.404 -0.0382  0.6200 -0.3708
    8CHTO   H19 3365   6.019   8.774  -0.359  1.0188  0.0463  1.1213
    8CHTO    C8 3366   6.194   8.726  -0.486 -0.8699  0.6979  0.2953
    8CHTO   H21 3367   6.256   8.786  -0.553  1.3942 -0.8187  0.9581
    8CHTO    O7 3368   6.105   8.647  -0.562 -0.6202 -0.3212 -0.3774
    8CHTO    H2 3369   6.053   8.587  -0.512 -1.7151  1.0003  0.1020
    8CHTO   C12 3370   6.291   8.628  -0.403 -0.7292  0.1291 -0.4759
    8CHTO   H25 3371   6.233   8.550  -0.350  2.6812 -0.3297  2.7785
    8CHTO    N3 3372   6.386   8.559  -0.493  0.3690 -0.0539 -0.2378
    8CHTO   H12 3373   6.447   8.489  -0.439 -1.0890 -0.5941  0.7220
    8CHTO   H13 3374   6.456   8.616  -0.553 -1.1394  1.5209 -0.5552
    8CHTO   C15 3375   6.356   8.712  -0.290  0.3024  0.0075 -0.4765
    8CHTO   H28 3376   6.420   8.792  -0.327 -0.9801  1.1600 -0.2538
    8CHTO   O10 3377   6.414   8.654  -0.197 -0.0820 -0.3319 -0.3336
    8CHTO    H4 3378   6.507   8.652  -0.204  0.0525 -1.7359  1.4637
    8CHTO    O5 3379   6.249   8.772  -0.215 -0.2560 -0.3384  0.3082
    8CHTO   C10 3380   6.182   8.882  -0.286  0.1189 -0.1596  0.1627
    8CHTO   H23 3381   6.259   8.945  -0.331 -0.3476  1.0432  1.0235
    8CHTO   C17 3382   6.094   8.955  -0.187  0.3117 -0.5759 -0.1852
    8CHTO   O12 3383   6.100   9.098  -0.204 -0.2295  0.5647  0.3882
    8CHTO    H6 3384   6.184   9.137  -0.214 -1.1460  2.8229  1.2692
    9CHTO  H203 3385   7.868   3.751   0.731 -0.2100 -1.8006  1.3539
    9CHTO   O82 3386   7.919   3.821   0.766 -0.5419 -0.5477 -0.6331
    9CHTO  C123 3387   8.049   3.837   0.709 -0.1598 -0.6775  0.1353
    9CHTO  H227 3388   8.117   3.881   0.783 -0.6598  1.2228 -0.5091
    9CHTO   O77 3389   8.091   3.704   0.683  0.5725 -0.3256  0.2646
    9CHTO  C118 3390   8.209   3.676   0.614  0.4167  0.1745 -0.0476
    9CHTO  H222 3391   8.290   3.727   0.668  2.0048 -0.9596 -1.3191
    9CHTO  C125 3392   8.240   3.520   0.615  1.0044 -0.0595 -0.2041
    9CHTO   O84 3393   8.224   3.470   0.744 -0.1345 -0.2518  0.0614
    9CHTO  H205 3394   8.133   3.458   0.762  0.0189  0.0483  1.0842
    9CHTO  C114 3395   8.191   3.736   0.472  0.8881  0.0938 -0.3087
    9CHTO  H218 3396   8.113   3.679   0.421  1.9521 -1.5663 -0.1110
    9CHTO  C116 3397   8.147   3.887   0.472  0.5740 -0.8386 -0.8113
    9CHTO  H220 3398   8.234   3.951   0.497 -2.0030  1.9920  1.4978
    9CHTO   O79 3399   8.125   3.928   0.339 -0.5193  0.2897  0.0743
    9CHTO  H201 3400   8.204   3.951   0.294  0.6326 -0.3922  1.6981
    9CHTO  C120 3401   8.027   3.918   0.573  0.3355  0.1824 -0.2020
    9CHTO  H224 3402   7.938   3.874   0.523  1.3095  0.5696 -2.3617
    9CHTO   N21 3403   8.001   4.067   0.590 -0.3340  0.2289 -0.1667
    9CHTO  H211 3404   8.054   4.120   0.511  1.2493 -1.6885 -0.4122
    9CHTO  H212 3405   8.050   4.094   0.682  0.4385 -0.7471 -0.2916
    9CHTO   O75 3406   8.316   3.717   0.409 -0.0822 -0.9827 -0.3980
    9CHTO  C112 3407   8.312   3.673   0.246 -0.1898 -0.5914 -0.4157
    9CHTO  H216 3408   8.215   3.707   0.208 -1.1448 -1.9284  0.7716
    9CHTO   O73 3409   8.326   3.532   0.242  0.7223 -0.5041  0.4819
    9CHTO  C113 3410   8.336   3.455   0.121  0.3218  0.0491 -0.1746
    9CHTO  H217 3411   8.248   3.479   0.057 -0.4301 -2.2565 -0.0370
    9CHTO  C124 3412   8.329   3.300   0.151  0.1806 -0.2912 -0.0508
    9CHTO   O83 3413   8.429   3.258   0.239 -0.3924 -0.8465 -0.6970
    9CHTO  H204 3414   8.418   3.299   0.322 -1.7292 -0.7167 -0.9332
    9CHTO  C109 3415   8.454   3.507   0.034  0.3530  0.0920  0.2947
    9CHTO  H213 3416   8.548   3.478   0.083  0.4104  0.9563  0.6918
    9CHTO  C110 3417   8.439   3.665   0.017  0.1315 -0.0671 -0.0532
    9CHTO  H214 3418   8.344   3.685  -0.032 -0.9264 -0.1276  1.9187
    9CHTO   O78 3419   8.542   3.713  -0.069 -0.5860  0.0967 -0.1029
    9CHTO  H200 3420   8.552   3.659  -0.145  0.0360 -0.4559  0.3637
    9CHTO  C111 3421   8.428   3.735   0.158 -0.0880 -0.8588  0.4511
    9CHTO  H215 3422   8.521   3.716   0.213 -0.4449 -2.3538  0.5556
    9CHTO   N19 3423   8.409   3.884   0.148 -0.3042 -0.0931 -0.1118
    9CHTO  H207 3424   8.312   3.896   0.101  0.1508 -0.8096 -1.2376
    9CHTO  H208 3425   8.424   3.928   0.246  2.1818  0.8305 -0.8896
    9CHTO   O74 3426   8.447   3.450  -0.099  0.4071  0.4680 -0.1741
    9CHTO  C115 3427   8.600   3.419  -0.152 -0.1220  1.0370  0.8255
    9CHTO  H219 3428   8.675   3.475  -0.096  1.2978  0.1925 -0.1998
    9CHTO   O76 3429   8.632   3.263  -0.133  0.4421 -0.1294  0.0753
    9CHTO  C122 3430   8.544   3.179  -0.210  0.2451  0.0218 -0.0336
    9CHTO  H226 3431   8.438   3.189  -0.187  0.7190  0.5600  2.0492
    9CHTO  C126 3432   8.579   3.028  -0.167 -0.7695 -0.5592 -0.4310
    9CHTO   O85 3433   8.714   2.987  -0.200  0.1458 -0.3476 -0.0770
    9CHTO  H206 3434   8.748   2.924  -0.139  0.4145  0.0248  0.1631
    9CHTO  C121 3435   8.557   3.211  -0.365 -0.0859 -0.0206  0.3002
    9CHTO  H225 3436   8.658   3.201  -0.408  0.5649  2.7339  1.0682
    9CHTO   O81 3437   8.483   3.110  -0.439  0.1266 -0.8913 -0.1929
    9CHTO  H202 3438   8.490   3.025  -0.400  0.3024 -0.9892 -0.4397
    9CHTO  C119 3439   8.504   3.360  -0.382 -0.3051 -0.4155 -0.2807
    9CHTO  H223 3440   8.512   3.382  -0.488 -1.5316  0.1162 -0.2773
    9CHTO  C117 3441   8.599   3.464  -0.306  0.3533 -0.0703 -0.0641
    9CHTO  H221 3442   8.559   3.565  -0.301  1.7945  0.5445 -0.9473
    9CHTO   N20 3443   8.739   3.478  -0.356 -0.0121 -0.2408 -0.3257
    9CHTO  H209 3444   8.773   3.384  -0.396  1.4896  1.3806 -3.0855
    9CHTO  H210 3445   8.747   3.564  -0.422 -1.8482  0.6544  0.6003
    9CHTO   O80 3446   8.337   3.367  -0.355 -0.0826  0.0208 -0.1289
    9CHTO  C103 3447   8.247   3.467  -0.417  0.0235  0.4552  0.3120
    9CHTO  H190 3448   8.158   3.475  -0.356 -0.1331 -0.0890  0.1596
    9CHTO  C101 3449   8.308   3.615  -0.439  0.7754  0.0681  0.3547
    9CHTO  H188 3450   8.410   3.601  -0.475  0.0448 -1.8375 -1.0161
    9CHTO   O68 3451   8.303   3.699  -0.291  0.1909 -0.5030 -0.1711
    9CHTO  H168 3452   8.339   3.785  -0.305 -0.0277 -0.3567  0.1542
    9CHTO   C99 3453   8.221   3.696  -0.556 -0.6177  0.8902 -0.2157
    9CHTO  H186 3454   8.123   3.724  -0.513 -1.3271 -0.9861 -0.5706
    9CHTO   N17 3455   8.289   3.821  -0.591 -0.2792 -0.5017  0.0330
    9CHTO  H174 3456   8.328   3.873  -0.505 -0.4108 -0.5580  0.1248
    9CHTO  H175 3457   8.376   3.791  -0.648  0.7214  0.1568  1.1868
    9CHTO   C97 3458   8.192   3.612  -0.684  0.3077  0.4600 -0.0661
    9CHTO  H184 3459   8.287   3.597  -0.737  0.5884  0.9921  0.2918
    9CHTO   O64 3460   8.126   3.486  -0.648  0.2774  0.2362 -0.2273
    9CHTO  C104 3461   8.206   3.405  -0.557  0.1417  0.2346 -0.4818
    9CHTO  H191 3462   8.296   3.369  -0.608 -0.0644  0.6006 -1.1111
    9CHTO  C108 3463   8.124   3.275  -0.529 -0.5304 -0.4127  0.6710
    9CHTO   O71 3464   8.108   3.173  -0.631 -0.8286 -0.3776 -0.3305
    9CHTO  H171 3465   8.179   3.182  -0.693 -0.4011 -1.7206 -0.0622
    9CHTO   O62 3466   8.091   3.675  -0.759 -0.3226 -0.0350 -0.2062
    9CHTO   C91 3467   8.070   3.634  -0.901 -0.2776  0.5023 -0.0556
    9CHTO  H178 3468   8.128   3.545  -0.921  1.5425  1.5152  0.6060
    9CHTO   C92 3469   8.141   3.727  -1.006  0.5280  0.4402  0.8191
    9CHTO  H179 3470   8.248   3.718  -0.986  0.7824 -0.1649 -0.7009
    9CHTO   O66 3471   8.127   3.663  -1.136 -0.3489 -0.0470 -0.8591
    9CHTO  H166 3472   8.178   3.585  -1.143  0.9727  0.7891 -0.7315
    9CHTO   C93 3473   8.072   3.863  -1.011  0.5548  0.1075 -0.3769
    9CHTO  H180 3474   8.084   3.900  -1.114 -0.0987 -0.3331 -0.6159
    9CHTO   N16 3475   8.135   3.968  -0.930 -0.4176  0.2489 -0.2720
    9CHTO  H172 3476   8.087   3.971  -0.833 -0.3968  0.0144 -0.2528
    9CHTO  H173 3477   8.103   4.056  -0.984  0.5699 -0.7626 -2.5706
    9CHTO   C94 3478   7.918   3.854  -0.981  0.5082 -0.3520  0.2974
    9CHTO  H181 3479   7.894   3.882  -0.878 -2.3154 -0.9160 -0.1684
    9CHTO   O61 3480   7.863   3.721  -1.004  0.3106 -0.2907 -0.0877
    9CHTO   C95 3481   7.919   3.615  -0.933 -0.7011  0.2468  0.0237
    9CHTO  H182 3482   7.864   3.612  -0.838  0.7365  1.0772  0.8932
    9CHTO  C106 3483   7.891   3.486  -1.016  0.1474 -0.1488 -0.2487
    9CHTO   O69 3484   7.931   3.365  -0.949 -0.1734 -0.4822  0.4135
    9CHTO  H169 3485   8.024   3.363  -0.937 -0.3301  2.3120  2.6100
    9CHTO   O63 3486   7.843   3.968  -1.077  0.5053  0.2749 -0.1301
    9CHTO   C96 3487   7.705   3.987  -1.031  0.1232  0.4315 -0.1356
    9CHTO  H183 3488   7.681   3.917  -0.950  1.2073  0.2087 -0.0051
    9CHTO   C98 3489   7.604   3.962  -1.145 -0.2460  0.6136 -0.4686
    9CHTO  H185 3490   7.633   4.019  -1.235 -0.7321  0.5899 -0.6410
    9CHTO   O67 3491   7.625   3.826  -1.178 -0.5785  0.6309  0.0083
    9CHTO  H167 3492   7.702   3.822  -1.231  1.5808  0.2572  3.0833
    9CHTO  C102 3493   7.458   3.997  -1.109 -0.6455  0.1646 -0.5743
    9CHTO  H189 3494   7.434   3.922  -1.032 -1.4104 -0.1911 -1.1501
    9CHTO   N18 3495   7.362   3.974  -1.217  0.6924  0.0068  0.2647
    9CHTO  H176 3496   7.373   4.041  -1.300 -1.1510 -1.1296 -0.9327
    9CHTO  H177 3497   7.371   3.870  -1.244 -0.7975 -0.1273  0.2548
    9CHTO  C105 3498   7.454   4.138  -1.040  0.0160 -0.0829  0.0589
    9CHTO  H192 3499   7.474   4.213  -1.117 -0.8336  1.7908  1.6344
    9CHTO   O65 3500   7.552   4.162  -0.941  0.3118  0.3450 -0.0266
    9CHTO  C100 3501   7.684   4.135  -0.985  0.0526  1.2620  0.6316
    9CHTO  H187 3502   7.704   4.202  -1.069  2.6167  1.6815  1.5226
    9CHTO  C107 3503   7.782   4.169  -0.871  0.4302 -0.6174  0.2971
    9CHTO   O70 3504   7.760   4.305  -0.832 -0.3109 -0.5102  0.0618
    9CHTO  H170 3505   7.822   4.319  -0.763  0.8285 -0.4858 -0.9630
    9CHTO   O57 3506   7.322   4.154  -0.965  0.0048  0.3725  0.2108
    9CHTO   C85 3507   7.262   4.282  -0.969 -1.0698 -0.3255 -0.2417
    9CHTO  H157 3508   7.252   4.312  -1.075  2.6296 -0.5890 -0.7584
    9CHTO   C83 3509   7.358   4.394  -0.904  0.5050 -0.4040  0.5213
    9CHTO  H155 3510   7.450   4.400  -0.963 -0.7241 -2.0054 -1.6375
    9CHTO   O56 3511   7.399   4.359  -0.776  0.4571  0.3242  0.0353
    9CHTO  H135 3512   7.437   4.439  -0.746  3.1698 -0.6671 -0.5150
    9CHTO   C81 3513   7.287   4.535  -0.910  0.7826  0.2016  0.2361
    9CHTO  H153 3514   7.264   4.561  -1.013  2.5233  1.7066  0.2137
    9CHTO   N14 3515   7.383   4.641  -0.863 -0.2541 -0.4642  0.0956
    9CHTO  H141 3516   7.420   4.619  -0.765 -0.1716 -2.9104 -0.4657
    9CHTO  H142 3517   7.351   4.743  -0.869 -0.6056 -0.6882 -1.9852
    9CHTO   C79 3518   7.154   4.530  -0.828 -0.4817 -0.5050 -0.4208
    9CHTO  H151 3519   7.097   4.618  -0.858 -0.2576 -0.3633 -0.4235
    9CHTO   O52 3520   7.068   4.417  -0.874 -0.0115 -0.2724 -0.1689
    9CHTO   C86 3521   7.133   4.287  -0.888 -0.1007  0.7744  0.6796
    9CHTO  H158 3522   7.140   4.246  -0.785  0.0899 -0.8635  0.0331
    9CHTO   C90 3523   7.029   4.195  -0.962 -0.1291  0.0702  0.3296
    9CHTO   O60 3524   7.053   4.057  -0.939  0.0797 -0.4759  0.4573
    9CHTO  H138 3525   7.139   4.048  -0.976  0.3494  0.5882  0.7948
    9CHTO   O50 3526   7.174   4.533  -0.686 -0.0306 -0.1933  0.3770
    9CHTO   C73 3527   7.105   4.565  -0.561 -0.4301 -0.1562 -0.0281
    9CHTO  H145 3528   7.004   4.521  -0.560 -0.7815  0.6564  0.4352
    9CHTO   C74 3529   7.077   4.718  -0.546 -0.0990 -0.0599  0.0573
    9CHTO  H146 3530   7.024   4.745  -0.638  0.3719  1.5533  0.2534
    9CHTO   O54 3531   6.983   4.738  -0.434 -0.7685  0.2281  0.0166
    9CHTO  H133 3532   7.008   4.695  -0.354 -0.2139 -2.3190 -1.4563
    9CHTO   C75 3533   7.213   4.798  -0.534 -0.2757  0.3317  0.2035
    9CHTO  H147 3534   7.265   4.784  -0.630  0.7960 -0.0615  0.8370
    9CHTO   N13 3535   7.181   4.944  -0.505  0.1055  0.0759 -0.3783
    9CHTO  H139 3536   7.135   4.947  -0.407 -1.1780  0.9433 -0.9891
    9CHTO  H140 3537   7.102   4.984  -0.567  0.4937 -0.3695 -1.1694
    9CHTO   C76 3538   7.309   4.733  -0.424  1.7238 -0.1021  0.0622
    9CHTO  H148 3539   7.273   4.762  -0.325  1.5586 -0.0558 -0.0120
    9CHTO   O49 3540   7.313   4.587  -0.430  0.1963 -0.3882  0.4040
    9CHTO   C77 3541   7.186   4.518  -0.436  0.8342 -0.0740 -0.8942
    9CHTO  H149 3542   7.128   4.542  -0.347  2.5081 -0.4131  0.3120
    9CHTO   C88 3543   7.198   4.364  -0.435 -0.9468 -0.0644  0.1428
    9CHTO   O58 3544   7.255   4.314  -0.308  0.5130  0.2433 -0.4758
    9CHTO  H136 3545   7.186   4.292  -0.249  0.4903  0.3263 -0.4704
    9CHTO   O51 3546   7.454   4.765  -0.445  0.2115  0.1085 -0.4316
    9CHTO   C78 3547   7.553   4.686  -0.333 -0.0696  0.1791 -0.2694
    9CHTO  H150 3548   7.499   4.603  -0.284  1.3905 -0.0869  0.9340
    9CHTO   C80 3549   7.600   4.793  -0.229 -0.2307 -0.1551  0.1706
    9CHTO  H152 3550   7.635   4.880  -0.289  0.0385 -1.1487 -1.1383
    9CHTO   O55 3551   7.482   4.840  -0.156 -0.0343  0.3490 -0.2079
    9CHTO  H134 3552   7.420   4.772  -0.137 -0.4964  0.7443 -0.2919
    9CHTO   C84 3553   7.717   4.750  -0.134 -0.0754 -0.1789  0.6070
    9CHTO  H156 3554   7.673   4.685  -0.058  0.2642 -1.2881 -0.1410
    9CHTO   N15 3555   7.772   4.861  -0.053 -0.2027 -0.5375  0.1522
    9CHTO  H143 3556   7.851   4.830   0.012  1.0945  0.3986 -0.9564
    9CHTO  H144 3557   7.699   4.911   0.007 -0.2331  2.0145 -1.9572
    9CHTO   C87 3558   7.828   4.671  -0.208 -0.5795 -0.2374  0.3720
    9CHTO  H159 3559   7.886   4.736  -0.273 -1.6788  1.4570  1.0460
    9CHTO   O53 3560   7.750   4.559  -0.295  0.1122 -0.4638  0.1142
    9CHTO   C82 3561   7.674   4.622  -0.398  0.6400  0.2490 -0.3845
    9CHTO  H154 3562   7.729   4.703  -0.446 -0.2363  1.7059  1.0253
    9CHTO   C89 3563   7.628   4.516  -0.513  0.2794 -0.0814  0.3501
    9CHTO   O59 3564   7.550   4.411  -0.449 -0.1050  0.4769 -0.1979
    9CHTO  H137 3565   7.545   4.335  -0.505  0.4850 -0.8832  1.5755
    9CHTO   O45 3566   7.942   4.586  -0.089  0.0138 -0.6586 -0.4874
    9CHTO   C67 3567   7.959   4.443  -0.115 -0.3499 -0.4750  0.0368
    9CHTO  H124 3568   7.900   4.419  -0.204 -0.2446  0.4926 -0.3024
    9CHTO   C65 3569   8.114   4.407  -0.141  0.3202 -0.0659  0.1700
    9CHTO  H122 3570   8.171   4.492  -0.104  1.6912 -0.2982 -1.3412
    9CHTO   O44 3571   8.138   4.388  -0.281  0.1405  0.0440 -0.3436
    9CHTO  H102 3572   8.198   4.453  -0.312 -0.7968  0.0150 -2.3029
    9CHTO   C63 3573   8.168   4.297  -0.049  0.6237 -1.0244  0.6573
    9CHTO  H120 3574   8.170   4.336   0.053 -2.0652 -0.0660  0.3714
    9CHTO   N11 3575   8.309   4.250  -0.070 -0.0631  0.0098  0.5156
    9CHTO  H108 3576   8.339   4.307  -0.155 -1.4856 -1.8735 -1.3136
    9CHTO  H109 3577   8.369   4.293   0.008  0.8452 -0.2826 -0.0058
    9CHTO   C61 3578   8.064   4.179  -0.046  0.2055 -0.1250  0.2156
    9CHTO  H118 3579   8.098   4.117   0.038  0.0148 -0.4339  0.0639
    9CHTO   O40 3580   7.929   4.228  -0.011  0.3165  0.2437  0.2607
    9CHTO   C68 3581   7.899   4.363   0.005  0.0943 -0.1438  0.5732
    9CHTO  H125 3582   7.961   4.397   0.091  2.4013 -0.1810 -1.0068
    9CHTO   C72 3583   7.744   4.382   0.035  0.0837  0.3748  0.0150
    9CHTO   O48 3584   7.681   4.314   0.150 -0.4322 -0.2585  0.2441
    9CHTO  H105 3585   7.588   4.306   0.140 -0.2975 -0.9523 -0.5544
    9CHTO   O38 3586   8.062   4.106  -0.174 -0.2605 -0.1023  0.1996
    9CHTO   C55 3587   7.977   3.991  -0.191 -0.2675  0.1774  0.0444
    9CHTO  H112 3588   7.883   4.021  -0.143  1.1229  1.4797  2.0273
    9CHTO   C56 3589   8.039   3.861  -0.127  0.2674 -0.0229 -0.6392
    9CHTO  H113 3590   8.136   3.839  -0.175  0.5317  1.6925 -0.9348
    9CHTO   O42 3591   8.062   3.865   0.018  0.7256 -0.4920 -0.7937
    9CHTO  H100 3592   7.998   3.915   0.065  2.5184 -0.3557  1.6208
    9CHTO   C57 3593   7.930   3.747  -0.160 -0.2448 -0.4660 -0.2260
    9CHTO  H114 3594   7.854   3.763  -0.084 -0.9427 -0.7351 -0.8691
    9CHTO   N10 3595   7.975   3.607  -0.138  0.4986 -0.1100  0.0277
    9CHTO  H106 3596   7.895   3.540  -0.110 -0.3527  1.3510  1.1330
    9CHTO  H107 3597   8.038   3.563  -0.215  1.7930  1.5426  0.1216
    9CHTO   C58 3598   7.862   3.753  -0.297 -0.2834 -0.4600  0.5827
    9CHTO  H115 3599   7.923   3.694  -0.369  0.4124 -0.2356  0.9815
    9CHTO   O37 3600   7.826   3.879  -0.351 -0.4686  0.5063  0.1369
    9CHTO   C59 3601   7.940   3.968  -0.342 -0.4981  0.3341  0.8593
    9CHTO  H116 3602   8.032   3.926  -0.383 -0.4402  0.7031  0.6156
    9CHTO   C70 3603   7.916   4.101  -0.406 -0.7413  0.1725 -0.0984
    9CHTO   O46 3604   7.889   4.087  -0.548  0.0694  0.7198 -0.1697
    9CHTO  H103 3605   7.962   4.109  -0.602 -0.6951  0.1450 -1.4411
    9CHTO   O39 3606   7.713   3.682  -0.282 -0.2597 -0.5972 -0.1571
    9CHTO   C60 3607   7.698   3.550  -0.329  0.2044  0.1224 -0.8928
    9CHTO  H117 3608   7.792   3.495  -0.335  1.0010  1.2379  0.8541
    9CHTO   C62 3609   7.625   3.476  -0.218  0.7610  0.0035  0.4077
    9CHTO  H119 3610   7.694   3.486  -0.132 -0.4725  2.0062  1.2064
    9CHTO   O43 3611   7.495   3.540  -0.198 -0.5789 -0.1336  0.0886
    9CHTO  H101 3612   7.508   3.619  -0.148  1.2833  1.9909 -3.5782
    9CHTO   C66 3613   7.614   3.325  -0.260 -0.4412  0.1543 -0.6433
    9CHTO  H123 3614   7.714   3.292  -0.290 -1.0131 -2.2568 -0.0079
    9CHTO   N12 3615   7.563   3.231  -0.158  0.3804  0.5741  0.2053
    9CHTO  H110 3616   7.550   3.134  -0.202  1.5721 -0.2610  1.6685
    9CHTO  H111 3617   7.616   3.229  -0.064  0.0177  0.6974  0.4152
    9CHTO   C69 3618   7.528   3.318  -0.388  0.1034  0.2738 -0.1517
    9CHTO  H126 3619   7.428   3.360  -0.368  0.1984  0.0641  0.8080
    9CHTO   O41 3620   7.592   3.385  -0.503 -0.0505 -0.4978  0.1234
    9CHTO   C64 3621   7.631   3.542  -0.466 -0.5264  0.1234 -0.0325
    9CHTO  H121 3622   7.535   3.598  -0.468 -1.6189 -1.7174 -1.3323
    9CHTO   C71 3623   7.728   3.605  -0.571 -0.6232  0.3127 -0.0142
    9CHTO   O47 3624   7.848   3.525  -0.584 -0.9147  0.2600  0.6887
    9CHTO  H104 3625   7.897   3.564  -0.653 -1.8114  0.4405  0.1459
    9CHTO   O34 3626   7.507   3.158  -0.430 -0.7872  0.8137 -0.0576
    9CHTO   C49 3627   7.574   3.087  -0.568 -0.9359  0.2578 -0.0469
    9CHTO   H91 3628   7.509   3.118  -0.650 -0.2049  0.3168 -0.6099
    9CHTO   C47 3629   7.553   2.937  -0.555 -0.2142  0.2604 -0.1299
    9CHTO   H89 3630   7.593   2.888  -0.646  1.6501  2.9956 -0.8673
    9CHTO   O33 3631   7.411   2.923  -0.554 -0.1895  0.4889  0.3184
    9CHTO   H70 3632   7.386   2.890  -0.638  2.0565  1.1900 -0.6473
    9CHTO   C45 3633   7.632   2.883  -0.425  0.3190 -0.0393 -0.1630
    9CHTO   H87 3634   7.568   2.904  -0.338  2.1599  1.2874  0.9093
    9CHTO    N8 3635   7.646   2.738  -0.447 -0.2701  0.0394  0.2175
    9CHTO   H75 3636   7.714   2.720  -0.529  0.0570  0.3760  0.4141
    9CHTO   H76 3637   7.548   2.694  -0.459 -0.6596  1.1186 -0.5153
    9CHTO   C43 3638   7.774   2.966  -0.407  0.3663  0.5425 -0.4376
    9CHTO   H85 3639   7.751   3.041  -0.332 -0.8733 -1.1779  0.9450
    9CHTO   O29 3640   7.824   3.015  -0.535  0.5211 -0.4652 -0.2867
    9CHTO   C50 3641   7.732   3.115  -0.592 -0.1986  0.2228 -0.6146
    9CHTO   H92 3642   7.766   3.212  -0.551  2.3155 -0.9207  0.1094
    9CHTO   C54 3643   7.757   3.127  -0.751 -0.1434  0.5647  0.4827
    9CHTO   O36 3644   7.762   3.003  -0.825 -0.2703  0.3482 -0.6473
    9CHTO   H72 3645   7.776   2.934  -0.763  0.4411  1.6607  0.6874
    9CHTO   O27 3646   7.881   2.893  -0.336  0.4539  0.4078 -0.2024
    9CHTO   C37 3647   7.953   2.920  -0.209 -0.3612  0.4057  0.2867
    9CHTO   H79 3648   8.021   2.835  -0.193  0.3071  0.5869 -1.4900
    9CHTO   C38 3649   8.037   3.057  -0.228  0.0281 -0.1241 -0.3263
    9CHTO   H80 3650   7.985   3.119  -0.302  0.2756  0.2414 -0.1987
    9CHTO   O31 3651   8.158   3.015  -0.294 -0.3203 -0.0802 -0.0914
    9CHTO   H68 3652   8.146   3.022  -0.386  0.7140 -0.0779 -0.2310
    9CHTO   C39 3653   8.058   3.138  -0.094  0.1865 -0.1941  0.0894
    9CHTO   H81 3654   8.141   3.099  -0.034 -0.2645 -0.9269  0.2437
    9CHTO    N7 3655   8.095   3.285  -0.111 -0.2760 -0.4327  0.1745
    9CHTO   H73 3656   8.032   3.350  -0.052 -1.9582 -0.4511 -1.5532
    9CHTO   H74 3657   8.100   3.320  -0.213  2.1279  1.1602  0.7884
    9CHTO   C40 3658   7.938   3.129   0.002  0.1540  0.1353 -0.1782
    9CHTO   H82 3659   7.851   3.180  -0.039  0.0968 -0.6598 -1.0804
    9CHTO   O26 3660   7.912   2.986   0.028 -0.5053  0.0500  0.0966
    9CHTO   C41 3661   7.856   2.922  -0.093 -0.1491 -0.0270 -0.2510
    9CHTO   H83 3662   7.766   2.973  -0.131  1.1745  2.2724 -0.4260
    9CHTO   C52 3663   7.817   2.775  -0.063 -0.0668 -0.3293 -0.5108
    9CHTO   O35 3664   7.708   2.764   0.026 -0.3490 -0.2242  0.4873
    9CHTO   H71 3665   7.737   2.798   0.109  0.8680 -0.2257  0.0742
    9CHTO   O28 3666   7.968   3.166   0.140 -0.5634 -0.1407  0.3645
    9CHTO   C42 3667   7.864   3.226   0.226  0.3177  0.5493  0.0122
    9CHTO   H84 3668   7.901   3.204   0.326  1.0421 -1.5957 -0.7022
    9CHTO   C44 3669   7.717   3.168   0.229  0.2452  0.4079  0.5963
    9CHTO   H86 3670   7.683   3.150   0.126  0.2107  2.4563  0.2363
    9CHTO   O32 3671   7.725   3.035   0.286  0.3816  0.0809 -0.4520
    9CHTO   H69 3672   7.664   2.975   0.248 -0.6248  1.1904 -0.5942
    9CHTO   C48 3673   7.606   3.255   0.300  0.3845 -0.3611 -0.0117
    9CHTO   H90 3674   7.626   3.257   0.407 -1.1648  1.1748  0.2744
    9CHTO    N9 3675   7.463   3.211   0.292 -0.2435  1.1260  0.0232
    9CHTO   H77 3676   7.447   3.113   0.335  0.3710 -0.1100 -2.4777
    9CHTO   H78 3677   7.398   3.290   0.325 -0.9853 -0.5258  2.7014
    9CHTO   C51 3678   7.630   3.405   0.242 -0.1873 -0.0924 -0.2609
    9CHTO   H93 3679   7.606   3.401   0.136  0.5220  0.6117 -0.4521
    9CHTO   O30 3680   7.768   3.445   0.264 -0.5927 -0.0203 -0.3377
    9CHTO   C46 3681   7.867   3.376   0.208 -0.4838  0.6586  0.3731
    9CHTO   H88 3682   7.867   3.393   0.100 -0.1415 -1.1634  0.0714
    9CHTO   C53 3683   7.997   3.443   0.258 -0.2811  0.4334 -0.2493
    9CHTO   O72 3684   7.996   3.571   0.193  0.2980 -0.1076  0.4961
    9CHTO  H199 3685   7.944   3.630   0.244  0.1654 -1.4134  1.9095
    9CHTO   O22 3686   7.543   3.505   0.306 -0.1880  0.1250 -0.0333
    9CHTO   C31 3687   7.516   3.645   0.256  0.4382  0.6189  0.1068
    9CHTO   H59 3688   7.458   3.699   0.333 -0.4152 -1.6541  1.0913
    9CHTO   C29 3689   7.645   3.731   0.230 -0.2712  0.1997  0.0190
    9CHTO   H57 3690   7.714   3.675   0.165 -1.5699  0.0630 -1.2758
    9CHTO   O21 3691   7.705   3.744   0.366 -0.1217 -0.3948  0.2111
    9CHTO   H37 3692   7.658   3.813   0.409  1.6229  1.3701 -0.6218
    9CHTO   C27 3693   7.620   3.877   0.178 -0.0148 -0.5042  0.3314
    9CHTO   H55 3694   7.575   3.935   0.259  0.1473 -0.8315  0.6532
    9CHTO    N5 3695   7.744   3.947   0.138 -0.2318 -0.7544 -0.1172
    9CHTO   H43 3696   7.787   3.892   0.056  1.8525 -0.1125  0.5036
    9CHTO   H44 3697   7.805   3.971   0.225 -0.2417  0.8387 -0.5379
    9CHTO   C25 3698   7.526   3.870   0.057 -0.1061  0.2098  0.6610
    9CHTO   H53 3699   7.583   3.820  -0.022 -1.8113  0.1422 -0.5511
    9CHTO   O17 3700   7.406   3.782   0.078 -0.1632 -0.3337 -0.0478
    9CHTO   C32 3701   7.428   3.651   0.127 -0.1673 -0.0751 -0.0898
    9CHTO   H60 3702   7.489   3.601   0.052  1.6765  1.5048  0.3383
    9CHTO   C36 3703   7.287   3.586   0.153  0.1978  0.5465 -0.1322
    9CHTO   O25 3704   7.246   3.546   0.022  0.1405 -0.2430 -0.0682
    9CHTO   H40 3705   7.222   3.623  -0.027  1.9459 -0.4675 -1.3266
    9CHTO   O15 3706   7.480   4.026   0.006 -0.4475 -0.0305  0.0886
    9CHTO   C19 3707   7.427   4.051  -0.126 -0.5581 -0.4051  0.1457
    9CHTO   H47 3708   7.440   4.159  -0.139 -0.2288 -0.4661 -0.0560
    9CHTO   C20 3709   7.508   3.989  -0.240 -0.3492  0.5503 -0.7211
    9CHTO   H48 3710   7.514   3.880  -0.233  0.6320  0.5182 -1.8125
    9CHTO   O19 3711   7.645   4.033  -0.227  0.1512 -0.4463 -0.3895
    9CHTO   H35 3712   7.710   3.980  -0.269  1.2684 -0.8617  1.7579
    9CHTO   C21 3713   7.460   4.027  -0.381  0.1747 -0.1197 -0.2427
    9CHTO   H49 3714   7.451   4.135  -0.390 -1.0639 -0.0641  1.4009
    9CHTO    N4 3715   7.538   3.960  -0.498 -0.2593  0.4411  0.0565
    9CHTO   H41 3716   7.480   3.973  -0.588  1.6253  1.2336 -1.0657
    9CHTO   H42 3717   7.637   4.003  -0.507  0.5673 -1.1269  1.3851
    9CHTO   C22 3718   7.311   3.982  -0.381 -0.0417  0.5615  0.2464
    9CHTO   H50 3719   7.304   3.875  -0.366 -0.4689  0.8086  1.9503
    9CHTO   O14 3720   7.235   4.048  -0.277 -0.0411  0.5093 -0.3060
    9CHTO   C23 3721   7.272   4.015  -0.140  0.3547 -0.5508 -0.4167
    9CHTO   H51 3722   7.250   3.909  -0.120 -1.8525 -0.0934 -0.2408
    9CHTO   C34 3723   7.174   4.090  -0.048 -0.0526  0.5901  0.3420
    9CHTO   O23 3724   7.212   4.230  -0.038  0.1455  0.7511  0.3013
    9CHTO   H38 3725   7.286   4.252  -0.093  1.3100  1.5820  2.1385
    9CHTO   O16 3726   7.242   4.012  -0.504  0.0362 -0.1007 -0.0395
    9CHTO   C24 3727   7.138   3.905  -0.544 -0.8693  0.1657 -0.2774
    9CHTO   H52 3728   7.123   3.829  -0.466 -1.1626  0.9897  0.4729
    9CHTO   C26 3729   7.173   3.847  -0.684 -0.4852  0.4128 -0.0173
    9CHTO   H54 3730   7.183   3.924  -0.763  1.1138 -0.8861 -1.1154
    9CHTO   O20 3731   7.301   3.779  -0.689 -0.4769 -0.2084 -0.7186
    9CHTO   H36 3732   7.370   3.835  -0.662 -0.4601  0.3430 -1.8913
    9CHTO   C30 3733   7.063   3.750  -0.736  0.3274  0.5135  0.4417
    9CHTO   H58 3734   7.053   3.665  -0.666 -0.2977 -0.3231 -0.6502
    9CHTO    N6 3735   7.080   3.700  -0.876 -0.0108 -0.3559  0.0953
    9CHTO   H45 3736   6.986   3.694  -0.930 -1.4365 -0.5227  2.5187
    9CHTO   H46 3737   7.146   3.769  -0.926 -1.5537  1.3307  0.3711
    9CHTO   C33 3738   6.921   3.819  -0.714 -0.1685 -0.1190 -0.3414
    9CHTO   H61 3739   6.914   3.903  -0.785 -2.7607  0.8011  0.9754
    9CHTO   O18 3740   6.904   3.871  -0.581  0.8381 -0.5502  0.1492
    9CHTO   C28 3741   7.000   3.974  -0.564 -0.0619 -0.1527  0.0695
    9CHTO   H56 3742   7.006   4.041  -0.650  0.1539 -1.2734 -0.7870
    9CHTO   C35 3743   6.957   4.060  -0.438  0.0602  0.1954 -0.0403
    9CHTO   O24 3744   6.857   4.155  -0.473 -0.5513 -0.0178 -0.1972
    9CHTO   H39 3745   6.829   4.190  -0.390 -0.7169  1.4303 -0.8491
    9CHTO    O9 3746   6.816   3.726  -0.753 -0.0116  0.0780 -0.3824
    9CHTO   C13 3747   6.690   3.819  -0.830  0.4537  0.2527  0.6418
    9CHTO   H26 3748   6.737   3.884  -0.906  0.0655 -1.1553 -0.8375
    9CHTO   C11 3749   6.624   3.911  -0.717 -0.2948  0.0239 -0.4072
    9CHTO   H24 3750   6.693   3.980  -0.667 -0.0903 -0.2179 -0.3580
    9CHTO    O8 3751   6.585   3.828  -0.606  0.4592 -0.1834  0.2491
    9CHTO    H3 3752   6.651   3.815  -0.541 -2.2701 -1.7514  2.8445
    9CHTO    C9 3753   6.510   3.996  -0.784  0.4027 -0.5440  0.7562
    9CHTO   H22 3754   6.555   4.041  -0.874  2.3106 -1.7408  1.0856
    9CHTO    N2 3755   6.447   4.105  -0.702 -0.3919 -0.2547  0.3493
    9CHTO   H10 3756   6.515   4.182  -0.668 -2.2456  2.2403 -1.4464
    9CHTO   H11 3757   6.350   4.151  -0.713  0.3971  1.6760  1.2551
    9CHTO    C7 3758   6.405   3.888  -0.825  0.1681 -0.4030 -0.2709
    9CHTO   H20 3759   6.336   3.952  -0.882  1.2694  0.4497 -0.6586
    9CHTO    O4 3760   6.456   3.789  -0.919  0.0092  0.3735 -1.1033
    9CHTO   C14 3761   6.585   3.722  -0.900 -0.0162 -0.5808  0.2217
    9CHTO   H27 3762   6.612   3.698  -1.005 -0.6740  1.7999 -0.5242
    9CHTO   C18 3763   6.549   3.583  -0.832  0.5712 -0.5645 -0.3023
    9CHTO   O13 3764   6.468   3.498  -0.911  0.0898 -0.2987 -0.3227
    9CHTO    H7 3765   6.527   3.441  -0.957  0.7059  0.1488 -0.0894
    9CHTO    O2 3766   6.339   3.814  -0.692  0.1865  0.1354  0.6826
    9CHTO    C1 3767   6.192   3.799  -0.690  0.1659  0.7495  0.3988
    9CHTO   H14 3768   6.177   3.708  -0.628  0.2067  0.9809  0.7522
    9CHTO    C2 3769   6.124   3.777  -0.828  0.3383  0.0727 -0.0024
    9CHTO   H15 3770   6.136   3.872  -0.883  2.2908  1.0679  2.0429
    9CHTO    O6 3771   6.193   3.669  -0.894 -0.1685 -0.9725 -0.7389
    9CHTO    H1 3772   6.157   3.659  -0.981 -3.6199  0.3217  0.4451
    9CHTO    C3 3773   5.962   3.742  -0.802  0.8714 -0.0058  0.1238
    9CHTO   H16 3774   5.970   3.647  -0.749 -0.3446 -0.2157 -0.0574
    9CHTO    N1 3775   5.878   3.729  -0.927  0.3506 -0.0252 -0.1946
    9CHTO    H8 3776   5.873   3.828  -0.970  1.4595 -0.3001 -0.9868
    9CHTO    H9 3777   5.779   3.689  -0.911 -0.2391  0.8654 -1.5852
    9CHTO    C4 3778   5.899   3.850  -0.701  0.0674  0.5885  0.9265
    9CHTO   H17 3779   5.881   3.946  -0.750 -1.4527  1.5312  3.1903
    9CHTO    O1 3780   5.989   3.871  -0.591  0.2352 -0.1953 -0.4739
    9CHTO    C5 3781   6.120   3.915  -0.614 -1.0366  0.0341  0.3978
    9CHTO   H18 3782   6.125   4.002  -0.679 -0.2938  0.6829  1.3146
    9CHTO   C16 3783   6.186   3.959  -0.475  0.3508 -0.9114 -0.3406
    9CHTO   O11 3784   6.152   4.098  -0.456 -0.1583  0.2158 -0.5787
    9CHTO    H5 3785   6.123   4.104  -0.367  1.4152  0.9380 -0.1090
    9CHTO    O3 3786   5.768   3.803  -0.641 -0.4558 -0.2219  1.0315
    9CHTO    C6 3787   5.662   3.900  -0.599  0.8612 -0.2327  0.1765
    9CHTO   H19 3788   5.683   4.002  -0.633 -1.7601  1.3025  2.9100
    9CHTO    C8 3789   5.530   3.873  -0.671 -0.3438  0.4104 -0.3135
    9CHTO   H21 3790   5.503   3.768  -0.660 -1.5946  0.6624 -0.9443
    9CHTO    O7 3791   5.546   3.915  -0.806 -0.4407  0.1345 -0.1917
    9CHTO    H2 3792   5.492   3.863  -0.863  0.0921 -0.0656 -0.5157
    9CHTO   C12 3793   5.408   3.958  -0.610  0.2092  0.3241  0.6071
    9CHTO   H25 3794   5.415   4.061  -0.651  1.9682 -0.1397 -0.3350
    9CHTO    N3 3795   5.277   3.907  -0.671 -0.4315  0.0929  0.1215
    9CHTO   H12 3796   5.205   3.986  -0.685  0.3959  0.7420 -0.4887
    9CHTO   H13 3797   5.293   3.851  -0.761  0.0647  0.3419  0.0527
    9CHTO   C15 3798   5.413   3.956  -0.451 -0.0659  0.0550  0.5399
    9CHTO   H28 3799   5.400   3.858  -0.405  3.0853 -0.9411 -0.5349
    9CHTO   O10 3800   5.322   4.062  -0.388  0.5189 -0.7568  0.3119
    9CHTO    H4 3801   5.326   4.058  -0.294 -1.4726 -2.3960  0.3581
    9CHTO    O5 3802   5.545   4.009  -0.423 -0.0327 -0.6456 -0.6362
    9CHTO   C10 3803   5.646   3.912  -0.447  0.4184 -0.1733  0.1534
    9CHTO   H23 3804   5.625   3.815  -0.404  1.9306  0.3975  2.3021
    9CHTO   C17 3805   5.774   3.962  -0.372  0.1242 -0.1800  0.3722
    9CHTO   O12 3806   5.820   4.091  -0.401  0.3389  0.0766  0.3643
    9CHTO    H6 3807   5.805   4.105  -0.492  3.5539 -1.4101 -0.4471
   10CHTO  H203 3808   5.025   6.039   2.184  0.9465 -0.7362 -0.8030
   10CHTO   O82 3809   4.963   6.034   2.114 -0.0162 -0.1238  0.0041
   10CHTO  C123 3810   4.860   6.119   2.142  0.3233 -1.0422 -0.6327
   10CHTO  H227 3811   4.826   6.161   2.047  1.0065  1.0688  0.0156
   10CHTO   O77 3812   4.776   6.022   2.192 -0.1609  0.4046 -0.0783
   10CHTO  C118 3813   4.634   6.054   2.205  0.4453 -0.3095 -0.1742
   10CHTO  H222 3814   4.600   6.102   2.112  1.7102 -1.8670 -1.4629
   10CHTO  C125 3815   4.549   5.922   2.235 -0.3854  0.0238 -0.3833
   10CHTO   O84 3816   4.561   5.821   2.136  0.2381 -0.7434  0.1565
   10CHTO  H205 3817   4.474   5.806   2.106 -0.2259  1.8826  0.0589
   10CHTO  C114 3818   4.619   6.163   2.314  0.0743 -0.0045 -0.6117
   10CHTO  H218 3819   4.630   6.115   2.411 -2.9654  1.0723  0.3364
   10CHTO  C116 3820   4.732   6.273   2.290  0.3737  0.4027  0.2638
   10CHTO  H220 3821   4.707   6.338   2.203 -1.1530 -1.7478 -0.9664
   10CHTO   O79 3822   4.744   6.358   2.406 -0.5324 -0.3656 -0.1834
   10CHTO  H201 3823   4.774   6.446   2.390  0.7937 -1.2173 -2.5199
   10CHTO  C120 3824   4.877   6.222   2.259 -0.5083 -0.1541 -0.0846
   10CHTO  H224 3825   4.912   6.169   2.349 -0.7230 -1.4334 -0.7367
   10CHTO   N21 3826   4.977   6.322   2.222  0.3314 -0.1602  0.7627
   10CHTO  H211 3827   4.970   6.424   2.256  0.7800  0.2983 -0.5047
   10CHTO  H212 3828   5.018   6.307   2.123  1.4436  2.8799  0.7100
   10CHTO   O75 3829   4.486   6.215   2.309  0.7743  0.7337  0.0184
   10CHTO  C112 3830   4.440   6.271   2.456  0.2378 -0.9936 -0.1617
   10CHTO  H216 3831   4.512   6.346   2.493  0.3583 -0.9691 -0.4467
   10CHTO   O73 3832   4.425   6.161   2.549 -0.0322 -0.9884  0.4369
   10CHTO  C113 3833   4.410   6.212   2.685 -0.2396 -0.6022  0.7285
   10CHTO  H217 3834   4.500   6.275   2.701  0.5048 -1.4555 -0.0288
   10CHTO  C124 3835   4.423   6.094   2.786 -0.1450 -0.1324 -0.3720
   10CHTO   O83 3836   4.360   5.976   2.726 -0.2043 -0.4235 -0.4043
   10CHTO  H204 3837   4.290   5.951   2.783  0.1138  0.7781  0.5357
   10CHTO  C109 3838   4.278   6.287   2.693  0.6329  0.1318  0.0299
   10CHTO  H213 3839   4.204   6.210   2.668  0.6749  0.4080 -0.9695
   10CHTO  C110 3840   4.270   6.404   2.586  0.5401  0.4032  0.8561
   10CHTO  H214 3841   4.348   6.478   2.604  0.1200  0.5664  2.0522
   10CHTO   O78 3842   4.136   6.456   2.602  0.9288  0.5056  0.2577
   10CHTO  H200 3843   4.075   6.385   2.592  1.4177  0.2261 -0.8625
   10CHTO  C111 3844   4.295   6.339   2.447  0.1037 -0.6462 -0.2209
   10CHTO  H215 3845   4.218   6.261   2.434  0.7943 -1.2462 -0.7008
   10CHTO   N19 3846   4.284   6.442   2.340  0.2852  0.6891  0.0774
   10CHTO  H207 3847   4.182   6.477   2.339 -1.0404 -2.8260  2.0287
   10CHTO  H208 3848   4.353   6.523   2.357  0.1431  0.9912 -0.7567
   10CHTO   O74 3849   4.260   6.341   2.829 -0.3068  0.5192 -0.3570
   10CHTO  C115 3850   4.128   6.309   2.882  0.5598 -0.4329 -0.4190
   10CHTO  H219 3851   4.051   6.305   2.805  0.8961 -3.9162 -0.6507
   10CHTO   O76 3852   4.127   6.169   2.972  0.6198 -0.4460  0.4801
   10CHTO  C122 3853   4.006   6.145   3.036  0.7673 -0.3725 -0.1324
   10CHTO  H226 3854   4.025   6.064   3.106 -2.9814 -0.6756  0.6614
   10CHTO  C126 3855   3.898   6.078   2.935  0.1464 -0.3433 -0.7731
   10CHTO   O85 3856   3.780   6.018   3.000 -0.8292 -0.2531  0.7673
   10CHTO  H206 3857   3.808   5.990   3.084 -3.1410 -1.0390  1.2945
   10CHTO  C121 3858   3.953   6.262   3.130  0.2301  0.3762 -0.0978
   10CHTO  H225 3859   3.852   6.243   3.171  0.3195  1.9010  0.8570
   10CHTO   O81 3860   4.045   6.277   3.242  0.2628 -0.0425 -0.6454
   10CHTO  H202 3861   4.134   6.268   3.214 -0.3556 -1.2907 -2.2834
   10CHTO  C119 3862   3.953   6.394   3.047 -0.4707  0.6065 -0.4159
   10CHTO  H223 3863   3.878   6.372   2.971  0.1033 -1.0696 -0.5165
   10CHTO  C117 3864   4.090   6.427   2.982  0.3513 -0.1740  0.0945
   10CHTO  H221 3865   4.183   6.435   3.038 -0.6962  0.2300  1.8416
   10CHTO   N20 3866   4.072   6.564   2.917 -0.6732  0.0814 -0.4033
   10CHTO  H209 3867   4.073   6.646   2.988  0.2698 -0.0905 -0.2101
   10CHTO  H210 3868   4.163   6.585   2.862 -0.0081  0.2511  0.7521
   10CHTO   O80 3869   3.887   6.532   3.139  0.5294 -0.4747  0.4253
   10CHTO  C103 3870   3.741   6.511   3.237  0.3483  0.0826  0.1835
   10CHTO  H190 3871   3.696   6.606   3.264  1.3243  0.8245 -0.7782
   10CHTO  C101 3872   3.627   6.427   3.176  0.2602 -0.6591  0.6049
   10CHTO  H188 3873   3.669   6.330   3.151  0.2660 -1.1623  2.4965
   10CHTO   O68 3874   3.570   6.503   3.059 -0.1299 -0.2472  0.6920
   10CHTO  H168 3875   3.636   6.500   2.992  0.1565 -0.9979  0.9976
   10CHTO   C99 3876   3.507   6.417   3.284 -0.5558 -0.2674 -0.0260
   10CHTO  H186 3877   3.478   6.517   3.323  2.3656 -0.4170  2.7299
   10CHTO   N17 3878   3.383   6.347   3.224  0.0731  0.1745  0.0809
   10CHTO  H174 3879   3.301   6.321   3.290 -0.8329  0.0546 -1.0823
   10CHTO  H175 3880   3.422   6.258   3.177  0.4312  0.8141 -0.8357
   10CHTO   C97 3881   3.560   6.345   3.412 -0.6687 -0.3071 -0.1237
   10CHTO  H184 3882   3.592   6.242   3.392  3.2672  0.6233  0.8119
   10CHTO   O64 3883   3.668   6.417   3.461 -0.0940  0.2471 -0.3391
   10CHTO  C104 3884   3.788   6.447   3.375 -0.6153  0.6800  0.1378
   10CHTO  H191 3885   3.841   6.354   3.355 -0.6190  1.2911 -3.0886
   10CHTO  C108 3886   3.880   6.544   3.445 -0.0178 -0.1881  0.5074
   10CHTO   O71 3887   3.921   6.528   3.579  0.9714 -0.1942  0.5300
   10CHTO  H171 3888   3.851   6.488   3.628 -0.1945  0.6590 -0.4122
   10CHTO   O62 3889   3.470   6.356   3.529  0.2978 -0.3557  0.6231
   10CHTO   C91 3890   3.389   6.238   3.558  0.6111  0.0538  0.0140
   10CHTO  H178 3891   3.390   6.182   3.464 -2.7824  1.1694 -0.7282
   10CHTO   C92 3892   3.237   6.289   3.579 -0.0109 -0.1404 -0.2169
   10CHTO  H179 3893   3.211   6.358   3.496  0.1637 -1.0055 -0.9997
   10CHTO   O66 3894   3.152   6.177   3.572  0.4947 -0.3681  0.1734
   10CHTO  H166 3895   3.154   6.133   3.489  0.5802 -1.2059  0.6174
   10CHTO   C93 3896   3.222   6.351   3.721 -0.0615  0.4508 -0.7268
   10CHTO  H180 3897   3.117   6.328   3.745  0.6238 -1.7489  0.2039
   10CHTO   N16 3898   3.228   6.503   3.726  0.9475 -0.4442  0.2555
   10CHTO  H172 3899   3.297   6.542   3.799 -0.2273  0.1151  1.0751
   10CHTO  H173 3900   3.129   6.530   3.758 -0.7249 -1.8065 -3.4805
   10CHTO   C94 3901   3.322   6.287   3.822  0.9049 -0.1995  0.1868
   10CHTO  H181 3902   3.412   6.348   3.831 -0.2384  1.4584  0.5986
   10CHTO   O61 3903   3.349   6.151   3.782 -1.0124 -0.3688 -0.2848
   10CHTO   C95 3904   3.440   6.143   3.675 -0.7401 -0.3806  0.2039
   10CHTO  H182 3905   3.537   6.179   3.709 -0.9461 -0.8770  1.3270
   10CHTO  C106 3906   3.446   5.993   3.628  0.1453 -0.2264 -0.3180
   10CHTO   O69 3907   3.550   5.984   3.535  0.2669  0.4890 -0.5712
   10CHTO  H169 3908   3.532   5.903   3.492 -0.1091  0.8417 -1.0927
   10CHTO   O63 3909   3.262   6.280   3.963  0.3434  0.0243  0.3524
   10CHTO   C96 3910   3.362   6.273   4.080  0.0120  0.6119 -0.7709
   10CHTO  H183 3911   3.466   6.292   4.053  0.3377 -1.2264 -0.9259
   10CHTO   C98 3912   3.374   6.126   4.143  0.2614 -0.6825  0.2689
   10CHTO  H185 3913   3.274   6.079   4.143 -0.1257  0.1136  1.8081
   10CHTO   O67 3914   3.458   6.056   4.056  0.0285  0.2460 -0.6023
   10CHTO  H167 3915   3.490   5.979   4.100 -0.5516  0.5844  0.4256
   10CHTO  C102 3916   3.430   6.116   4.291  0.5688  0.3733 -0.6141
   10CHTO  H189 3917   3.539   6.116   4.279  0.7591 -0.2311  0.9691
   10CHTO   N18 3918   3.401   5.988   4.356 -0.2795  0.6189 -0.1690
   10CHTO  H176 3919   3.476   5.920   4.319 -2.1359 -1.8058  0.3481
   10CHTO  H177 3920   3.309   5.945   4.317 -1.7028  4.0004 -0.7435
   10CHTO  C105 3921   3.406   6.244   4.381  0.7251  0.4901  0.0616
   10CHTO  H192 3922   3.309   6.229   4.427  0.8152 -0.5787 -0.0799
   10CHTO   O65 3923   3.403   6.365   4.307 -0.0398 -0.1095  0.5582
   10CHTO  C100 3924   3.315   6.372   4.196  0.2635 -0.0876  1.1338
   10CHTO  H187 3925   3.214   6.343   4.227 -0.2591  0.7637  0.2542
   10CHTO  C107 3926   3.305   6.520   4.152  0.4602 -0.0098 -0.3819
   10CHTO   O70 3927   3.240   6.597   4.256  0.6896  0.3670 -0.4378
   10CHTO  H170 3928   3.156   6.557   4.274  0.6484  0.4906 -0.3576
   10CHTO   O57 3929   3.520   6.248   4.488  0.3282 -0.0054 -0.4989
   10CHTO   C85 3930   3.496   6.294   4.621 -0.4813  0.1303 -0.0348
   10CHTO  H157 3931   3.387   6.281   4.633 -0.3259 -1.9014 -0.5399
   10CHTO   C83 3932   3.532   6.441   4.615 -0.1688  0.1217 -0.6917
   10CHTO  H155 3933   3.468   6.485   4.539  0.9750  0.9541 -1.1801
   10CHTO   O56 3934   3.666   6.449   4.560  0.2559 -0.4985  0.2509
   10CHTO  H135 3935   3.698   6.537   4.559 -0.6450 -0.1507 -2.0297
   10CHTO   C81 3936   3.504   6.497   4.758 -0.0040  0.5735 -0.6271
   10CHTO  H153 3937   3.398   6.486   4.779  0.3203  0.1308  0.8241
   10CHTO   N14 3938   3.542   6.640   4.759  0.5202  0.1329 -0.1451
   10CHTO  H141 3939   3.521   6.687   4.853  2.0505 -1.2482  0.9229
   10CHTO  H142 3940   3.646   6.654   4.739 -0.0525  1.3343 -2.4837
   10CHTO   C79 3941   3.595   6.425   4.870  0.5325 -0.2132 -0.0941
   10CHTO  H151 3942   3.584   6.479   4.964  0.5860  0.5598 -0.5257
   10CHTO   O52 3943   3.550   6.282   4.873 -0.5422 -0.7350  0.2855
   10CHTO   C86 3944   3.577   6.216   4.742 -0.2825  0.1679 -0.4798
   10CHTO  H158 3945   3.687   6.220   4.730 -0.0562 -2.1384  0.5185
   10CHTO   C90 3946   3.540   6.070   4.735  0.1079 -0.1872  0.2267
   10CHTO   O60 3947   3.401   6.053   4.762  0.6202  0.1703  0.2911
   10CHTO  H138 3948   3.384   5.964   4.788  1.5544 -0.5488 -1.4961
   10CHTO   O50 3949   3.733   6.443   4.843  0.1859 -0.2408  0.7512
   10CHTO   C73 3950   3.853   6.403   4.913 -0.1179 -0.0239 -0.4375
   10CHTO  H145 3951   3.859   6.293   4.904  0.8963  0.1099 -1.5104
   10CHTO   C74 3952   3.851   6.448   5.065  0.6373  0.1523 -0.7810
   10CHTO  H146 3953   3.754   6.412   5.100  0.7567  0.4275 -0.1594
   10CHTO   O54 3954   3.951   6.381   5.144 -0.1393 -0.0305  0.6097
   10CHTO  H133 3955   4.029   6.433   5.132 -0.9284  1.1101  0.3872
   10CHTO   C75 3956   3.860   6.607   5.069 -0.4098 -0.2158  0.6718
   10CHTO  H147 3957   3.768   6.647   5.023 -0.7179 -1.0909  0.5178
   10CHTO   N13 3958   3.861   6.674   5.200  0.7444  0.3113 -0.3948
   10CHTO  H139 3959   3.776   6.639   5.256 -0.5047  2.3941 -0.9572
   10CHTO  H140 3960   3.952   6.680   5.259  0.0470  0.1281  0.7068
   10CHTO   C76 3961   3.984   6.655   4.974  0.5135  0.7631 -0.0395
   10CHTO  H148 3962   4.070   6.611   5.023  1.0697  2.8551  0.9457
   10CHTO   O49 3963   3.979   6.605   4.837 -0.3179 -0.6764 -0.2456
   10CHTO   C77 3964   3.975   6.465   4.840  0.1800  0.8621  0.1097
   10CHTO  H149 3965   4.066   6.432   4.892  0.0780  0.8947  0.3106
   10CHTO   C88 3966   3.986   6.411   4.702  0.5273  0.0069 -0.5356
   10CHTO   O58 3967   4.117   6.430   4.663 -0.4910 -0.0860 -0.2810
   10CHTO  H136 3968   4.140   6.395   4.579  0.8707 -2.1301  0.9025
   10CHTO   O51 3969   4.006   6.831   4.973  0.0278  0.0254 -0.0839
   10CHTO   C78 3970   4.149   6.866   4.980 -0.1419  0.6850 -0.1901
   10CHTO  H150 3971   4.206   6.772   4.988 -0.0903  0.6641 -0.7788
   10CHTO   C80 3972   4.178   6.957   5.108 -0.1266 -0.2094 -0.4313
   10CHTO  H152 3973   4.092   7.028   5.113  0.0466  0.1707 -2.5386
   10CHTO   O55 3974   4.168   6.865   5.221 -0.1963 -0.0600  0.0849
   10CHTO  H134 3975   4.221   6.788   5.210 -0.7863 -0.3403 -0.8198
   10CHTO   C84 3976   4.311   7.036   5.114 -0.1774 -0.0537  1.1665
   10CHTO  H156 3977   4.393   6.965   5.124 -1.3017 -1.9418 -2.1247
   10CHTO   N15 3978   4.318   7.131   5.232  0.6035  0.3026  0.2981
   10CHTO  H143 3979   4.222   7.144   5.279 -0.6110 -2.8385 -1.1969
   10CHTO  H144 3980   4.392   7.107   5.305  0.9208  2.3555  0.6835
   10CHTO   C87 3981   4.323   7.098   4.974  0.9152  0.5271  0.0212
   10CHTO  H159 3982   4.247   7.176   4.963  0.8923  0.3633 -1.0243
   10CHTO   O53 3983   4.319   6.997   4.859 -0.0597  0.1120  0.1315
   10CHTO   C82 3984   4.185   6.939   4.850 -0.3127  0.5070  0.0282
   10CHTO  H154 3985   4.121   7.023   4.822  0.7152  0.4975 -2.4901
   10CHTO   C89 3986   4.171   6.839   4.742  0.0961 -0.4646  0.4926
   10CHTO   O59 3987   4.216   6.888   4.616  0.2577 -0.1776  0.8541
   10CHTO  H137 3988   4.183   6.838   4.543  1.6253 -2.2110  1.5789
   10CHTO   O45 3989   4.459   7.159   4.965 -0.1858 -0.3183 -0.1964
   10CHTO   C67 3990   4.474   7.263   4.866 -0.3773 -0.2724 -0.1381
   10CHTO  H124 3991   4.394   7.263   4.792 -0.5408 -0.9104  0.0349
   10CHTO   C65 3992   4.486   7.395   4.938  0.1673  0.3151 -0.1861
   10CHTO  H122 3993   4.399   7.396   5.004  0.0767  1.6675 -0.3044
   10CHTO   O44 3994   4.462   7.499   4.846 -0.1822  0.2086 -0.6240
   10CHTO  H102 3995   4.384   7.503   4.794 -0.8965  1.2390  0.4990
   10CHTO   C63 3996   4.612   7.402   5.026 -0.2314 -0.8010 -0.2960
   10CHTO  H120 3997   4.618   7.313   5.089  0.5283 -0.6573 -0.1647
   10CHTO   N11 3998   4.612   7.501   5.135 -0.5893  0.5575  0.0799
   10CHTO  H108 3999   4.686   7.574   5.109 -1.1344  0.4877 -1.6939
   10CHTO  H109 4000   4.526   7.564   5.137 -1.0264  0.0346 -1.4174
   10CHTO   C61 4001   4.736   7.399   4.926  1.2222 -0.2704  0.2214
   10CHTO  H118 4002   4.817   7.388   4.999  1.4574  0.1467  0.0267
   10CHTO   O40 4003   4.733   7.283   4.837  0.3544  0.5612 -0.2683
   10CHTO   C68 4004   4.608   7.235   4.781 -0.0113 -0.4196  0.1720
   10CHTO  H125 4005   4.611   7.125   4.766  0.9900 -0.3693  0.0244
   10CHTO   C72 4006   4.589   7.300   4.640 -0.0365 -0.2313  0.2643
   10CHTO   O48 4007   4.711   7.295   4.558  0.4412  0.3013 -0.3965
   10CHTO  H105 4008   4.757   7.217   4.585  1.0021  0.5198 -0.6977
   10CHTO   O38 4009   4.739   7.524   4.848  0.5440  0.1185 -0.2447
   10CHTO   C55 4010   4.877   7.579   4.820  0.2780 -0.1303 -0.6907
   10CHTO  H112 4011   4.941   7.496   4.788  0.8611 -0.6296  1.6678
   10CHTO   C56 4012   4.938   7.655   4.943  0.0757  0.5076 -0.2709
   10CHTO  H113 4013   4.849   7.709   4.979  1.1180  0.8874  1.8053
   10CHTO   O42 4014   4.977   7.564   5.045  0.2733  0.2382  0.1237
   10CHTO  H100 4015   5.001   7.606   5.125 -1.4800  1.3484  0.1032
   10CHTO   C57 4016   5.047   7.759   4.905  0.4972 -0.5019  0.1519
   10CHTO  H114 4017   5.132   7.703   4.864  0.0858  0.8596 -2.7303
   10CHTO   N10 4018   5.090   7.839   5.023 -0.2541  0.0833  0.2606
   10CHTO  H106 4019   4.997   7.858   5.074 -0.8903 -3.5192  0.5826
   10CHTO  H107 4020   5.147   7.768   5.080  0.1729 -0.6153 -1.0155
   10CHTO   C58 4021   4.989   7.852   4.796  0.8909 -0.2920  0.3952
   10CHTO  H115 4022   4.891   7.888   4.833 -0.0383 -1.0991 -1.1864
   10CHTO   O37 4023   4.973   7.761   4.686 -0.4391  0.1302  0.6706
   10CHTO   C59 4024   4.865   7.670   4.693  0.4530  0.2838 -0.2479
   10CHTO  H116 4025   4.765   7.714   4.696  0.2527 -0.2576  1.2370
   10CHTO   C70 4026   4.868   7.599   4.558  0.2103 -1.0325 -0.2763
   10CHTO   O46 4027   4.833   7.683   4.445 -0.4299  0.1770 -0.1128
   10CHTO  H103 4028   4.910   7.730   4.422 -0.3965 -0.5264 -1.4472
   10CHTO   O39 4029   5.069   7.977   4.748  0.4905  0.2401 -0.4153
   10CHTO   C60 4030   4.990   8.097   4.744  0.2733  0.4388 -0.1630
   10CHTO  H117 4031   4.885   8.072   4.762  0.6549 -1.0324  0.0699
   10CHTO   C62 4032   5.029   8.193   4.863 -0.3582 -0.1658 -0.3005
   10CHTO  H119 4033   5.009   8.134   4.955  1.2265  1.2985  1.0257
   10CHTO   O43 4034   5.170   8.229   4.845  0.2280  0.0689 -0.3954
   10CHTO  H101 4035   5.184   8.317   4.873 -0.9870 -0.6819  2.7211
   10CHTO   C66 4036   4.928   8.318   4.863  0.0781  0.1707  0.0176
   10CHTO  H123 4037   4.826   8.280   4.873 -0.4573  0.9774 -2.0373
   10CHTO   N12 4038   4.951   8.417   4.971  0.1089  0.3753  0.0604
   10CHTO  H110 4039   5.044   8.390   5.018 -1.1601  0.1763  2.5664
   10CHTO  H111 4040   4.873   8.409   5.046  1.1128  0.9774  1.1910
   10CHTO   C69 4041   4.925   8.395   4.726  0.0655  0.8279 -0.3843
   10CHTO  H126 4042   5.022   8.448   4.727 -0.7922  2.5258 -2.4768
   10CHTO   O41 4043   4.913   8.297   4.605  0.0764 -0.6280  0.4162
   10CHTO   C64 4044   5.001   8.167   4.609 -0.5564  0.1836 -0.7225
   10CHTO  H121 4045   5.109   8.184   4.595 -0.1681 -1.2449  0.4065
   10CHTO   C71 4046   4.967   8.079   4.485  0.0204 -0.3039  0.0592
   10CHTO   O47 4047   4.832   8.043   4.488 -0.1763 -0.2145  0.2613
   10CHTO  H104 4048   4.817   7.967   4.540 -1.3648 -0.6545 -0.6953
   10CHTO   O34 4049   4.801   8.498   4.723  0.8876  0.0176  0.4180
   10CHTO   C49 4050   4.675   8.520   4.650 -0.1693  0.0766  0.5361
   10CHTO   H91 4051   4.641   8.618   4.682 -1.2118 -0.7186  1.9248
   10CHTO   C47 4052   4.573   8.422   4.704 -0.2974 -0.3654 -0.1660
   10CHTO   H89 4053   4.572   8.438   4.814 -0.0881 -1.1588 -0.0422
   10CHTO   O33 4054   4.611   8.280   4.681  0.5802  0.1511 -0.6336
   10CHTO   H70 4055   4.564   8.214   4.728  1.0573  0.0488 -0.2981
   10CHTO   C45 4056   4.423   8.446   4.645 -0.1501 -0.1195 -0.0904
   10CHTO   H87 4057   4.396   8.347   4.604  1.8163 -0.6027 -0.2712
   10CHTO    N8 4058   4.316   8.476   4.747  0.4946 -0.2567  0.5611
   10CHTO   H75 4059   4.326   8.411   4.833 -2.8727 -1.8899 -0.1931
   10CHTO   H76 4060   4.320   8.578   4.783  0.5740 -0.5850  1.4819
   10CHTO   C43 4061   4.430   8.543   4.519 -0.7434  0.0908  0.1567
   10CHTO   H85 4062   4.334   8.525   4.470 -0.6752 -0.3210  0.1722
   10CHTO   O29 4063   4.543   8.505   4.444 -0.0096 -0.3251  0.2164
   10CHTO   C50 4064   4.679   8.508   4.494  0.3256 -0.3380 -0.3229
   10CHTO   H92 4065   4.714   8.409   4.459 -0.8819 -2.3957  3.9678
   10CHTO   C54 4066   4.757   8.617   4.424 -0.4835 -0.2556  0.0354
   10CHTO   O36 4067   4.898   8.617   4.445 -0.9832 -0.0852  0.3955
   10CHTO   H72 4068   4.932   8.692   4.400  0.2787 -2.4961 -2.8805
   10CHTO   O27 4069   4.433   8.681   4.548  0.1300  0.2364 -0.1414
   10CHTO   C37 4070   4.430   8.807   4.471 -0.4764  0.0815 -0.8528
   10CHTO   H79 4071   4.534   8.831   4.446 -0.3473  0.1235 -0.2858
   10CHTO   C38 4072   4.357   8.810   4.334 -0.3158 -0.8374 -0.4464
   10CHTO   H80 4073   4.262   8.756   4.341  0.7620 -2.5454  1.6019
   10CHTO   O31 4074   4.436   8.740   4.239 -0.0392  0.4175 -0.3811
   10CHTO   H68 4075   4.439   8.648   4.258  0.1871  0.2205 -1.3397
   10CHTO   C39 4076   4.339   8.958   4.287  0.0250  0.2245  0.0964
   10CHTO   H81 4077   4.440   8.986   4.259 -0.5791 -0.9835 -3.5656
   10CHTO    N7 4078   4.255   8.971   4.164  0.0224  0.3420 -0.0163
   10CHTO   H73 4079   4.206   9.066   4.157 -1.7115 -0.5979 -1.0762
   10CHTO   H74 4080   4.186   8.888   4.153  2.0549 -1.4486  0.1839
   10CHTO   C40 4081   4.292   9.064   4.397  0.5960  0.1085 -0.1584
   10CHTO   H82 4082   4.186   9.066   4.419  0.6190  0.9931 -0.1053
   10CHTO   O26 4083   4.372   9.041   4.517 -0.4188 -0.1881 -0.3418
   10CHTO   C41 4084   4.366   8.909   4.569 -0.7792  0.2820  0.4728
   10CHTO   H83 4085   4.261   8.879   4.582 -0.4186 -0.8352  0.8841
   10CHTO   C52 4086   4.440   8.921   4.705 -1.3885 -0.1780 -0.1786
   10CHTO   O35 4087   4.593   8.973   4.686 -0.4513  0.3654 -0.6116
   10CHTO   H71 4088   4.641   8.894   4.674  1.0509  1.1954 -0.3048
   10CHTO   O28 4089   4.319   9.197   4.356  0.0774  0.0630 -0.2606
   10CHTO   C42 4090   4.223   9.303   4.387  0.4336  0.2183  0.3590
   10CHTO   H84 4091   4.155   9.279   4.468 -0.9486 -0.2789 -0.9230
   10CHTO   C44 4092   4.135   9.339   4.265  0.0920 -0.3462 -0.4720
   10CHTO   H86 4093   4.200   9.349   4.178  0.8241 -0.3647  0.0637
   10CHTO   O32 4094   4.044   9.229   4.237  0.4740  0.0350 -0.0273
   10CHTO   H69 4095   4.070   9.170   4.170  0.0938 -2.0485  1.5968
   10CHTO   C48 4096   4.056   9.480   4.271 -0.6715 -1.0321 -0.0127
   10CHTO   H90 4097   3.967   9.474   4.334 -1.3038  1.7404 -0.5805
   10CHTO    N9 4098   3.990   9.526   4.148 -0.6044  0.2826 -0.1816
   10CHTO   H77 4099   3.922   9.451   4.110 -0.0529 -1.1890  1.6483
   10CHTO   H78 4100   3.955   9.628   4.148  1.0016  0.8807  1.5502
   10CHTO   C51 4101   4.158   9.586   4.325  0.1785 -0.2320 -0.3075
   10CHTO   H93 4102   4.239   9.599   4.254 -0.1393  0.0943 -0.6109
   10CHTO   O30 4103   4.200   9.524   4.446  0.2623  0.4646 -0.1520
   10CHTO   C46 4104   4.298   9.430   4.427 -0.2136  0.0565 -0.0196
   10CHTO   H88 4105   4.363   9.458   4.344 -1.2880  1.4447 -0.4129
   10CHTO   C53 4106   4.379   9.397   4.555  0.0397  0.3029 -0.5023
   10CHTO   O72 4107   4.440   9.509   4.618 -0.0086  0.4090  0.3198
   10CHTO  H199 4108   4.504   9.551   4.563 -0.3873  1.7339  0.8668
   10CHTO   O22 4109   4.097   9.707   4.376  0.5420 -0.1910  0.3293
   10CHTO   C31 4110   4.183   9.826   4.410  0.4616  0.0706 -0.4319
   10CHTO   H59 4111   4.122   9.892   4.474  1.5430  1.2553 -0.5996
   10CHTO   C29 4112   4.306   9.797   4.486  0.3503 -0.4626  0.4315
   10CHTO   H57 4113   4.357   9.722   4.422  0.6309  0.6257 -0.6300
   10CHTO   O21 4114   4.263   9.736   4.605  0.0214  0.8679  0.1494
   10CHTO   H37 4115   4.338   9.703   4.651  1.2434  0.9597 -1.7250
   10CHTO   C27 4116   4.406   9.911   4.510 -0.4316  0.4231  0.3403
   10CHTO   H55 4117   4.357   9.989   4.569 -1.4303  0.2013 -0.1781
   10CHTO    N5 4118   4.532   9.870   4.575  0.7385 -0.2128 -0.5758
   10CHTO   H43 4119   4.571   9.785   4.521 -2.3191 -1.3958 -1.0607
   10CHTO   H44 4120   4.593   9.958   4.590 -0.1234  0.5773 -1.6240
   10CHTO   C25 4121   4.431   9.972   4.370  0.4574 -0.1540 -0.7088
   10CHTO   H53 4122   4.480   9.901   4.303 -0.0933 -1.5138  0.3029
   10CHTO   O17 4123   4.304  10.016   4.315 -0.6995  0.1773  0.5058
   10CHTO   C32 4124   4.222   9.903   4.281  0.4022  0.5763 -0.1470
   10CHTO   H60 4125   4.261   9.832   4.208 -0.7739  0.3717 -0.5988
   10CHTO   C36 4126   4.109   9.973   4.208 -0.1100  0.2895 -0.0030
   10CHTO   O25 4127   4.145  10.063   4.100  0.5165  0.6932 -0.6939
   10CHTO   H40 4128   4.236  10.086   4.097  0.4717  0.9147 -0.3833
   10CHTO   O15 4129   4.540  10.111   4.381  0.5629  0.4294 -0.7016
   10CHTO   C19 4130   4.544  10.205   4.277 -0.6676 -0.1246 -0.0330
   10CHTO   H47 4131   4.489  10.159   4.194 -2.1363 -0.9081  1.3525
   10CHTO   C20 4132   4.487  10.347   4.297  0.1999 -0.9179  0.0484
   10CHTO   H48 4133   4.534  10.396   4.384  0.9365 -1.9928  0.2687
   10CHTO   O19 4134   4.353  10.320   4.342 -0.2930  0.0985  0.0299
   10CHTO   H35 4135   4.318  10.401   4.376 -0.1729  0.3248 -0.3820
   10CHTO   C21 4136   4.504  10.444   4.167 -0.4644 -0.5418  0.2412
   10CHTO   H49 4137   4.447  10.400   4.086 -0.6047  0.7170 -0.3619
   10CHTO    N4 4138   4.445  10.583   4.186  0.4063 -0.4448  0.4935
   10CHTO   H41 4139   4.508  10.638   4.254 -2.0114  2.3008  0.6254
   10CHTO   H42 4140   4.343  10.586   4.222  0.2815  1.3871  0.0218
   10CHTO   C22 4141   4.656  10.435   4.127  0.3946  0.1167 -0.2312
   10CHTO   H50 4142   4.709  10.490   4.205  0.6148  2.6223 -2.0717
   10CHTO   O14 4143   4.709  10.302   4.115  0.0568  0.1120  0.1743
   10CHTO   C23 4144   4.688  10.221   4.230  0.3249  0.5948 -0.2035
   10CHTO   H51 4145   4.753  10.268   4.306  3.0426  1.9738 -3.2572
   10CHTO   C34 4146   4.762  10.095   4.189  1.0442  0.4816  0.1104
   10CHTO   O23 4147   4.803  10.032   4.320 -0.2294 -0.0121  0.2235
   10CHTO   H38 4148   4.765   9.946   4.322 -0.3403  0.0492  2.1803
   10CHTO   O16 4149   4.677  10.489   3.997  0.0407  0.0489 -0.7494
   10CHTO   C24 4150   4.809  10.561   3.981  0.2848 -0.2591  0.2755
   10CHTO   H52 4151   4.885  10.528   4.051 -0.8870  0.0117  1.7005
   10CHTO   C26 4152   4.775  10.709   3.984  0.4440  0.6161 -0.1532
   10CHTO   H54 4153   4.695  10.734   3.912  1.2091 -0.0457 -1.2356
   10CHTO   O20 4154   4.720  10.741   4.117  0.8446  0.3857  0.9673
   10CHTO   H36 4155   4.634  10.705   4.126  0.2984  1.0637 -1.1125
   10CHTO   C30 4156   4.904  10.791   3.948  0.6075 -0.0914 -0.3493
   10CHTO   H58 4157   4.965  10.778   4.039  0.6331 -1.1981 -0.5137
   10CHTO    N6 4158   4.885  10.938   3.934  0.6832 -1.0011 -0.2527
   10CHTO   H45 4159   4.949  10.993   4.001 -0.2378 -2.4881  1.9182
   10CHTO   H46 4160   4.781  10.967   3.947  0.9193  0.9974 -2.5048
   10CHTO   C33 4161   4.985  10.731   3.826 -0.2879 -0.1071  0.5885
   10CHTO   H61 4162   4.946  10.772   3.732 -0.8478  0.3271  1.0079
   10CHTO   O18 4163   4.983  10.590   3.815  0.1595  0.2980 -0.0021
   10CHTO   C28 4164   4.862  10.521   3.836 -0.1627 -0.5346 -0.1121
   10CHTO   H56 4165   4.786  10.549   3.763  2.0037 -0.4766 -2.4015
   10CHTO   C35 4166   4.905  10.376   3.837 -0.3129  0.3850  0.1629
   10CHTO   O24 4167   4.923  10.314   3.710  0.6778  0.5262  0.3992
   10CHTO   H39 4168   4.973  10.237   3.728  1.3571  0.3556 -1.9953
   10CHTO    O9 4169   5.122  10.778   3.834  0.4483  0.3415 -0.5270
   10CHTO   C13 4170   5.207  10.794   3.684  0.0994 -0.2203  0.2667
   10CHTO   H26 4171   5.165  10.881   3.632  1.9626 -0.0816 -1.0452
   10CHTO   C11 4172   5.187  10.663   3.596 -0.0015 -0.0048  0.1852
   10CHTO   H24 4173   5.082  10.660   3.561  0.8106  2.4105 -2.6210
   10CHTO    O8 4174   5.222  10.541   3.671  0.6342  0.2103 -0.5123
   10CHTO    H3 4175   5.307  10.508   3.647  0.2732 -1.0266 -0.1684
   10CHTO    C9 4176   5.279  10.679   3.474  0.4923  0.6653 -0.3442
   10CHTO   H22 4177   5.268  10.783   3.440 -1.2369  0.5045 -0.3162
   10CHTO    N2 4178   5.249  10.590   3.365  0.5297 -0.2129  0.1393
   10CHTO   H10 4179   5.301  10.635   3.281 -0.4138 -0.3575 -0.5266
   10CHTO   H11 4180   5.285  10.490   3.387 -3.3310 -1.6889  0.0783
   10CHTO    C7 4181   5.433  10.671   3.533 -0.0630 -0.1351  0.2258
   10CHTO   H20 4182   5.477  10.746   3.464 -3.7427  1.9383  0.0304
   10CHTO    O4 4183   5.448  10.715   3.673 -1.2125  0.4635  0.0891
   10CHTO   C14 4184   5.361  10.829   3.695 -0.7208 -0.5298 -0.5937
   10CHTO   H27 4185   5.385  10.912   3.626 -1.2038 -0.8408 -1.1356
   10CHTO   C18 4186   5.397  10.885   3.841 -0.4185  0.7285  0.1035
   10CHTO   O13 4187   5.537  10.891   3.865 -0.1232  0.0952  0.1778
   10CHTO    H7 4188   5.567  10.807   3.894 -1.9793 -0.4114  0.7114
   10CHTO    O2 4189   5.510  10.520   3.513  0.5391 -0.4418 -0.2846
   10CHTO    C1 4190   5.648  10.534   3.494  0.0977 -0.3829  0.4396
   10CHTO   H14 4191   5.683  10.638   3.507 -0.3803 -0.2114  0.3709
   10CHTO    C2 4192   5.699  10.486   3.349 -0.2840 -0.6236  0.5722
   10CHTO   H15 4193   5.635  10.397   3.337 -0.1632 -0.8906  1.7832
   10CHTO    O6 4194   5.666  10.587   3.244  0.0602 -0.0197  0.3821
   10CHTO    H1 4195   5.573  10.579   3.234 -0.1251  1.8385  0.4834
   10CHTO    C3 4196   5.856  10.443   3.337  0.1325 -0.2340 -0.8204
   10CHTO   H16 4197   5.925  10.527   3.320  1.2751 -0.7708  1.0918
   10CHTO    N1 4198   5.880  10.356   3.224  0.3862 -0.3579  0.1455
   10CHTO    H8 4199   5.858  10.396   3.126 -0.1272  0.6738  0.6796
   10CHTO    H9 4200   5.839  10.257   3.241 -0.3830 -0.1345 -0.3617
   10CHTO    C4 4201   5.901  10.375   3.471  0.3126 -0.0817 -0.0716
   10CHTO   H17 4202   5.859  10.275   3.487  0.1220  0.1730  1.0989
   10CHTO    O1 4203   5.859  10.450   3.585 -0.2886 -0.2101 -0.5797
   10CHTO    C5 4204   5.716  10.451   3.603 -0.1248  0.7310 -0.5575
   10CHTO   H18 4205   5.677  10.349   3.598 -0.8967  0.8315  2.3881
   10CHTO   C16 4206   5.684  10.501   3.739 -0.0009  0.4283  0.1471
   10CHTO   O11 4207   5.572  10.438   3.800 -0.0695 -0.0406 -0.5833
   10CHTO    H5 4208   5.500  10.487   3.833 -0.4826 -2.2266  1.8497
   10CHTO    O3 4209   6.043  10.376   3.492  0.2791  0.1448  0.1899
   10CHTO    C6 4210   6.122  10.259   3.491  0.1116  0.2675 -0.3226
   10CHTO   H19 4211   6.060  10.175   3.457  0.8107 -0.8284  1.0755
   10CHTO    C8 4212   6.248  10.279   3.407  0.6250  0.0050 -0.2965
   10CHTO   H21 4213   6.288  10.374   3.442  0.4097  0.2811 -0.7998
   10CHTO    O7 4214   6.206  10.312   3.273  0.8205 -0.4607 -0.4694
   10CHTO    H2 4215   6.273  10.306   3.208  0.3706 -0.2585 -0.9529
   10CHTO   C12 4216   6.346  10.154   3.418 -0.8818 -0.0845 -0.5194
   10CHTO   H25 4217   6.293  10.070   3.369 -0.4101 -0.4503 -0.4057
   10CHTO    N3 4218   6.478  10.174   3.345  0.0762  0.1354  0.0132
   10CHTO   H12 4219   6.559  10.146   3.410 -0.7852 -1.2683  0.5060
   10CHTO   H13 4220   6.493  10.274   3.305  4.6172  0.0712  1.3178
   10CHTO   C15 4221   6.367  10.111   3.567  1.1207 -0.8341 -0.0546
   10CHTO   H28 4222   6.424  10.180   3.628 -2.0147  2.7283 -0.9592
   10CHTO   O10 4223   6.434   9.981   3.579 -0.1718 -0.4204 -0.2978
   10CHTO    H4 4224   6.397   9.913   3.525 -1.6658 -0.4630  0.7611
   10CHTO    O5 4225   6.238  10.093   3.630  0.4758 -0.1939  0.0625
   10CHTO   C10 4226   6.170  10.220   3.629  0.4548 -0.9051  0.0268
   10CHTO   H23 4227   6.235  10.301   3.665  0.7534 -1.1512  0.0402
   10CHTO   C17 4228   6.048  10.217   3.720 -0.0020 -0.0382  0.0630
   10CHTO   O12 4229   6.093  10.185   3.852 -0.1699  0.1218  0.2753
   10CHTO    H6 4230   6.012  10.169   3.896 -0.0710  0.7665  0.6927
   11CHTO  H203 4231   7.136   4.662   0.002  0.1778 -0.3367 -1.0914
   11CHTO   O82 4232   7.057   4.704  -0.028  0.0376  0.2274  0.0601
   11CHTO  C123 4233   7.078   4.845  -0.041  0.0288 -0.0777 -0.3925
   11CHTO  H227 4234   7.142   4.867  -0.128 -0.0111  0.2429 -0.3401
   11CHTO   O77 4235   6.942   4.897  -0.061 -0.3648 -0.2276  0.0602
   11CHTO  C118 4236   6.944   5.037  -0.078  0.4787  0.4478  0.2360
   11CHTO  H222 4237   7.015   5.059  -0.159 -0.8007  0.2112 -0.9520
   11CHTO  C125 4238   6.801   5.090  -0.136  0.4656 -0.4860 -0.0579
   11CHTO   O84 4239   6.680   5.052  -0.070  0.0744 -0.4129 -0.5070
   11CHTO  H205 4240   6.614   5.100  -0.118  0.1170 -1.6133 -1.8072
   11CHTO  C114 4241   6.978   5.101   0.057 -0.3005 -0.8224  0.0717
   11CHTO  H218 4242   6.909   5.060   0.131  0.2928  0.4597  1.3549
   11CHTO  C116 4243   7.121   5.058   0.105  0.0027  0.7661  0.3035
   11CHTO  H220 4244   7.196   5.104   0.037 -0.1882 -0.6876 -0.9156
   11CHTO   O79 4245   7.149   5.107   0.237  0.2658 -0.5328 -0.2177
   11CHTO  H201 4246   7.174   5.035   0.292  0.3636 -0.7454 -0.5351
   11CHTO  C120 4247   7.131   4.900   0.102 -0.2401 -0.1682  0.5629
   11CHTO  H224 4248   7.058   4.871   0.181  0.3743 -1.1176  0.7885
   11CHTO   N21 4249   7.272   4.853   0.122 -0.7659 -0.0018  0.7210
   11CHTO  H211 4250   7.324   4.917   0.192  1.4121 -0.3011 -0.5707
   11CHTO  H212 4251   7.321   4.841   0.026 -0.1802 -0.1249  1.0309
   11CHTO   O75 4252   6.957   5.239   0.037  0.6811 -0.0184 -0.2784
   11CHTO  C112 4253   6.869   5.315   0.149  0.1798  0.0540  0.1143
   11CHTO  H216 4254   6.885   5.263   0.245  3.7464 -0.6469 -0.7832
   11CHTO   O73 4255   6.733   5.313   0.106  0.4024  0.2230  0.6238
   11CHTO  C113 4256   6.633   5.389   0.170  0.1821 -0.5683  0.5584
   11CHTO  H217 4257   6.615   5.347   0.272  1.4889 -0.1437  0.9724
   11CHTO  C124 4258   6.498   5.372   0.090 -0.1114  0.4350 -0.4561
   11CHTO   O83 4259   6.381   5.408   0.174  0.3898 -0.4230  0.5684
   11CHTO  H204 4260   6.313   5.348   0.148  0.8896 -0.3158 -1.0595
   11CHTO  C109 4261   6.676   5.541   0.178 -0.3870  0.3618  0.0060
   11CHTO  H213 4262   6.680   5.579   0.075 -0.3931  0.0900 -0.0941
   11CHTO  C110 4263   6.815   5.555   0.235 -0.0281  0.2898 -0.0013
   11CHTO  H214 4264   6.819   5.520   0.338 -0.3993  0.8798  0.2143
   11CHTO   O78 4265   6.861   5.692   0.239 -0.0871 -0.1327  0.4071
   11CHTO  H200 4266   6.952   5.697   0.260  0.1078  0.1873 -0.5159
   11CHTO  C111 4267   6.917   5.466   0.160  0.1961  0.3686  0.1101
   11CHTO  H215 4268   6.924   5.506   0.058  1.2401  0.5912  0.2649
   11CHTO   N19 4269   7.057   5.468   0.216  0.2110 -0.5138 -0.5837
   11CHTO  H207 4270   7.097   5.566   0.194  0.5511 -0.2533  1.1154
   11CHTO  H208 4271   7.119   5.396   0.163  0.2398  0.2093 -1.5479
   11CHTO   O74 4272   6.583   5.627   0.260 -0.0515  0.7182 -0.1918
   11CHTO  C115 4273   6.493   5.735   0.185  0.4530  0.2129 -0.2267
   11CHTO  H219 4274   6.518   5.742   0.079 -1.8859  0.2564 -0.8044
   11CHTO   O76 4275   6.330   5.692   0.179 -0.0024  0.3670 -0.1439
   11CHTO  C122 4276   6.284   5.687   0.313 -0.1243  0.1164  0.3863
   11CHTO  H226 4277   6.328   5.601   0.363 -1.1365 -1.1933 -0.9471
   11CHTO  C126 4278   6.125   5.675   0.326  0.1180  0.0003  0.1662
   11CHTO   O85 4279   6.092   5.640   0.460  0.2871 -0.3463  0.6704
   11CHTO  H206 4280   5.999   5.652   0.472 -0.2193 -1.9093 -1.3732
   11CHTO  C121 4281   6.317   5.813   0.397  0.3816  0.2910 -0.7084
   11CHTO  H225 4282   6.224   5.853   0.444  0.6959  0.4568 -0.2230
   11CHTO   O81 4283   6.409   5.768   0.503  0.0827  0.5632 -0.0194
   11CHTO  H202 4284   6.360   5.737   0.577 -0.4750 -2.1444 -1.4461
   11CHTO  C119 4285   6.387   5.926   0.319 -0.3083  0.3563 -0.0419
   11CHTO  H223 4286   6.321   5.941   0.233  1.8344  1.6797 -1.5147
   11CHTO  C117 4287   6.517   5.872   0.262  0.1417 -0.1316  0.1829
   11CHTO  H221 4288   6.595   5.847   0.334 -0.7931  1.5628  1.7901
   11CHTO   N20 4289   6.589   5.967   0.171 -0.6620  0.0611 -0.3179
   11CHTO  H209 4290   6.526   5.983   0.085 -0.8020 -0.7336 -0.3689
   11CHTO  H210 4291   6.692   5.938   0.154 -0.7404  0.4925 -1.5858
   11CHTO   O80 4292   6.393   6.070   0.387  0.1251  0.2051 -0.2763
   11CHTO  C103 4293   6.425   6.083   0.554 -0.5169  0.3512 -0.1725
   11CHTO  H190 4294   6.413   5.985   0.601  0.6443  0.0487 -0.4880
   11CHTO  C101 4295   6.568   6.147   0.578  0.0670  0.2205  0.5438
   11CHTO  H188 4296   6.582   6.239   0.521  1.0349 -0.3253 -0.1114
   11CHTO   O68 4297   6.677   6.037   0.548  0.0531  0.2444  0.0331
   11CHTO  H168 4298   6.645   5.951   0.529 -1.6781  0.6142  1.0986
   11CHTO   C99 4299   6.589   6.195   0.737 -0.0029  0.0593  0.0329
   11CHTO  H186 4300   6.580   6.107   0.804 -0.4242  0.0597 -0.0226
   11CHTO   N17 4301   6.719   6.263   0.761  0.5441 -0.1770  0.1699
   11CHTO  H174 4302   6.716   6.306   0.860 -0.5373 -0.2492  0.1674
   11CHTO  H175 4303   6.797   6.189   0.744  1.4480  1.2955 -2.3175
   11CHTO   C97 4304   6.471   6.290   0.771 -0.4230  0.1903 -0.6429
   11CHTO  H184 4305   6.477   6.372   0.698 -0.5817  0.9196  0.1653
   11CHTO   O64 4306   6.350   6.213   0.750  0.0866  0.5224 -0.0686
   11CHTO  C104 4307   6.321   6.185   0.612  0.4765  0.4630 -0.3604
   11CHTO  H191 4308   6.321   6.276   0.554  1.1115  1.8837  1.8103
   11CHTO  C108 4309   6.175   6.137   0.609  0.4668 -0.1130 -0.1354
   11CHTO   O71 4310   6.089   6.226   0.678  0.5250  0.3810  0.5797
   11CHTO  H171 4311   6.043   6.274   0.613 -0.9899 -2.2324 -0.3557
   11CHTO   O62 4312   6.464   6.333   0.909 -0.0635  0.1943  0.1290
   11CHTO   C91 4313   6.355   6.430   0.927 -0.2285 -0.2925 -0.1718
   11CHTO  H178 4314   6.278   6.424   0.850  0.9119  4.8354 -1.9304
   11CHTO   C92 4315   6.411   6.576   0.910  0.4636  0.2031 -0.6578
   11CHTO  H179 4316   6.506   6.588   0.966  0.3782  1.7052 -0.8217
   11CHTO   O66 4317   6.446   6.598   0.774  0.1254  0.0296 -0.2288
   11CHTO  H166 4318   6.376   6.631   0.720 -1.0104 -0.2956  1.0173
   11CHTO   C93 4319   6.303   6.679   0.962 -0.0512  0.5371 -0.6180
   11CHTO  H180 4320   6.210   6.662   0.906  0.0076  0.6316 -0.7441
   11CHTO   N16 4321   6.341   6.819   0.935  0.2813 -0.2556 -0.3182
   11CHTO  H172 4322   6.288   6.892   0.994 -1.3188 -0.2145 -1.7884
   11CHTO  H173 4323   6.323   6.843   0.832 -0.2541  1.5104  0.1707
   11CHTO   C94 4324   6.282   6.642   1.115 -0.0757  0.0419 -0.1765
   11CHTO  H181 4325   6.378   6.621   1.162  0.6226  0.3292 -1.4445
   11CHTO   O61 4326   6.204   6.519   1.120 -0.4959  0.3710 -0.1157
   11CHTO   C95 4327   6.281   6.404   1.065  0.1651  0.2542 -0.4539
   11CHTO  H182 4328   6.359   6.378   1.137 -1.9005  0.9608  2.1097
   11CHTO  C106 4329   6.195   6.276   1.059  0.6680  0.1226 -0.0697
   11CHTO   O69 4330   6.086   6.286   0.968 -0.7449  0.6351 -0.2178
   11CHTO  H169 4331   6.002   6.268   1.004 -0.5627  0.7296  0.2673
   11CHTO   O63 4332   6.198   6.753   1.192  0.0305  0.4368 -0.1566
   11CHTO   C96 4333   6.239   6.736   1.345  0.3411  0.0400  0.4719
   11CHTO  H183 4334   6.320   6.663   1.355  0.2192 -0.2716 -0.7664
   11CHTO   C98 4335   6.133   6.682   1.447 -0.1456  0.2003 -0.3522
   11CHTO  H185 4336   6.053   6.757   1.454 -0.9957 -0.4081 -2.9977
   11CHTO   O67 4337   6.076   6.564   1.389  1.3885  0.1155  0.6314
   11CHTO  H167 4338   6.136   6.492   1.398  2.1867  0.4383 -1.7729
   11CHTO  C102 4339   6.198   6.652   1.589  0.4059  0.3435  0.3911
   11CHTO  H189 4340   6.263   6.565   1.574  1.2096  1.0829 -0.4345
   11CHTO   N18 4341   6.101   6.608   1.696 -0.4644  0.3103  0.5212
   11CHTO  H176 4342   6.010   6.667   1.698  0.8499  2.4728 -1.3104
   11CHTO  H177 4343   6.143   6.583   1.793 -0.0958 -0.1056  0.2528
   11CHTO  C105 4344   6.282   6.777   1.634  0.4568 -0.1069 -0.2349
   11CHTO  H192 4345   6.217   6.852   1.679  1.2543  0.0320  0.7222
   11CHTO   O65 4346   6.364   6.844   1.537  0.2598 -0.8113 -0.5098
   11CHTO  C100 4347   6.293   6.875   1.413 -0.2534  0.1336  0.2544
   11CHTO  H187 4348   6.205   6.938   1.430 -0.1918  0.7998 -1.7360
   11CHTO  C107 4349   6.382   6.941   1.305 -0.7253  0.2613  0.3595
   11CHTO   O70 4350   6.498   6.859   1.272  0.3253 -0.5176 -0.3769
   11CHTO  H170 4351   6.555   6.895   1.206 -0.2438  2.3482  0.6327
   11CHTO   O57 4352   6.386   6.712   1.743 -0.1254 -0.2513 -0.3965
   11CHTO   C85 4353   6.410   6.779   1.864 -0.5131 -0.3526 -0.3670
   11CHTO  H157 4354   6.310   6.795   1.909 -0.0489  1.0610  0.2111
   11CHTO   C83 4355   6.467   6.924   1.848 -0.4299 -0.1502  0.5729
   11CHTO  H155 4356   6.390   6.985   1.800 -1.4363 -1.6463  0.2443
   11CHTO   O56 4357   6.581   6.919   1.760  0.0329  0.4611  0.1883
   11CHTO  H135 4358   6.553   6.883   1.679 -2.3224  0.8271  0.8204
   11CHTO   C81 4359   6.509   6.990   1.984 -0.1431  0.0249  0.1719
   11CHTO  H153 4360   6.421   6.988   2.048  0.0195 -0.8814  0.3691
   11CHTO   N14 4361   6.545   7.133   1.978  0.4609  0.1355 -0.1730
   11CHTO  H141 4362   6.464   7.181   1.928  1.4004  1.5432 -0.3744
   11CHTO  H142 4363   6.631   7.134   1.914  0.9456  1.7452  0.5004
   11CHTO   C79 4364   6.622   6.910   2.059  0.1681  0.0499  0.0245
   11CHTO  H151 4365   6.631   6.951   2.160 -0.5260  0.9269 -0.2578
   11CHTO   O52 4366   6.571   6.772   2.082 -0.2064  0.1004 -0.2192
   11CHTO   C86 4367   6.510   6.704   1.969  0.0982  0.6108  0.3263
   11CHTO  H158 4368   6.602   6.671   1.917  0.1132 -0.0556  0.7677
   11CHTO   C90 4369   6.442   6.577   2.016 -0.0477 -0.4210 -0.1893
   11CHTO   O60 4370   6.523   6.487   2.092 -0.6363 -0.7179  0.0373
   11CHTO  H138 4371   6.515   6.508   2.183 -1.4882  1.2798 -0.4734
   11CHTO   O50 4372   6.752   6.904   1.991  0.5996 -0.2025  0.9643
   11CHTO   C73 4373   6.892   6.862   1.989  0.5336 -0.2605 -0.5499
   11CHTO  H145 4374   6.912   6.776   2.055 -0.0614  0.5290  0.6732
   11CHTO   C74 4375   6.990   6.979   2.042  0.1323  0.2026  0.0459
   11CHTO  H146 4376   6.963   7.003   2.146  0.6799 -2.0573  0.7423
   11CHTO   O54 4377   7.122   6.928   2.046  0.0622 -0.2185  0.1935
   11CHTO  H133 4378   7.122   6.839   2.018  1.0237 -0.0201 -0.4763
   11CHTO   C75 4379   6.975   7.103   1.946  0.1069  0.2294  0.1064
   11CHTO  H147 4380   6.869   7.130   1.936 -0.0632 -0.1407  0.9114
   11CHTO   N13 4381   7.051   7.227   1.976 -0.1506 -0.4160  0.1319
   11CHTO  H139 4382   7.038   7.301   1.899  0.7245 -0.9644 -0.5479
   11CHTO  H140 4383   7.158   7.215   1.978  0.0996  1.7152  0.2727
   11CHTO   C76 4384   7.016   7.044   1.802 -0.0722  0.3552 -0.0096
   11CHTO  H148 4385   7.123   7.030   1.811  0.0464  1.7100  0.7335
   11CHTO   O49 4386   6.931   6.936   1.760  0.4176 -0.0312  0.6835
   11CHTO   C77 4387   6.936   6.823   1.844 -0.7012 -0.0739  0.5019
   11CHTO  H149 4388   7.036   6.780   1.844 -0.9602 -0.7449 -1.2025
   11CHTO   C88 4389   6.853   6.711   1.785  0.1243  0.2871  0.7232
   11CHTO   O58 4390   6.836   6.604   1.889  0.3954  0.1708 -0.2589
   11CHTO  H136 4391   6.765   6.546   1.869 -0.6042  1.2798  0.0135
   11CHTO   O51 4392   6.985   7.156   1.678 -0.1319  0.4186  0.2798
   11CHTO   C78 4393   7.114   7.185   1.587  0.5943 -1.0217 -0.2075
   11CHTO  H150 4394   7.210   7.156   1.634  0.1823 -1.2632  0.5004
   11CHTO   C80 4395   7.116   7.340   1.562  0.0292  0.3134  0.1483
   11CHTO  H152 4396   7.016   7.375   1.529  1.4331  2.2141 -2.2764
   11CHTO   O55 4397   7.147   7.402   1.683  0.4173  0.3431 -0.0865
   11CHTO  H134 4398   7.224   7.365   1.721  1.8770  1.6145 -1.7513
   11CHTO   C84 4399   7.214   7.393   1.449 -0.2051 -0.0774  0.2035
   11CHTO  H156 4400   7.313   7.367   1.486  0.0394 -0.2742 -0.5938
   11CHTO   N15 4401   7.209   7.540   1.423  0.2846  0.2834  0.0596
   11CHTO  H143 4402   7.140   7.590   1.488  0.8542 -0.0787  0.9577
   11CHTO  H144 4403   7.307   7.582   1.436  0.7256 -0.2350 -1.4637
   11CHTO   C87 4404   7.187   7.309   1.321  0.1684 -0.0981  0.4568
   11CHTO  H159 4405   7.091   7.338   1.278  0.1941 -1.5501 -0.5922
   11CHTO   O53 4406   7.184   7.162   1.353 -0.0868  0.0190  0.4844
   11CHTO   C82 4407   7.099   7.106   1.455 -0.1630 -0.2705 -0.7422
   11CHTO  H154 4408   6.996   7.107   1.420 -0.2818  0.0111 -0.3831
   11CHTO   C89 4409   7.134   6.960   1.490  0.4670 -0.1285 -0.4475
   11CHTO   O59 4410   7.141   6.867   1.383  0.0477 -0.0037 -0.1778
   11CHTO  H137 4411   7.138   6.779   1.417  0.0960  0.1831  0.3073
   11CHTO   O45 4412   7.320   7.338   1.203 -0.0936  0.1932  0.4646
   11CHTO   C67 4413   7.267   7.334   1.070 -0.3778  0.0184  0.4589
   11CHTO  H124 4414   7.196   7.253   1.057 -1.3325  0.7705  0.9619
   11CHTO   C65 4415   7.203   7.479   1.030  0.4929  0.1616  0.3568
   11CHTO  H122 4416   7.242   7.546   1.106 -1.3925  0.2462  1.2682
   11CHTO   O44 4417   7.057   7.466   1.045  0.1162 -0.0649  0.2240
   11CHTO  H102 4418   7.029   7.383   1.011  1.7227 -0.2522 -0.6962
   11CHTO   C63 4419   7.254   7.534   0.892  0.5162 -0.1770  0.2527
   11CHTO  H120 4420   7.353   7.576   0.908  0.3212 -0.3871  2.1400
   11CHTO   N11 4421   7.172   7.653   0.837 -0.0618 -0.1293  0.2268
   11CHTO  H108 4422   7.230   7.687   0.753  1.4195 -1.0544  0.8463
   11CHTO  H109 4423   7.076   7.617   0.807 -0.9523  0.5343  2.2301
   11CHTO   C61 4424   7.265   7.419   0.791 -0.5998 -0.2879  0.1662
   11CHTO  H118 4425   7.295   7.461   0.693 -0.9229  1.1393  0.6667
   11CHTO   O40 4426   7.366   7.325   0.836 -0.3033 -0.1159 -0.4088
   11CHTO   C68 4427   7.389   7.300   0.981  0.0372  0.1453 -0.3860
   11CHTO  H125 4428   7.478   7.356   1.018 -1.2050  1.9012  0.0297
   11CHTO   C72 4429   7.425   7.152   0.992 -0.6998  1.1519 -0.1211
   11CHTO   O48 4430   7.538   7.101   0.925 -0.0087 -0.0344  0.3979
   11CHTO  H105 4431   7.534   7.114   0.832 -1.6300 -0.3641  0.4086
   11CHTO   O38 4432   7.140   7.349   0.777 -0.6724 -0.0739 -0.4921
   11CHTO   C55 4433   7.129   7.249   0.669 -0.2597 -0.0771  0.3652
   11CHTO  H112 4434   7.229   7.213   0.643  0.4419  1.4068  0.9453
   11CHTO   C56 4435   7.061   7.326   0.548  0.7851  0.5770 -0.1737
   11CHTO  H113 4436   6.975   7.374   0.597 -1.3244 -1.9350 -1.2744
   11CHTO   O42 4437   7.146   7.417   0.488  0.2680  0.7905 -0.5010
   11CHTO  H100 4438   7.094   7.474   0.435  1.1343  1.9665 -0.1059
   11CHTO   C57 4439   7.009   7.229   0.434 -0.0440 -0.3904  0.2312
   11CHTO  H114 4440   7.087   7.210   0.361 -0.6314 -1.5596 -0.0961
   11CHTO   N10 4441   6.906   7.289   0.344  0.5747  0.7243  0.1018
   11CHTO  H106 4442   6.808   7.265   0.382  1.4395 -0.5373  1.5921
   11CHTO  H107 4443   6.926   7.395   0.347  0.5472  0.7096  1.1306
   11CHTO   C58 4444   6.956   7.090   0.492 -0.4482  0.6816  0.3910
   11CHTO  H115 4445   6.855   7.106   0.536 -0.7703  0.6588 -0.3424
   11CHTO   O37 4446   7.042   7.040   0.596  0.1705 -0.1576  0.0488
   11CHTO   C59 4447   7.040   7.126   0.709  0.5481 -0.4990 -0.2025
   11CHTO  H116 4448   6.937   7.162   0.720  0.3677 -0.8462 -0.7496
   11CHTO   C70 4449   7.094   7.046   0.826 -0.0330 -0.1828 -0.3128
   11CHTO   O46 4450   7.224   6.988   0.801  0.3233 -0.0229 -0.8076
   11CHTO  H103 4451   7.255   6.987   0.889 -3.5558 -0.7989  0.6026
   11CHTO   O39 4452   6.956   6.977   0.378  0.2410 -0.5716  0.8833
   11CHTO   C60 4453   6.845   6.894   0.353  0.7625 -0.2056  0.3902
   11CHTO  H117 4454   6.781   6.884   0.441  0.5184 -0.5349  0.1774
   11CHTO   C62 4455   6.775   6.956   0.227 -0.1229  0.2264 -0.4847
   11CHTO  H119 4456   6.727   7.049   0.266 -0.4402 -1.0320  2.1940
   11CHTO   O43 4457   6.866   6.981   0.116 -0.4492  0.8118  0.2676
   11CHTO  H101 4458   6.884   6.900   0.072 -2.0444  0.7494 -0.2915
   11CHTO   C66 4459   6.657   6.861   0.175  0.0269 -0.2115 -0.2230
   11CHTO  H123 4460   6.584   6.854   0.256  1.5223  0.6263  1.2395
   11CHTO   N12 4461   6.575   6.910   0.064 -0.2393  0.5858  0.2780
   11CHTO  H110 4462   6.495   6.965   0.111 -1.9948 -2.8626  1.5505
   11CHTO  H111 4463   6.639   6.959  -0.007  0.9998 -0.4828  0.6379
   11CHTO   C69 4464   6.711   6.721   0.151 -0.4101  0.0175  0.6060
   11CHTO  H126 4465   6.788   6.735   0.072  0.1815  0.8288  1.3262
   11CHTO   O41 4466   6.783   6.669   0.264 -0.2271  0.1615  0.5623
   11CHTO   C64 4467   6.905   6.755   0.316 -0.1050 -0.7323 -0.1087
   11CHTO  H121 4468   6.986   6.770   0.242  0.1304 -2.1647 -0.1556
   11CHTO   C71 4469   6.991   6.697   0.432  1.0913 -0.4752  0.5192
   11CHTO   O47 4470   7.046   6.574   0.395  0.0377 -0.8252  0.0361
   11CHTO  H104 4471   7.119   6.587   0.337  0.0464 -1.4170 -0.0860
   11CHTO   O34 4472   6.591   6.621   0.114 -0.3113  0.1186  0.4316
   11CHTO   C49 4473   6.508   6.536   0.244 -0.1962  0.8091 -0.5036
   11CHTO   H91 4474   6.577   6.518   0.326 -1.6693 -1.4221  0.2906
   11CHTO   C47 4475   6.450   6.402   0.197  0.1495 -0.1999 -0.4796
   11CHTO   H89 4476   6.400   6.354   0.284 -1.5385 -0.7030 -1.6914
   11CHTO   O33 4477   6.556   6.324   0.148 -0.0990  0.1069 -0.3692
   11CHTO   H70 4478   6.538   6.234   0.131  0.6050 -0.2820  0.8761
   11CHTO   C45 4479   6.338   6.423   0.080  0.3567 -0.4965  0.6479
   11CHTO   H87 4480   6.384   6.489   0.005 -2.5942  0.2977 -0.5424
   11CHTO    N8 4481   6.297   6.298   0.013 -0.3334  0.1102  0.6950
   11CHTO   H75 4482   6.231   6.241   0.076  0.3380  2.5849  3.7231
   11CHTO   H76 4483   6.245   6.337  -0.074  0.0437  0.6833  0.7177
   11CHTO   C43 4484   6.218   6.513   0.145  0.2814  0.8599  0.8162
   11CHTO   H85 4485   6.158   6.547   0.060 -0.7123 -3.7443 -0.4595
   11CHTO   O29 4486   6.271   6.622   0.219  0.0684 -0.7187 -0.1649
   11CHTO   C50 4487   6.392   6.619   0.303  0.0614  0.1152  0.0946
   11CHTO   H92 4488   6.436   6.720   0.314  0.2959 -0.0804  1.0177
   11CHTO   C54 4489   6.360   6.584   0.450  0.2631 -0.2871  0.2022
   11CHTO   O36 4490   6.256   6.660   0.507  0.4155  0.0696 -0.1871
   11CHTO   H72 4491   6.276   6.749   0.529 -0.4086  0.5167 -1.2116
   11CHTO   O27 4492   6.141   6.438   0.234  0.3793 -0.3166  0.0928
   11CHTO   C37 4493   6.017   6.402   0.300 -0.0495  0.0259 -0.6991
   11CHTO   H79 4494   6.025   6.383   0.408  1.3044  0.5972 -0.6833
   11CHTO   C38 4495   5.914   6.514   0.289 -0.1043 -0.1456 -0.1077
   11CHTO   H80 4496   5.903   6.539   0.182  0.1029 -2.2983 -0.6533
   11CHTO   O31 4497   5.976   6.627   0.356 -0.5746 -0.1232 -0.0787
   11CHTO   H68 4498   6.058   6.655   0.321 -0.1402  0.5789  1.4549
   11CHTO   C39 4499   5.778   6.476   0.353  0.8119  0.0113 -0.1171
   11CHTO   H81 4500   5.789   6.450   0.458 -2.8363 -0.4621  0.2358
   11CHTO    N7 4501   5.671   6.588   0.350 -0.2041  0.1234 -0.3451
   11CHTO   H73 4502   5.598   6.588   0.271  0.2948  1.5675 -0.8288
   11CHTO   H74 4503   5.626   6.600   0.448  1.0726  0.1695  0.2537
   11CHTO   C40 4504   5.725   6.343   0.290 -0.3499 -0.0986  0.0072
   11CHTO   H82 4505   5.673   6.360   0.196  0.0628 -2.0048 -0.5859
   11CHTO   O26 4506   5.824   6.245   0.276  0.5305  0.0715  0.1583
   11CHTO   C41 4507   5.954   6.280   0.230 -0.1766  0.1422  0.8967
   11CHTO   H83 4508   5.948   6.298   0.121 -0.2054 -1.0141  0.7093
   11CHTO   C52 4509   6.049   6.159   0.247  0.0141  0.0009  0.5005
   11CHTO   O35 4510   6.002   6.049   0.162 -0.3692 -0.2169 -0.2818
   11CHTO   H71 4511   6.060   5.976   0.173  2.0667  1.5084 -1.1841
   11CHTO   O28 4512   5.630   6.276   0.381  0.4668  0.2875 -0.6913
   11CHTO   C42 4513   5.564   6.154   0.344  0.0920 -0.3130  0.2775
   11CHTO   H84 4514   5.632   6.106   0.274 -0.7563  0.4645 -1.1258
   11CHTO   C44 4515   5.414   6.174   0.274  0.1701  0.5431 -0.3247
   11CHTO   H86 4516   5.352   6.218   0.351  0.2023  0.4655 -0.2543
   11CHTO   O32 4517   5.428   6.251   0.152  0.3409 -0.1224  0.1461
   11CHTO   H69 4518   5.504   6.305   0.153  1.4222 -1.6017  0.8454
   11CHTO   C48 4519   5.341   6.033   0.248 -0.1331 -0.2205  0.0277
   11CHTO   H90 4520   5.404   5.981   0.175  1.5717 -1.1129  2.0705
   11CHTO    N9 4521   5.197   6.049   0.199  0.1606  0.4246  0.1121
   11CHTO   H77 4522   5.134   6.091   0.275 -0.6502 -0.3821 -0.1155
   11CHTO   H78 4523   5.194   6.116   0.114  3.5957 -0.3855 -0.7582
   11CHTO   C51 4524   5.352   5.941   0.375 -0.3324 -0.4025  0.1080
   11CHTO   H93 4525   5.295   5.985   0.457  0.3825 -0.2386  0.5201
   11CHTO   O30 4526   5.492   5.928   0.407  0.2626  0.1789  0.0279
   11CHTO   C46 4527   5.543   6.052   0.462 -0.8054 -0.0248 -0.1924
   11CHTO   H88 4528   5.476   6.103   0.531  0.2062  0.6303  0.3207
   11CHTO   C53 4529   5.676   6.027   0.532  0.0114  0.0588  0.6726
   11CHTO   O72 4530   5.770   5.968   0.437  0.2273  0.3452 -0.1724
   11CHTO  H199 4531   5.718   5.918   0.377  2.3041  0.1025 -1.8432
   11CHTO   O22 4532   5.303   5.806   0.349 -0.3480 -0.3534  0.1459
   11CHTO   C31 4533   5.300   5.719   0.466  0.1930 -0.0815  0.4981
   11CHTO   H59 4534   5.361   5.772   0.543  2.3193 -1.1652 -0.3911
   11CHTO   C29 4535   5.160   5.695   0.525 -0.9335 -0.5545 -0.2064
   11CHTO   H57 4536   5.115   5.642   0.440  0.7616 -1.3043 -0.6566
   11CHTO   O21 4537   5.098   5.822   0.554  0.2850  0.2243 -0.5061
   11CHTO   H37 4538   5.020   5.828   0.607  0.3955 -0.6352 -0.2346
   11CHTO   C27 4539   5.157   5.591   0.653  0.6825  0.0090 -0.8713
   11CHTO   H55 4540   5.205   5.639   0.740  2.2582 -0.7467 -1.3094
   11CHTO    N5 4541   5.011   5.563   0.685  0.3325  0.0448  0.0703
   11CHTO   H43 4542   4.959   5.654   0.712 -1.9826 -0.6430 -1.8876
   11CHTO   H44 4543   4.960   5.522   0.599 -0.0836 -1.0693  0.8358
   11CHTO   C25 4544   5.241   5.468   0.617 -0.3324 -0.5417 -0.2363
   11CHTO   H53 4545   5.197   5.406   0.537 -0.7986 -0.9390  0.3315
   11CHTO   O17 4546   5.374   5.508   0.573 -0.2406 -0.1234  0.3321
   11CHTO   C32 4547   5.373   5.583   0.448  0.7600  0.2631  0.0497
   11CHTO   H60 4548   5.316   5.525   0.375 -1.9090 -0.9570  2.9807
   11CHTO   C36 4549   5.522   5.602   0.394 -0.5703 -0.6101 -0.0694
   11CHTO   O25 4550   5.519   5.607   0.252 -0.7238  0.2046 -0.6359
   11CHTO   H40 4551   5.474   5.534   0.214  1.2173 -0.8007 -1.0808
   11CHTO   O15 4552   5.252   5.372   0.744  0.2383 -0.5321  0.3217
   11CHTO   C19 4553   5.220   5.230   0.762 -0.3270 -0.4601  0.3791
   11CHTO   H47 4554   5.286   5.188   0.838 -2.3725 -0.8522  1.9835
   11CHTO   C20 4555   5.080   5.208   0.828 -0.2209  0.1506  0.1558
   11CHTO   H48 4556   4.996   5.249   0.770 -0.9982 -2.2381 -0.4632
   11CHTO   O19 4557   5.088   5.276   0.957 -0.3716  0.4030 -0.0581
   11CHTO   H35 4558   5.148   5.232   1.015 -0.9147  0.5705  0.6352
   11CHTO   C21 4559   5.062   5.049   0.845  0.2144  0.3929  0.5900
   11CHTO   H49 4560   5.138   5.011   0.913  2.2460  2.7955 -0.2612
   11CHTO    N4 4561   4.926   5.018   0.894  0.2619  1.0149  0.2623
   11CHTO   H41 4562   4.923   5.025   1.002 -2.4437  0.7062  0.2426
   11CHTO   H42 4563   4.860   5.094   0.854  0.9234  0.9490 -0.9904
   11CHTO   C22 4564   5.088   4.975   0.712 -0.5684  0.1163  0.4814
   11CHTO   H50 4565   5.013   5.015   0.643 -1.5547 -2.4292 -0.0024
   11CHTO   O14 4566   5.217   5.000   0.657  0.5930 -0.1050 -0.2712
   11CHTO   C23 4567   5.245   5.141   0.634 -0.7008 -0.1969  0.2923
   11CHTO   H51 4568   5.170   5.160   0.556  0.7211  1.9766 -0.6129
   11CHTO   C34 4569   5.390   5.156   0.586 -0.2631 -0.4519 -1.0245
   11CHTO   O23 4570   5.385   5.171   0.445  0.0047 -0.2229 -0.0357
   11CHTO   H38 4571   5.353   5.092   0.405  0.3145 -1.1110  1.4381
   11CHTO   O16 4572   5.086   4.827   0.729 -0.3392 -0.6264  0.2843
   11CHTO   C24 4573   5.035   4.768   0.581 -0.3055 -0.7025  0.0438
   11CHTO   H52 4574   5.044   4.842   0.501  2.4587 -0.1626  0.8062
   11CHTO   C26 4575   4.890   4.726   0.600 -0.2185  0.0425 -0.3964
   11CHTO   H54 4576   4.888   4.643   0.672  2.2099  0.3837  0.1110
   11CHTO   O20 4577   4.813   4.826   0.664 -0.3359 -0.1375 -0.3911
   11CHTO   H36 4578   4.848   4.840   0.750 -0.5605  0.8292 -0.4521
   11CHTO   C30 4579   4.822   4.681   0.465 -0.2351 -0.1141 -1.1323
   11CHTO   H58 4580   4.815   4.769   0.399  1.7486  1.2760  0.4199
   11CHTO    N6 4581   4.684   4.620   0.476  0.0067  0.3710 -1.0340
   11CHTO   H45 4582   4.623   4.649   0.561  1.7113  1.5574 -0.1881
   11CHTO   H46 4583   4.636   4.666   0.391  0.6538  1.2326 -0.9396
   11CHTO   C33 4584   4.910   4.573   0.389 -0.0841 -0.5405  0.7831
   11CHTO   H61 4585   4.900   4.476   0.438  1.1228 -0.4254  1.2688
   11CHTO   O18 4586   5.049   4.612   0.394 -0.1338  0.3753  0.0167
   11CHTO   C28 4587   5.106   4.638   0.526 -1.0432 -0.0849  0.4046
   11CHTO   H56 4588   5.077   4.555   0.590  0.0178 -0.9589 -0.2487
   11CHTO   C35 4589   5.257   4.659   0.519 -0.4898 -0.2887  0.5206
   11CHTO   O24 4590   5.337   4.552   0.472 -0.2281 -0.1269  0.1226
   11CHTO   H39 4591   5.424   4.583   0.461 -0.1201 -0.3559  0.3138
   11CHTO    O9 4592   4.872   4.546   0.253  0.1934  0.1768  0.0003
   11CHTO   C13 4593   4.908   4.686   0.145 -0.4041 -0.2676 -0.6606
   11CHTO   H26 4594   4.974   4.754   0.202  2.3740 -0.9032 -2.9896
   11CHTO   C11 4595   4.784   4.757   0.096  1.1012 -0.4103  0.5743
   11CHTO   H24 4596   4.744   4.807   0.185  3.5086  1.1127  0.8549
   11CHTO    O8 4597   4.702   4.653   0.047 -0.4116  0.6842 -0.1724
   11CHTO    H3 4598   4.616   4.663   0.083  0.1147 -0.0675  1.3269
   11CHTO    C9 4599   4.826   4.869  -0.006  0.2141  0.2872  0.3492
   11CHTO   H22 4600   4.851   4.959   0.051  0.3654  0.5574 -0.1409
   11CHTO    N2 4601   4.722   4.915  -0.100 -0.2717 -0.4374 -0.0880
   11CHTO   H10 4602   4.631   4.934  -0.044  0.3436 -1.4147  1.2765
   11CHTO   H11 4603   4.754   4.998  -0.160 -0.7282  0.7564  1.3060
   11CHTO    C7 4604   4.960   4.840  -0.083 -0.2371  0.3024 -0.2926
   11CHTO   H20 4605   5.039   4.879  -0.015 -1.0684  1.4126  0.0428
   11CHTO    O4 4606   4.977   4.697  -0.108  0.2525  0.3450  0.3031
   11CHTO   C14 4607   4.981   4.617   0.015 -1.2513  0.2609  0.2300
   11CHTO   H27 4608   5.089   4.616   0.040 -1.5009  2.2202  1.4768
   11CHTO   C18 4609   4.940   4.473  -0.011 -0.2093 -0.2070  0.6186
   11CHTO   O13 4610   5.045   4.396  -0.078  0.3435  0.3006  0.2494
   11CHTO    H7 4611   5.001   4.352  -0.148 -0.6888  1.3616  0.2118
   11CHTO    O2 4612   4.991   4.924  -0.254 -0.3054  0.3387 -0.1069
   11CHTO    C1 4613   5.099   5.024  -0.256  0.2737  0.1196  0.2190
   11CHTO   H14 4614   5.189   4.992  -0.199  1.2044  0.0461 -1.2440
   11CHTO    C2 4615   5.062   5.170  -0.201  0.1595 -0.2720 -1.1269
   11CHTO   H15 4616   4.966   5.197  -0.249 -0.7277 -2.7990 -0.8389
   11CHTO    O6 4617   5.058   5.172  -0.058  0.1284 -0.0683  0.3445
   11CHTO    H1 4618   5.007   5.244  -0.027  1.1265  0.9343 -0.3258
   11CHTO    C3 4619   5.165   5.277  -0.252 -0.0690 -0.6413  0.2826
   11CHTO   H16 4620   5.256   5.275  -0.191  0.2159  1.1470 -0.0375
   11CHTO    N1 4621   5.111   5.417  -0.241 -0.1444 -0.2728  0.4237
   11CHTO    H8 4622   5.097   5.457  -0.341  0.2006  1.2829  0.9776
   11CHTO    H9 4623   5.189   5.479  -0.200 -0.1052  1.4166 -2.0504
   11CHTO    C4 4624   5.221   5.257  -0.402 -0.5049 -0.4927 -0.7207
   11CHTO   H17 4625   5.142   5.294  -0.468 -0.8105 -0.2074 -0.2013
   11CHTO    O1 4626   5.262   5.120  -0.416 -0.1582 -0.1224 -0.4137
   11CHTO    C5 4627   5.165   5.022  -0.400  0.1842 -0.0052  0.2102
   11CHTO   H18 4628   5.084   5.035  -0.473 -0.5714 -3.4990  0.3440
   11CHTO   C16 4629   5.234   4.892  -0.434 -0.5767  0.3856 -0.3292
   11CHTO   O11 4630   5.332   4.852  -0.334  0.2742  0.2577  0.4710
   11CHTO    H5 4631   5.393   4.922  -0.319  0.5732  0.4928 -1.6877
   11CHTO    O3 4632   5.338   5.339  -0.425  0.6254  0.5080  0.5914
   11CHTO    C6 4633   5.368   5.358  -0.567  0.1720  0.3417 -0.4185
   11CHTO   H19 4634   5.317   5.288  -0.634  0.9147 -0.6759  0.0726
   11CHTO    C8 4635   5.319   5.503  -0.621  0.2419  0.0478  0.0347
   11CHTO   H21 4636   5.366   5.578  -0.558 -1.3422 -0.7020  2.1427
   11CHTO    O7 4637   5.174   5.520  -0.617 -0.3955  0.4672  0.1116
   11CHTO    H2 4638   5.145   5.517  -0.528  0.3927  3.1206  0.5032
   11CHTO   C12 4639   5.381   5.528  -0.765 -0.1074  0.2275 -0.7858
   11CHTO   H25 4640   5.328   5.459  -0.834  0.6406 -0.9827 -0.1779
   11CHTO    N3 4641   5.352   5.663  -0.818 -0.1876  0.1952  0.3042
   11CHTO   H12 4642   5.281   5.707  -0.750 -0.6720 -0.3004  0.1204
   11CHTO   H13 4643   5.439   5.728  -0.820 -0.6844  0.8500 -1.7813
   11CHTO   C15 4644   5.534   5.486  -0.769  0.0349  0.1231 -0.7875
   11CHTO   H28 4645   5.595   5.544  -0.700  0.2641  0.7077 -1.4813
   11CHTO   O10 4646   5.590   5.478  -0.903  0.0527 -0.2606  0.0909
   11CHTO    H4 4647   5.553   5.409  -0.955  2.1505 -2.5798  1.5439
   11CHTO    O5 4648   5.540   5.344  -0.726  0.5491 -0.5687  0.1327
   11CHTO   C10 4649   5.518   5.331  -0.589  0.1585  0.1791  0.1256
   11CHTO   H23 4650   5.584   5.398  -0.533  1.0616  0.1796 -0.9168
   11CHTO   C17 4651   5.564   5.189  -0.556 -0.3125  0.6324  0.1386
   11CHTO   O12 4652   5.566   5.164  -0.414  0.4518  0.2501 -0.0180
   11CHTO    H6 4653   5.515   5.092  -0.384 -0.5120  1.3136  0.9601
   12CHTO  H203 4654   5.473   1.968   2.053 -0.0267 -1.2750  3.0160
   12CHTO   O82 4655   5.411   1.911   2.011  0.1875  0.3421  0.3503
   12CHTO  C123 4656   5.346   1.839   2.123 -1.0331 -0.1687 -0.1292
   12CHTO  H227 4657   5.338   1.909   2.207 -1.5525 -0.5586  0.1508
   12CHTO   O77 4658   5.201   1.824   2.080 -0.0282 -0.3963 -0.5990
   12CHTO  C118 4659   5.116   1.737   2.159 -0.2233  0.4933 -0.6010
   12CHTO  H222 4660   5.081   1.791   2.249 -3.0060 -1.3538 -0.5117
   12CHTO  C125 4661   4.990   1.707   2.075 -0.3679  0.4315  0.3224
   12CHTO   O84 4662   4.909   1.827   2.080  0.3276 -0.3838 -0.5956
   12CHTO  H205 4663   4.841   1.806   2.141 -1.0878  1.6962 -1.4175
   12CHTO  C114 4664   5.177   1.598   2.202  0.0080 -0.2350  0.0819
   12CHTO  H218 4665   5.179   1.527   2.119 -1.3502 -0.1325 -0.0588
   12CHTO  C116 4666   5.319   1.620   2.252 -0.6546 -0.2462 -0.1133
   12CHTO  H220 4667   5.316   1.682   2.343  0.1075  0.5640 -0.6283
   12CHTO   O79 4668   5.367   1.483   2.284 -0.3344 -0.6545  0.4133
   12CHTO  H201 4669   5.380   1.474   2.377 -0.4424  0.1020  0.5036
   12CHTO  C120 4670   5.410   1.694   2.147 -0.2244 -0.0631  0.5671
   12CHTO  H224 4671   5.408   1.623   2.062  2.3412 -0.7577  1.0421
   12CHTO   N21 4672   5.558   1.706   2.183  0.2534 -0.2210  0.1747
   12CHTO  H211 4673   5.627   1.699   2.101  1.0098 -2.0077  0.9399
   12CHTO  H212 4674   5.579   1.645   2.270 -2.0347  0.7342  1.4707
   12CHTO   O75 4675   5.090   1.554   2.313 -0.2579  0.0770  0.4838
   12CHTO  C112 4676   5.047   1.401   2.275 -0.5673 -0.3035  0.3608
   12CHTO  H216 4677   5.122   1.349   2.214  0.0951  2.0846 -0.9181
   12CHTO   O73 4678   4.919   1.408   2.210  0.0667  0.3956 -0.4119
   12CHTO  C113 4679   4.843   1.286   2.189 -0.4424 -0.5324 -0.0773
   12CHTO  H217 4680   4.891   1.228   2.107  1.2238  0.8955 -0.1324
   12CHTO  C124 4681   4.707   1.331   2.143 -0.4484  0.4908 -0.3699
   12CHTO   O83 4682   4.637   1.251   2.049  0.1627  0.0823 -0.3856
   12CHTO  H204 4683   4.657   1.161   2.064  1.6767  0.7619  1.8825
   12CHTO  C109 4684   4.826   1.195   2.310 -0.0756 -0.6096  0.0760
   12CHTO  H213 4685   4.754   1.247   2.375 -0.4358  0.6145 -1.2889
   12CHTO  C110 4686   4.962   1.183   2.391 -0.0766  0.4839 -0.8360
   12CHTO  H214 4687   5.029   1.114   2.341  2.3089  0.7629  1.8507
   12CHTO   O78 4688   4.928   1.117   2.512  0.4769  0.0638  0.6619
   12CHTO  H200 4689   4.982   1.046   2.544 -0.3722 -0.3770  1.1298
   12CHTO  C111 4690   5.035   1.323   2.416 -0.0668  0.2492  0.2641
   12CHTO  H215 4691   4.972   1.383   2.484 -0.7103  0.1730 -0.2596
   12CHTO   N19 4692   5.167   1.317   2.482 -0.2775  0.6502  0.2353
   12CHTO  H207 4693   5.238   1.271   2.415 -0.8637  0.6222 -0.3749
   12CHTO  H208 4694   5.144   1.254   2.567  1.0700  0.6164  0.5874
   12CHTO   O74 4695   4.767   1.062   2.271 -0.0528  0.3908  0.2707
   12CHTO  C115 4696   4.651   1.008   2.384 -0.3866 -0.1303  0.1482
   12CHTO  H219 4697   4.679   1.035   2.486 -0.7421  0.8270  0.0011
   12CHTO   O76 4698   4.495   1.080   2.357 -0.0523 -0.1180 -0.6234
   12CHTO  C122 4699   4.384   1.020   2.420  0.9273  0.1257 -0.3170
   12CHTO  H226 4700   4.295   1.050   2.364  0.2031  1.2510  1.3938
   12CHTO  C126 4701   4.356   1.090   2.556 -0.3558 -0.3061  0.1895
   12CHTO   O85 4702   4.316   1.229   2.561 -0.1637 -0.0744  0.6235
   12CHTO  H206 4703   4.304   1.258   2.649  0.3440 -0.0224  0.6781
   12CHTO  C121 4704   4.382   0.866   2.428  0.4425  0.4907  0.1941
   12CHTO  H225 4705   4.313   0.844   2.511  0.3548  0.9618  0.2492
   12CHTO   O81 4706   4.316   0.819   2.311  0.7875  0.0107 -0.1585
   12CHTO  H202 4707   4.366   0.846   2.236 -0.4801  1.9127 -0.3648
   12CHTO  C119 4708   4.517   0.808   2.472  0.5952 -0.3426 -0.3427
   12CHTO  H223 4709   4.539   0.860   2.565 -2.1489  0.7630 -0.2777
   12CHTO  C117 4710   4.626   0.856   2.373 -0.5238 -0.3478 -0.4400
   12CHTO  H221 4711   4.609   0.833   2.268 -0.7106  0.4868 -0.5984
   12CHTO   N20 4712   4.754   0.781   2.409 -1.0361 -0.0580 -0.3001
   12CHTO  H209 4713   4.798   0.759   2.313 -0.4015  3.0070 -0.7606
   12CHTO  H210 4714   4.810   0.847   2.473 -0.0131  0.5286 -1.7601
   12CHTO   O80 4715   4.498   0.635   2.523 -0.3700 -0.6477  0.4525
   12CHTO  C103 4716   4.413   0.540   2.440 -0.4441  0.0223  0.1671
   12CHTO  H190 4717   4.316   0.588   2.425 -1.1787 -0.5791  2.8328
   12CHTO  C101 4718   4.477   0.484   2.312 -0.2896 -0.4937  1.1053
   12CHTO  H188 4719   4.576   0.443   2.330  0.0293  0.6688  2.0163
   12CHTO   O68 4720   4.503   0.606   2.195  0.3786 -0.3051 -0.1817
   12CHTO  H168 4721   4.545   0.681   2.231  0.7535 -0.6671  0.1477
   12CHTO   C99 4722   4.384   0.360   2.242  0.1903  0.0592 -1.0349
   12CHTO  H186 4723   4.280   0.393   2.222 -0.4233  0.3220  2.3178
   12CHTO   N17 4724   4.436   0.313   2.108  0.1979 -0.1951 -0.6553
   12CHTO  H174 4725   4.365   0.235   2.087  2.0153 -3.0660  3.1129
   12CHTO  H175 4726   4.540   0.284   2.117  0.5478  0.8960 -1.1380
   12CHTO   C97 4727   4.360   0.245   2.345 -0.6548 -0.1243  0.5200
   12CHTO  H184 4728   4.462   0.207   2.362  0.6744  1.5860 -3.1557
   12CHTO   O64 4729   4.307   0.312   2.468 -0.3386 -0.5399  0.4425
   12CHTO  C104 4730   4.380   0.419   2.537 -0.1285  0.0480 -0.0913
   12CHTO  H191 4731   4.475   0.371   2.564  0.7321  0.5520 -2.1116
   12CHTO  C108 4732   4.311   0.454   2.666 -0.1576  0.2062  0.4157
   12CHTO   O71 4733   4.324   0.348   2.759  0.8632  0.1021 -0.1756
   12CHTO  H171 4734   4.336   0.382   2.845  1.1579 -0.9482  0.2057
   12CHTO   O62 4735   4.269   0.143   2.302 -0.3984  0.2487  0.5861
   12CHTO   C91 4736   4.273   0.020   2.378  0.7052  0.1035 -0.4561
   12CHTO  H178 4737   4.329   0.027   2.471  1.3733 -0.1176 -0.8434
   12CHTO   C92 4738   4.337  -0.093   2.285 -0.0353  0.6146 -0.1259
   12CHTO  H179 4739   4.290  -0.104   2.187  2.1320  3.2495 -1.5231
   12CHTO   O66 4740   4.465  -0.033   2.252 -0.1944 -0.1470  0.2679
   12CHTO  H166 4741   4.519  -0.099   2.211  0.8212  0.9432 -0.1860
   12CHTO   C93 4742   4.342  -0.231   2.369  0.1204  0.3220  0.0648
   12CHTO  H180 4743   4.408  -0.205   2.454  0.2384  2.0290 -0.5160
   12CHTO   N16 4744   4.412  -0.331   2.291  0.0851  0.4419 -0.1812
   12CHTO  H172 4745   4.362  -0.357   2.198  0.1092  2.0504 -0.6544
   12CHTO  H173 4746   4.440  -0.419   2.346  2.5483  0.4426 -1.3770
   12CHTO   C94 4747   4.195  -0.254   2.425  0.1934  0.3015  0.4175
   12CHTO  H181 4748   4.119  -0.260   2.348 -0.6664 -0.9970  1.3308
   12CHTO   O61 4749   4.153  -0.141   2.512 -0.1539 -0.4257 -0.2364
   12CHTO   C95 4750   4.137  -0.026   2.422 -0.5889 -0.1241  0.5160
   12CHTO  H182 4751   4.076  -0.058   2.338 -1.5900 -1.0385  1.5677
   12CHTO  C106 4752   4.051   0.089   2.501  0.1740  0.4587 -0.9757
   12CHTO   O69 4753   4.113   0.124   2.627  0.1234  0.3539  0.3424
   12CHTO  H169 4754   4.115   0.052   2.686 -0.9656  1.2355  1.4871
   12CHTO   O63 4755   4.170  -0.382   2.523 -0.2826  0.2912 -0.3622
   12CHTO   C96 4756   4.296  -0.438   2.629  0.0849  0.6749 -0.0217
   12CHTO  H183 4757   4.389  -0.382   2.613  0.8683 -0.6921 -0.2762
   12CHTO   C98 4758   4.341  -0.586   2.613 -0.3845 -0.3478 -0.0588
   12CHTO  H185 4759   4.258  -0.657   2.604  0.8013 -1.4925 -2.6196
   12CHTO   O67 4760   4.409  -0.599   2.491  0.3013  0.4211  0.9115
   12CHTO  H167 4761   4.353  -0.584   2.417  1.8190 -1.6489 -0.7104
   12CHTO  C102 4762   4.428  -0.649   2.737  0.2628  0.3909  0.1560
   12CHTO  H189 4763   4.519  -0.588   2.732 -0.1458  1.0411  0.6196
   12CHTO   N18 4764   4.468  -0.790   2.723 -0.1212  0.2002 -0.4770
   12CHTO  H176 4765   4.576  -0.795   2.726 -0.1066  0.7510  0.1108
   12CHTO  H177 4766   4.417  -0.864   2.783  2.3653 -1.6419 -0.5091
   12CHTO  C105 4767   4.345  -0.614   2.863 -0.3070  0.4743 -0.2571
   12CHTO  H192 4768   4.248  -0.664   2.857 -2.0406  3.4631  1.4406
   12CHTO   O65 4769   4.327  -0.475   2.879  0.1091  0.1062  0.2388
   12CHTO  C100 4770   4.249  -0.411   2.776  0.1769 -0.4148  0.3012
   12CHTO  H187 4771   4.143  -0.440   2.784 -0.7419  2.8643  0.9707
   12CHTO  C107 4772   4.239  -0.255   2.785 -0.3513  0.1893  0.0546
   12CHTO   O70 4773   4.146  -0.197   2.887 -0.2200 -0.3697  0.4457
   12CHTO  H170 4774   4.175  -0.232   2.969  1.5956  1.4117  0.6175
   12CHTO   O57 4775   4.428  -0.671   2.997 -0.4539  1.1051 -0.1066
   12CHTO   C85 4776   4.358  -0.693   3.119  0.3886  0.5036  0.6887
   12CHTO  H157 4777   4.257  -0.728   3.088 -0.0458  0.8278  1.7078
   12CHTO   C83 4778   4.356  -0.563   3.201 -0.3890  0.4491 -0.8202
   12CHTO  H155 4779   4.294  -0.486   3.155  0.4125  2.8283  2.0008
   12CHTO   O56 4780   4.488  -0.498   3.208  0.2949  0.3837 -0.3487
   12CHTO  H135 4781   4.483  -0.421   3.261  1.8968 -0.3246  0.8626
   12CHTO   C81 4782   4.299  -0.593   3.345  0.4329  0.0106  0.2528
   12CHTO  H153 4783   4.198  -0.632   3.329  0.0805  1.0117  0.0151
   12CHTO   N14 4784   4.273  -0.471   3.426 -0.3881 -0.1192  0.2560
   12CHTO  H141 4785   4.213  -0.498   3.511 -1.1021  0.3040 -0.1058
   12CHTO  H142 4786   4.230  -0.393   3.367 -1.1052 -1.2823 -0.7762
   12CHTO   C79 4787   4.394  -0.694   3.415  0.3949  0.7913 -0.4361
   12CHTO  H151 4788   4.347  -0.727   3.508 -0.9287 -0.7696 -1.6376
   12CHTO   O52 4789   4.392  -0.816   3.334  0.3494 -0.0678 -0.3164
   12CHTO   C86 4790   4.436  -0.805   3.196  0.1446  0.0815  0.0366
   12CHTO  H158 4791   4.543  -0.778   3.204 -0.4102  1.8605  1.7814
   12CHTO   C90 4792   4.438  -0.938   3.120  0.1905  0.5024  0.7567
   12CHTO   O60 4793   4.313  -1.007   3.137 -0.3126 -0.6721  0.0193
   12CHTO  H138 4794   4.296  -1.065   3.066 -2.3042 -1.7504  1.3257
   12CHTO   O50 4795   4.525  -0.650   3.443  0.1486 -0.2366 -0.1543
   12CHTO   C73 4796   4.623  -0.661   3.549  0.2533 -0.3432  0.1123
   12CHTO  H145 4797   4.575  -0.727   3.623  3.3892 -1.8527  0.8959
   12CHTO   C74 4798   4.655  -0.521   3.613 -0.0762 -0.4598  0.6588
   12CHTO  H146 4799   4.563  -0.470   3.645 -0.1231  0.0731 -0.3293
   12CHTO   O54 4800   4.735  -0.541   3.732 -0.8830  0.2146 -0.3163
   12CHTO  H133 4801   4.773  -0.457   3.748 -2.2591  0.9600 -0.8268
   12CHTO   C75 4802   4.734  -0.434   3.499  0.2669  0.8467  0.5945
   12CHTO  H147 4803   4.665  -0.429   3.413  0.7603 -1.6212  0.0154
   12CHTO   N13 4804   4.763  -0.296   3.548  0.4710 -0.0620  0.0233
   12CHTO  H139 4805   4.825  -0.257   3.468  0.0304  1.2604  0.3149
   12CHTO  H140 4806   4.814  -0.285   3.642  1.1948  1.1699 -0.5085
   12CHTO   C76 4807   4.867  -0.519   3.452 -0.1444  0.0896 -0.3676
   12CHTO  H148 4808   4.922  -0.526   3.546  0.6702 -1.9096 -0.9620
   12CHTO   O49 4809   4.826  -0.652   3.407 -0.2533  0.4223  0.4448
   12CHTO   C77 4810   4.752  -0.731   3.495  0.1855  0.6440  1.0390
   12CHTO  H149 4811   4.810  -0.764   3.582  0.7247  2.2958  1.3324
   12CHTO   C88 4812   4.728  -0.858   3.411 -0.6414  0.0902  0.9098
   12CHTO   O58 4813   4.668  -0.962   3.481  0.0038 -0.6116  0.6958
   12CHTO  H136 4814   4.708  -1.045   3.466 -1.0565 -1.0337  0.2463
   12CHTO   O51 4815   4.951  -0.452   3.334  0.0238  0.1003 -0.3563
   12CHTO   C78 4816   5.096  -0.510   3.319  0.4404  0.2030 -0.0103
   12CHTO  H150 4817   5.107  -0.608   3.369 -0.1917 -0.4345 -1.1130
   12CHTO   C80 4818   5.196  -0.412   3.372 -0.6123 -0.5317  0.1126
   12CHTO  H152 4819   5.187  -0.320   3.310 -0.7723 -0.4464  0.2582
   12CHTO   O55 4820   5.167  -0.380   3.513 -0.0791  0.2337 -0.3653
   12CHTO  H134 4821   5.077  -0.387   3.539 -0.6797 -0.0571 -2.4327
   12CHTO   C84 4822   5.337  -0.486   3.358  0.7235  0.2504  0.3680
   12CHTO  H156 4823   5.339  -0.581   3.411 -1.5949 -0.2528 -0.3592
   12CHTO   N15 4824   5.450  -0.402   3.418 -0.3045 -0.0625  0.5114
   12CHTO  H143 4825   5.437  -0.370   3.519  1.2468  0.9452  0.4156
   12CHTO  H144 4826   5.538  -0.465   3.415  0.9804  1.7584 -0.9670
   12CHTO   C87 4827   5.365  -0.516   3.206  0.4491 -0.1506  0.2726
   12CHTO  H159 4828   5.382  -0.419   3.159  1.7268 -0.3163  0.3824
   12CHTO   O53 4829   5.249  -0.580   3.139  0.2105  0.1473 -0.4489
   12CHTO   C82 4830   5.124  -0.514   3.165 -0.3831  0.6776  0.8798
   12CHTO  H154 4831   5.117  -0.415   3.121 -2.6942  0.0506 -0.2969
   12CHTO   C89 4832   5.024  -0.615   3.090  0.1642 -0.2789 -0.3877
   12CHTO   O59 4833   4.893  -0.571   3.056 -0.3195 -0.6208  0.0764
   12CHTO  H137 4834   4.849  -0.639   3.008  0.5688 -1.2361  0.1208
   12CHTO   O45 4835   5.494  -0.623   3.207 -0.2017 -0.1244  0.4190
   12CHTO   C67 4836   5.565  -0.636   3.084 -0.6418  0.8797  0.2778
   12CHTO  H124 4837   5.667  -0.669   3.103  0.0037  3.0420  0.7305
   12CHTO   C65 4838   5.499  -0.733   2.988  0.3604 -0.0262 -0.4205
   12CHTO  H122 4839   5.412  -0.763   3.047  1.9827 -0.2501  1.9243
   12CHTO   O44 4840   5.594  -0.843   2.963  0.0102 -0.2122 -0.1960
   12CHTO  H102 4841   5.682  -0.811   2.968  0.8858 -2.8604  2.8170
   12CHTO   C63 4842   5.434  -0.658   2.865 -0.4887 -0.3326  0.1590
   12CHTO  H120 4843   5.358  -0.590   2.904 -1.1676 -1.1286  0.2282
   12CHTO   N11 4844   5.341  -0.727   2.762 -0.1159  0.0139  0.3032
   12CHTO  H108 4845   5.392  -0.738   2.669  1.4551  2.0110  0.8921
   12CHTO  H109 4846   5.294  -0.817   2.798 -0.5101 -0.0210 -0.2850
   12CHTO   C61 4847   5.551  -0.585   2.798 -0.0147 -0.3422 -0.3146
   12CHTO  H118 4848   5.511  -0.510   2.728  1.0333 -1.4224 -2.1085
   12CHTO   O40 4849   5.642  -0.512   2.888  0.3171  0.4940 -0.0600
   12CHTO   C68 4850   5.595  -0.489   3.019 -0.6467 -0.3978 -0.2868
   12CHTO  H125 4851   5.507  -0.422   3.014 -1.6095 -1.6786 -0.7075
   12CHTO   C72 4852   5.711  -0.411   3.088 -0.6302  0.3797 -0.1927
   12CHTO   O48 4853   5.661  -0.290   3.145 -0.3875 -0.0613 -0.4737
   12CHTO  H105 4854   5.656  -0.229   3.074  0.9335  0.4717 -0.1245
   12CHTO   O38 4855   5.636  -0.667   2.712 -0.4899 -0.3949 -0.3542
   12CHTO   C55 4856   5.745  -0.606   2.641 -0.0470 -0.4735 -0.5895
   12CHTO  H112 4857   5.761  -0.504   2.677 -0.7872 -0.3917 -0.4846
   12CHTO   C56 4858   5.699  -0.608   2.484 -0.2631  0.4985  0.4141
   12CHTO  H113 4859   5.670  -0.712   2.465  1.1935  0.0414  0.5830
   12CHTO   O42 4860   5.573  -0.536   2.459 -0.1585  0.1898  0.0434
   12CHTO  H100 4861   5.584  -0.490   2.379  1.5336 -0.0346  0.1272
   12CHTO   C57 4862   5.824  -0.561   2.398 -0.2887  0.6177 -0.2219
   12CHTO  H114 4863   5.843  -0.455   2.418 -2.5148  0.9168  0.4200
   12CHTO   N10 4864   5.807  -0.587   2.250  0.2750 -0.1172  0.0624
   12CHTO  H106 4865   5.840  -0.682   2.212 -0.0116 -0.7912  1.4440
   12CHTO  H107 4866   5.827  -0.508   2.179 -1.5732 -0.5095 -0.9211
   12CHTO   C58 4867   5.950  -0.646   2.437  0.5229  0.1004 -0.1320
   12CHTO  H115 4868   5.933  -0.753   2.410 -0.7695 -0.3252  2.1999
   12CHTO   O37 4869   5.969  -0.634   2.579  0.5610  0.2987 -0.2490
   12CHTO   C59 4870   5.872  -0.697   2.663  0.1039 -0.2060 -0.2026
   12CHTO  H116 4871   5.865  -0.801   2.631 -0.5466  0.0806 -1.0166
   12CHTO   C70 4872   5.920  -0.706   2.805 -0.3118 -0.0552 -0.3671
   12CHTO   O46 4873   5.838  -0.795   2.882 -0.4175 -0.1733  0.6398
   12CHTO  H103 4874   5.755  -0.761   2.910 -0.0200 -0.2791  1.9363
   12CHTO   O39 4875   6.091  -0.583   2.356  0.2442  0.2099  0.2847
   12CHTO   C60 4876   6.213  -0.644   2.387 -0.2651 -0.0839 -0.2306
   12CHTO  H117 4877   6.210  -0.671   2.493 -1.3658 -1.2016 -0.5363
   12CHTO   C62 4878   6.243  -0.764   2.301  0.2539  0.1849  0.5876
   12CHTO  H119 4879   6.159  -0.832   2.326 -0.3304  0.9319  0.6704
   12CHTO   O43 4880   6.254  -0.729   2.160  0.6183  0.3419 -0.4050
   12CHTO  H101 4881   6.303  -0.793   2.111 -1.3433 -1.5025 -0.0505
   12CHTO   C66 4882   6.382  -0.835   2.346  0.0828 -0.1179 -0.6464
   12CHTO  H123 4883   6.370  -0.856   2.452 -0.7024  0.3439 -0.6406
   12CHTO   N12 4884   6.415  -0.964   2.276 -0.3442 -0.4998  0.1286
   12CHTO  H110 4885   6.494  -0.965   2.203 -0.6794 -0.1117 -0.2428
   12CHTO  H111 4886   6.328  -1.020   2.244  0.1916 -0.6897 -1.0240
   12CHTO   C69 4887   6.496  -0.730   2.346  0.4729 -0.8374 -0.2241
   12CHTO  H126 4888   6.528  -0.711   2.241 -2.1403  2.0428 -0.5728
   12CHTO   O41 4889   6.458  -0.603   2.407  0.3095 -0.3837 -0.0939
   12CHTO   C64 4890   6.324  -0.539   2.370  0.3271 -0.0492  0.3510
   12CHTO  H121 4891   6.327  -0.491   2.270  0.5080  0.0099  0.3832
   12CHTO   C71 4892   6.306  -0.408   2.466  0.1934  0.0158  0.7854
   12CHTO   O47 4893   6.429  -0.330   2.465 -0.3238  0.0896 -0.3664
   12CHTO  H104 4894   6.426  -0.288   2.381 -3.1960  0.5157 -0.1053
   12CHTO   O34 4895   6.624  -0.790   2.438  0.5087 -0.2306 -0.1935
   12CHTO   C49 4896   6.638  -0.750   2.604  0.3643 -1.2654  0.5331
   12CHTO   H91 4897   6.697  -0.659   2.615  0.3918 -0.9877 -1.5877
   12CHTO   C47 4898   6.731  -0.862   2.659 -0.2566  0.0575 -0.6958
   12CHTO   H89 4899   6.763  -0.826   2.759 -0.2999  0.1613 -0.7202
   12CHTO   O33 4900   6.848  -0.880   2.576 -0.5612 -0.4434 -0.3873
   12CHTO   H70 4901   6.830  -0.904   2.488  0.3765 -0.4632 -0.5805
   12CHTO   C45 4902   6.648  -1.005   2.676  0.5227 -1.3177 -0.0511
   12CHTO   H87 4903   6.637  -1.040   2.573  2.3850  1.0598 -1.1079
   12CHTO    N8 4904   6.737  -1.098   2.751 -0.5184  0.0795  0.4812
   12CHTO   H75 4905   6.749  -1.076   2.856 -0.6205 -2.0593  0.9758
   12CHTO   H76 4906   6.698  -1.198   2.739  3.1871 -1.3108 -0.8998
   12CHTO   C43 4907   6.496  -0.991   2.742  0.2045 -0.2970 -0.8059
   12CHTO   H85 4908   6.457  -1.086   2.705  4.4250 -3.8632  3.1253
   12CHTO   O29 4909   6.431  -0.870   2.704 -0.3360 -0.0917  0.3770
   12CHTO   C50 4910   6.505  -0.742   2.686  0.3081 -0.1930 -0.1057
   12CHTO   H92 4911   6.432  -0.676   2.635  0.1414 -0.5537 -0.3327
   12CHTO   C54 4912   6.523  -0.670   2.820 -0.0644 -0.6738  0.1887
   12CHTO   O36 4913   6.591  -0.549   2.799 -0.3675  0.3114 -0.1660
   12CHTO   H72 4914   6.681  -0.567   2.818 -0.5930  1.2284  1.9609
   12CHTO   O27 4915   6.491  -1.004   2.884 -0.1175 -0.4672 -0.3258
   12CHTO   C37 4916   6.400  -1.024   2.992 -0.0480 -0.4839 -0.5009
   12CHTO   H79 4917   6.455  -1.026   3.088  0.6747  0.1971 -0.8888
   12CHTO   C38 4918   6.291  -0.913   3.005  0.3988  0.5280 -0.4249
   12CHTO   H80 4919   6.249  -0.898   2.905 -0.3963 -2.7143 -0.6391
   12CHTO   O31 4920   6.368  -0.791   3.035  0.3127 -0.1495  0.0543
   12CHTO   H68 4921   6.342  -0.721   2.979 -0.6112 -0.4488  0.1090
   12CHTO   C39 4922   6.179  -0.946   3.112 -0.3595  0.3148  0.5023
   12CHTO   H81 4923   6.234  -0.953   3.206 -0.4125  1.4792  0.6246
   12CHTO    N7 4924   6.081  -0.832   3.130 -0.3373  0.3944 -0.2306
   12CHTO   H73 4925   6.100  -0.793   3.229 -0.5947 -1.6329  0.6401
   12CHTO   H74 4926   5.979  -0.865   3.138  0.0500 -0.6112  0.6678
   12CHTO   C40 4927   6.113  -1.081   3.075 -0.2706 -0.3280 -0.1869
   12CHTO   H82 4928   6.061  -1.070   2.980 -0.0286  1.8304 -0.0966
   12CHTO   O26 4929   6.216  -1.180   3.066 -0.6526  0.7569 -0.3297
   12CHTO   C41 4930   6.325  -1.155   2.972  0.0460 -0.2571 -0.1892
   12CHTO   H83 4931   6.283  -1.159   2.870 -1.0286 -0.4261  0.2466
   12CHTO   C52 4932   6.424  -1.274   2.993 -0.0211  1.0942  0.5347
   12CHTO   O35 4933   6.503  -1.257   3.109  0.7867 -0.1983  0.1237
   12CHTO   H71 4934   6.442  -1.239   3.179 -1.2555  1.0949 -1.9259
   12CHTO   O28 4935   6.018  -1.124   3.176  0.2844 -0.1304  0.0870
   12CHTO   C42 4936   5.882  -1.165   3.137 -0.1501  0.3793 -0.4481
   12CHTO   H84 4937   5.864  -1.249   3.204 -0.9482  0.0229 -1.1007
   12CHTO   C44 4938   5.864  -1.221   2.988 -0.2063  0.4805  0.1154
   12CHTO   H86 4939   5.870  -1.135   2.921 -2.4973 -0.0326 -0.7835
   12CHTO   O32 4940   5.968  -1.327   2.980  0.0355 -0.4189 -0.1663
   12CHTO   H69 4941   5.962  -1.370   2.897 -0.4266 -0.5722 -0.0521
   12CHTO   C48 4942   5.723  -1.282   2.961 -0.2226 -0.6709 -0.9263
   12CHTO   H90 4943   5.712  -1.377   3.014  0.4261  0.3377  1.0181
   12CHTO    N9 4944   5.702  -1.312   2.813 -0.0074 -0.0357 -0.4929
   12CHTO   H77 4945   5.634  -1.393   2.794 -0.8232  0.8313 -1.3399
   12CHTO   H78 4946   5.789  -1.309   2.749 -0.2981 -0.8403 -0.9249
   12CHTO   C51 4947   5.611  -1.186   3.016 -0.5051  0.3575 -0.4625
   12CHTO   H93 4948   5.594  -1.105   2.946 -2.8285 -0.2741 -0.6781
   12CHTO   O30 4949   5.641  -1.139   3.149 -0.1722  0.5250 -0.6563
   12CHTO   C46 4950   5.772  -1.057   3.160 -0.9461 -0.2012 -0.5226
   12CHTO   H88 4951   5.776  -0.990   3.074 -0.0668  0.2326 -0.1510
   12CHTO   C53 4952   5.778  -0.984   3.293  0.0135  0.3984  0.0031
   12CHTO   O72 4953   5.663  -0.906   3.314 -0.2951  0.6059 -0.4375
   12CHTO  H199 4954   5.637  -0.863   3.235  2.4923  1.7565 -0.7876
   12CHTO   O22 4955   5.489  -1.257   3.032  0.3493  0.9219 -0.0654
   12CHTO   C31 4956   5.354  -1.198   3.031 -0.1890 -0.0529  0.0552
   12CHTO   H59 4957   5.281  -1.279   3.052  0.0656 -0.2280  0.2652
   12CHTO   C29 4958   5.330  -1.099   3.143  0.6424 -0.7522  0.2384
   12CHTO   H57 4959   5.407  -1.021   3.138 -0.7778  0.7482  1.2439
   12CHTO   O21 4960   5.355  -1.153   3.271 -0.2449 -0.2288 -0.5514
   12CHTO   H37 4961   5.443  -1.181   3.286  0.3714  0.5385 -2.6306
   12CHTO   C27 4962   5.181  -1.029   3.149 -0.2687 -0.8210  0.7351
   12CHTO   H55 4963   5.109  -1.111   3.168 -0.1368 -1.2197 -0.4214
   12CHTO    N5 4964   5.160  -0.916   3.242  0.1304  0.4084 -0.8894
   12CHTO   H43 4965   5.218  -0.948   3.327 -2.5065  1.7445  1.5133
   12CHTO   H44 4966   5.221  -0.835   3.205  0.2328  0.5966 -0.3190
   12CHTO   C25 4967   5.141  -0.981   3.002  0.2735  0.3934  0.3647
   12CHTO   H53 4968   5.198  -0.892   2.972 -0.2856  0.9068  0.8065
   12CHTO   O17 4969   5.170  -1.079   2.901 -0.1934 -0.2980  0.0432
   12CHTO   C32 4970   5.300  -1.141   2.896 -1.2285  0.2457  0.0583
   12CHTO   H60 4971   5.366  -1.062   2.860  1.5275 -2.3328 -0.7929
   12CHTO   C36 4972   5.312  -1.240   2.785  0.1258 -0.1875 -0.0314
   12CHTO   O25 4973   5.281  -1.191   2.654 -0.4082 -0.4006 -0.6065
   12CHTO   H40 4974   5.193  -1.161   2.666 -0.1502  0.2680 -0.3714
   12CHTO   O15 4975   4.989  -0.942   2.983 -0.6425 -0.1418  1.0158
   12CHTO   C19 4976   4.881  -0.988   2.896  0.1372  0.1987 -0.1740
   12CHTO   H47 4977   4.790  -0.956   2.950 -0.3542  0.4042 -1.1060
   12CHTO   C20 4978   4.904  -0.907   2.762  0.0921  0.6077  0.1906
   12CHTO   H48 4979   5.003  -0.922   2.718  0.5835  1.5746  0.9256
   12CHTO   O19 4980   4.894  -0.763   2.794  0.0110  0.0339  0.4814
   12CHTO   H35 4981   4.947  -0.741   2.869 -1.7486 -1.7201  2.3042
   12CHTO   C21 4982   4.804  -0.946   2.652  0.1635 -0.7665 -0.4194
   12CHTO   H49 4983   4.708  -0.908   2.686  1.5005  1.0075  1.5123
   12CHTO    N4 4984   4.836  -0.892   2.520  0.0380 -0.5283 -0.1295
   12CHTO   H41 4985   4.912  -0.950   2.471 -0.8759 -0.3972 -1.7454
   12CHTO   H42 4986   4.867  -0.789   2.536 -4.1956  0.9353 -0.7800
   12CHTO   C22 4987   4.776  -1.101   2.647  0.2057  0.4605 -0.6838
   12CHTO   H50 4988   4.857  -1.154   2.597 -2.3237 -3.1541 -1.1346
   12CHTO   O14 4989   4.756  -1.165   2.779  0.3210 -0.2801 -0.1806
   12CHTO   C23 4990   4.862  -1.144   2.868 -0.5959  0.1676 -0.0494
   12CHTO   H51 4991   4.950  -1.188   2.820 -0.1371  1.0316 -0.0144
   12CHTO   C34 4992   4.825  -1.230   2.994  0.4994 -0.1354 -0.0491
   12CHTO   O23 4993   4.936  -1.239   3.089  0.7244  0.1860  0.2359
   12CHTO   H38 4994   4.974  -1.155   3.107 -0.0620  0.4907  0.5302
   12CHTO   O16 4995   4.654  -1.129   2.582  0.2564 -0.5993  0.0691
   12CHTO   C24 4996   4.657  -1.263   2.499 -0.0750 -0.4369 -0.4074
   12CHTO   H52 4997   4.739  -1.329   2.528  0.7983  1.9318  2.8055
   12CHTO   C26 4998   4.654  -1.226   2.349  0.1132 -0.4923 -0.2005
   12CHTO   H54 4999   4.572  -1.155   2.325  0.4780  0.1945  0.5433
   12CHTO   O20 5000   4.772  -1.147   2.325 -0.6321 -0.3726  0.6756
   12CHTO   H36 5001   4.759  -1.056   2.342 -0.5272  0.4148 -3.1621
   12CHTO   C30 5002   4.637  -1.355   2.259  0.9373 -0.8747 -0.7468
   12CHTO   H58 5003   4.731  -1.412   2.267  1.8715  0.9556  1.8809
   12CHTO    N6 5004   4.630  -1.321   2.116 -0.1237 -0.0103 -0.3489
   12CHTO   H45 5005   4.527  -1.306   2.088 -0.2286 -0.0182  0.0321
   12CHTO   H46 5006   4.683  -1.232   2.083  1.0640 -1.6382 -3.0454
   12CHTO   C33 5007   4.510  -1.430   2.311 -0.7790  0.4038  0.5210
   12CHTO   H61 5008   4.426  -1.369   2.276 -0.4583  1.5865  1.7277
   12CHTO   O18 5009   4.505  -1.446   2.456 -0.3521 -0.5884 -0.0833
   12CHTO   C28 5010   4.526  -1.340   2.545  0.0414 -0.0122  0.4426
   12CHTO   H56 5011   4.441  -1.272   2.536  0.6843  0.5742 -1.4039
   12CHTO   C35 5012   4.534  -1.392   2.689  0.1350  0.0404 -0.0875
   12CHTO   O24 5013   4.421  -1.462   2.742  0.2226  0.1128 -0.1571
   12CHTO   H39 5014   4.353  -1.404   2.771 -0.3830  0.0908 -1.4779
   12CHTO    O9 5015   4.490  -1.550   2.241 -0.5106  0.1242 -0.3525
   12CHTO   C13 5016   4.576  -1.693   2.276 -0.8019 -0.1882 -0.2715
   12CHTO   H26 5017   4.684  -1.667   2.275 -1.3187  2.0213 -1.0054
   12CHTO   C11 5018   4.538  -1.798   2.158 -0.0678  0.2407 -0.1423
   12CHTO   H24 5019   4.570  -1.768   2.057 -0.4408 -0.6803 -0.5452
   12CHTO    O8 5020   4.392  -1.821   2.144  0.2773  0.4922 -0.0608
   12CHTO    H3 5021   4.368  -1.885   2.081 -1.3943  2.9498 -2.0157
   12CHTO    C9 5022   4.620  -1.926   2.194  0.2250 -0.0554  0.2596
   12CHTO   H22 5023   4.724  -1.890   2.195 -0.0103  0.6789 -0.3724
   12CHTO    N2 5024   4.625  -2.035   2.092 -0.2220 -0.7647  0.3024
   12CHTO   H10 5025   4.530  -2.045   2.041 -0.1519  1.6402 -0.3838
   12CHTO   H11 5026   4.709  -2.014   2.028 -0.0733 -0.2878  0.6594
   12CHTO    C7 5027   4.578  -1.987   2.334  0.1088  0.1457 -0.4377
   12CHTO   H20 5028   4.654  -2.064   2.359  0.4815  1.1885  1.8017
   12CHTO    O4 5029   4.590  -1.890   2.443 -0.1173  0.2666 -0.3574
   12CHTO   C14 5030   4.545  -1.753   2.420 -0.6095  0.0557 -0.3255
   12CHTO   H27 5031   4.598  -1.697   2.501 -1.5601 -0.5775  0.7485
   12CHTO   C18 5032   4.393  -1.746   2.456  0.0403 -0.1894 -0.3018
   12CHTO   O13 5033   4.365  -1.761   2.600  0.4659 -0.4049 -0.0132
   12CHTO    H7 5034   4.373  -1.854   2.616  0.8114 -0.2821  0.5570
   12CHTO    O2 5035   4.413  -2.055   2.333 -0.3525  0.0076  0.5478
   12CHTO    C1 5036   4.401  -2.188   2.378 -0.1259 -0.3748 -0.2010
   12CHTO   H14 5037   4.495  -2.241   2.351 -1.0744 -2.3228  0.2572
   12CHTO    C2 5038   4.277  -2.255   2.293  0.1294 -0.7155  0.3721
   12CHTO   H15 5039   4.193  -2.184   2.293 -0.4600 -1.3981  1.3883
   12CHTO    O6 5040   4.327  -2.267   2.152 -0.1318  0.0516  0.2136
   12CHTO    H1 5041   4.310  -2.355   2.122  1.2457 -0.2293  0.2275
   12CHTO    C3 5042   4.237  -2.400   2.359 -0.2021  0.1887 -0.2573
   12CHTO   H16 5043   4.311  -2.476   2.328  0.3714  1.0550 -1.0620
   12CHTO    N1 5044   4.110  -2.450   2.307 -0.3405  0.0477 -0.5128
   12CHTO    H8 5045   4.130  -2.505   2.216  1.2771  2.0635 -1.4295
   12CHTO    H9 5046   4.056  -2.359   2.286 -2.0118 -1.2220 -1.7594
   12CHTO    C4 5047   4.241  -2.399   2.515 -0.2404 -0.2545  0.0998
   12CHTO   H17 5048   4.155  -2.344   2.552 -1.0999 -0.8892 -0.9016
   12CHTO    O1 5049   4.370  -2.350   2.552  0.3450 -0.1882  0.2349
   12CHTO    C5 5050   4.371  -2.209   2.528 -0.4479  0.2303  0.9031
   12CHTO   H18 5051   4.273  -2.162   2.544  0.0227  2.0050 -1.1965
   12CHTO   C16 5052   4.477  -2.143   2.624 -0.0598  0.4336 -0.5203
   12CHTO   O11 5053   4.437  -2.172   2.763 -0.2195 -0.4501 -0.7472
   12CHTO    H5 5054   4.512  -2.199   2.812 -0.0076 -0.7322 -1.2233
   12CHTO    O3 5055   4.230  -2.530   2.566  0.2392  0.4805 -0.3519
   12CHTO    C6 5056   4.213  -2.548   2.713 -0.2123 -0.4933 -0.1210
   12CHTO   H19 5057   4.274  -2.474   2.765  1.5021 -1.7462 -0.2865
   12CHTO    C8 5058   4.062  -2.554   2.751  0.2902 -0.1990  0.4029
   12CHTO   H21 5059   4.021  -2.637   2.693 -0.3281 -0.7036  1.5550
   12CHTO    O7 5060   4.002  -2.432   2.711  0.5199 -0.5038  0.0230
   12CHTO    H2 5061   3.911  -2.422   2.730  0.7215 -0.6595  1.0832
   12CHTO   C12 5062   4.042  -2.580   2.908  0.1740 -0.4154  0.2281
   12CHTO   H25 5063   4.083  -2.489   2.956  1.7109 -1.3792  0.7659
   12CHTO    N3 5064   3.898  -2.596   2.953 -0.1103  0.1120  0.0642
   12CHTO   H12 5065   3.888  -2.697   2.989 -0.1832  0.5818  1.3935
   12CHTO   H13 5066   3.842  -2.575   2.863 -1.0688 -2.2228  0.0854
   12CHTO   C15 5067   4.135  -2.699   2.958  0.1554  0.5718  0.7216
   12CHTO   H28 5068   4.098  -2.800   2.944  2.3972 -0.1124 -0.4292
   12CHTO   O10 5069   4.152  -2.681   3.123  0.2590 -0.7912  0.4136
   12CHTO    H4 5070   4.069  -2.654   3.159 -0.0004 -2.0655  0.8027
   12CHTO    O5 5071   4.264  -2.701   2.896 -0.2051 -0.0603 -0.1023
   12CHTO   C10 5072   4.273  -2.684   2.759 -0.4897 -0.0956  0.0937
   12CHTO   H23 5073   4.223  -2.766   2.706  2.0919 -1.6470 -0.0304
   12CHTO   C17 5074   4.425  -2.693   2.731 -0.5561  0.2740  0.1373
   12CHTO   O12 5075   4.483  -2.576   2.794 -0.1640  0.0420 -0.3374
   12CHTO    H6 5076   4.532  -2.604   2.869  1.3367  3.1202 -0.1171
   13CHTO  H203 5077   8.005   4.154   1.638  1.2296 -0.3954  0.8415
   13CHTO   O82 5078   8.062   4.161   1.564  0.4358 -0.2574  0.2322
   13CHTO  C123 5079   8.010   4.265   1.474 -0.3345 -0.5165 -0.3481
   13CHTO  H227 5080   8.021   4.229   1.371 -0.8154 -0.1236 -0.5329
   13CHTO   O77 5081   7.866   4.283   1.504  1.1395 -0.2794  0.1022
   13CHTO  C118 5082   7.798   4.381   1.421 -0.8342 -0.3009  0.8963
   13CHTO  H222 5083   7.807   4.347   1.317 -0.6299  0.5302  0.6356
   13CHTO  C125 5084   7.647   4.394   1.457 -0.6584 -0.3527  0.3119
   13CHTO   O84 5085   7.625   4.433   1.589 -0.4153 -0.7008  0.0732
   13CHTO  H205 5086   7.626   4.367   1.656 -0.3789  1.2677  2.0679
   13CHTO  C114 5087   7.866   4.519   1.426 -0.0948  0.0613 -0.6465
   13CHTO  H218 5088   7.845   4.563   1.524  0.1408  0.0287 -0.5818
   13CHTO  C116 5089   8.021   4.507   1.396  0.5021  0.7876 -0.0739
   13CHTO  H220 5090   8.025   4.471   1.291  1.0343 -0.8015  0.4818
   13CHTO   O79 5091   8.078   4.637   1.404  0.2556 -0.1838 -0.0238
   13CHTO  H201 5092   8.115   4.649   1.489 -2.0165 -1.2555  1.1466
   13CHTO  C120 5093   8.086   4.400   1.491 -0.4330  0.6286 -0.3458
   13CHTO  H224 5094   8.076   4.435   1.596  0.0141  1.0798 -0.4518
   13CHTO   N21 5095   8.233   4.382   1.472  1.2309 -0.0054 -0.6396
   13CHTO  H211 5096   8.251   4.310   1.394  1.2787  0.1460 -0.7688
   13CHTO  H212 5097   8.290   4.473   1.466  2.3767 -0.7097 -0.5200
   13CHTO   O75 5098   7.803   4.601   1.323 -0.2367 -0.6509 -0.4962
   13CHTO  C112 5099   7.753   4.733   1.359  0.1296  0.1047 -0.0290
   13CHTO  H216 5100   7.832   4.777   1.421  2.0912 -0.4466 -2.0488
   13CHTO   O73 5101   7.627   4.715   1.430 -0.0242 -0.3313  0.1810
   13CHTO  C113 5102   7.567   4.832   1.482  0.6097  0.7759 -0.0203
   13CHTO  H217 5103   7.646   4.875   1.546  0.2816  0.3854  0.6597
   13CHTO  C124 5104   7.447   4.789   1.568 -0.4627  0.2349 -0.2449
   13CHTO   O83 5105   7.408   4.895   1.655  0.1951 -0.3028 -0.3795
   13CHTO  H204 5106   7.314   4.900   1.656  0.2578  0.9326  1.7403
   13CHTO  C109 5107   7.529   4.923   1.361  0.2345 -0.0297  0.0936
   13CHTO  H213 5108   7.461   4.864   1.297  0.2621  1.4923 -1.3687
   13CHTO  C110 5109   7.659   4.960   1.283  0.5083 -0.0288 -0.7358
   13CHTO  H214 5110   7.716   5.026   1.348 -0.4625 -0.7185  0.8367
   13CHTO   O78 5111   7.618   5.049   1.168  0.2776 -0.1187 -0.3028
   13CHTO  H200 5112   7.576   5.005   1.097 -0.9856  1.8776 -0.8295
   13CHTO  C111 5113   7.737   4.830   1.237  0.3123 -0.6718  0.2823
   13CHTO  H215 5114   7.669   4.782   1.165 -2.3654  0.4495  1.9844
   13CHTO   N19 5115   7.854   4.868   1.156 -0.1533 -0.4465 -0.6871
   13CHTO  H207 5116   7.898   4.774   1.124 -0.6044 -0.6868 -0.6055
   13CHTO  H208 5117   7.909   4.952   1.194 -0.3123 -0.1769 -1.0571
   13CHTO   O74 5118   7.459   5.047   1.404  1.0150  0.2245 -1.2162
   13CHTO  C115 5119   7.334   5.098   1.323 -0.3525 -0.3235  0.1792
   13CHTO  H219 5120   7.361   5.183   1.261  0.4442 -1.0086 -0.4174
   13CHTO   O76 5121   7.269   4.982   1.226  0.4348 -0.3169  0.1584
   13CHTO  C122 5122   7.182   4.892   1.295 -0.5681  1.0173  0.5005
   13CHTO  H226 5123   7.242   4.810   1.334 -2.4294 -0.9265 -0.5575
   13CHTO  C126 5124   7.104   4.831   1.173  0.0079 -0.4530 -0.5908
   13CHTO   O85 5125   7.025   4.910   1.080 -0.1332  0.2747 -0.2190
   13CHTO  H206 5126   6.956   4.951   1.128  0.0463 -0.5609  0.7770
   13CHTO  C121 5127   7.077   4.948   1.402  0.1530  0.5953 -0.0714
   13CHTO  H225 5128   6.975   4.920   1.368  1.9301 -3.5309 -2.3792
   13CHTO   O81 5129   7.091   4.889   1.530  0.3759 -0.0465 -0.4072
   13CHTO  H202 5130   7.113   4.798   1.525  3.2141  0.6703 -2.2828
   13CHTO  C119 5131   7.093   5.103   1.419 -0.0296 -0.0975  0.2315
   13CHTO  H223 5132   7.056   5.141   1.324  0.4254 -0.9060 -0.2759
   13CHTO  C117 5133   7.240   5.147   1.444 -0.4508  0.2952 -0.3566
   13CHTO  H221 5134   7.286   5.110   1.537  0.2412  0.6945 -0.5374
   13CHTO   N20 5135   7.251   5.295   1.454  0.3142 -0.1727 -0.4298
   13CHTO  H209 5136   7.194   5.322   1.541  0.9177 -0.3840  0.0380
   13CHTO  H210 5137   7.207   5.344   1.368 -2.7805 -0.1971  1.0746
   13CHTO   O80 5138   6.976   5.164   1.525  0.4226  0.0645  0.0220
   13CHTO  C103 5139   6.831   5.219   1.480 -0.0591  0.4737  0.1072
   13CHTO  H190 5140   6.795   5.284   1.560  1.6058  2.1259 -0.4318
   13CHTO  C101 5141   6.829   5.299   1.342 -0.1930 -0.3074  0.6851
   13CHTO  H188 5142   6.863   5.243   1.255 -0.4285  2.0025 -0.9492
   13CHTO   O68 5143   6.926   5.414   1.353  0.3248  1.1439 -0.0463
   13CHTO  H168 5144   6.973   5.422   1.272 -0.4529  1.8501 -0.4389
   13CHTO   C99 5145   6.679   5.337   1.303  0.3072  0.4363 -0.2290
   13CHTO  H186 5146   6.634   5.406   1.377  0.3272 -0.3731  0.5489
   13CHTO   N17 5147   6.663   5.392   1.167 -0.3149 -0.1160 -0.9155
   13CHTO  H174 5148   6.732   5.473   1.148  0.6531 -0.6194  0.3864
   13CHTO  H175 5149   6.563   5.428   1.144 -0.5797 -1.3910 -1.8397
   13CHTO   C97 5150   6.585   5.212   1.313  0.0305 -0.3224  0.4882
   13CHTO  H184 5151   6.606   5.145   1.227  1.1349  1.1401 -0.3962
   13CHTO   O64 5152   6.602   5.145   1.436 -0.0463  0.3412  0.2912
   13CHTO  C104 5153   6.735   5.104   1.466  0.0852  0.2928 -0.4528
   13CHTO  H191 5154   6.772   5.026   1.399 -0.1021 -0.1017 -0.1026
   13CHTO  C108 5155   6.718   5.034   1.603 -0.1572 -0.8052 -1.1477
   13CHTO   O71 5156   6.617   4.932   1.590 -0.5198 -0.0736 -0.0137
   13CHTO  H171 5157   6.542   4.969   1.548  0.5067  2.2096  0.0985
   13CHTO   O62 5158   6.444   5.244   1.319  0.1041 -0.5018 -0.3483
   13CHTO   C91 5159   6.346   5.137   1.296  0.2475 -0.6068  0.0565
   13CHTO  H178 5160   6.401   5.043   1.291 -2.0949 -1.9290 -1.8462
   13CHTO   C92 5161   6.293   5.145   1.152  0.0322 -0.1960 -0.4455
   13CHTO  H179 5162   6.254   5.247   1.135  1.5978  0.6660  1.0349
   13CHTO   O66 5163   6.409   5.127   1.065 -0.0638 -0.1077  0.0950
   13CHTO  H166 5164   6.434   5.208   1.026  2.9725 -0.4655  1.1958
   13CHTO   C93 5165   6.183   5.035   1.125  0.6270 -0.1048 -1.1052
   13CHTO  H180 5166   6.233   4.941   1.151  0.5391 -0.1508 -1.0998
   13CHTO   N16 5167   6.128   5.036   0.988  0.5425  0.5042  0.4431
   13CHTO  H172 5168   6.209   5.029   0.916 -3.2204 -1.3739 -3.8553
   13CHTO  H173 5169   6.057   4.955   0.975 -0.5692  1.1948  2.1613
   13CHTO   C94 5170   6.069   5.055   1.235  0.2186 -1.2929  0.8264
   13CHTO  H181 5171   6.024   5.153   1.221  3.0936 -0.1626 -0.7079
   13CHTO   O61 5172   6.129   5.031   1.363  0.1452  0.1898  0.0451
   13CHTO   C95 5173   6.232   5.127   1.397 -0.0560 -0.1031 -0.0802
   13CHTO  H182 5174   6.190   5.225   1.422  0.4843  0.2737 -0.6309
   13CHTO  C106 5175   6.299   5.074   1.530 -0.0733  0.4312 -0.6330
   13CHTO   O69 5176   6.372   5.160   1.609 -0.1518  0.7752  0.1773
   13CHTO  H169 5177   6.308   5.184   1.673  0.9766  1.3679  1.0940
   13CHTO   O63 5178   5.947   4.952   1.203  0.0242 -0.1646 -0.6406
   13CHTO   C96 5179   5.822   4.985   1.286  0.0390  0.7844 -0.3994
   13CHTO  H183 5180   5.737   4.934   1.241 -0.3154  1.6768 -0.7469
   13CHTO   C98 5181   5.778   5.130   1.302 -0.1641  0.1264  0.2418
   13CHTO  H185 5182   5.852   5.190   1.358  0.1675 -0.2290  0.1844
   13CHTO   O67 5183   5.758   5.197   1.175 -0.2079  0.1056  0.0607
   13CHTO  H167 5184   5.759   5.289   1.191 -1.0741  0.0754  0.3542
   13CHTO  C102 5185   5.638   5.131   1.388  0.0003 -0.1217  0.2515
   13CHTO  H189 5186   5.558   5.102   1.318 -1.3852  1.4601  1.1437
   13CHTO   N18 5187   5.590   5.262   1.438  0.0861  0.6071  0.3698
   13CHTO  H176 5188   5.670   5.296   1.502 -0.7398 -1.0690  2.3204
   13CHTO  H177 5189   5.500   5.249   1.496 -0.3439  0.7172 -0.2721
   13CHTO  C105 5190   5.647   5.028   1.507  0.4490  0.4676  0.0409
   13CHTO  H192 5191   5.704   5.072   1.589  1.6965 -0.3271 -0.3985
   13CHTO   O65 5192   5.706   4.899   1.486  0.2747  0.4034 -0.3186
   13CHTO  C100 5193   5.838   4.917   1.430 -0.6129  0.5098  0.6568
   13CHTO  H187 5194   5.882   4.996   1.493 -0.4040  1.5210 -0.7393
   13CHTO  C107 5195   5.914   4.785   1.441 -0.5810  0.1563 -0.0410
   13CHTO   O70 5196   5.939   4.754   1.569 -0.5498  0.5573 -0.2932
   13CHTO  H170 5197   5.875   4.786   1.630 -1.2990 -0.2281 -0.6639
   13CHTO   O57 5198   5.493   4.998   1.563 -0.5920  0.5291 -0.1903
   13CHTO   C85 5199   5.386   4.953   1.476  0.1420  0.2520  0.5330
   13CHTO  H157 5200   5.442   4.912   1.390 -2.0908 -0.8326 -0.4529
   13CHTO   C83 5201   5.289   5.062   1.438 -0.2698  0.2662  0.4708
   13CHTO  H155 5202   5.341   5.146   1.392  1.5382 -1.6855 -1.1143
   13CHTO   O56 5203   5.231   5.113   1.554 -0.0992  0.2493 -0.3742
   13CHTO  H135 5204   5.294   5.147   1.614  0.9584  0.3518 -1.5339
   13CHTO   C81 5205   5.188   5.006   1.334 -1.1649  0.3251 -1.1690
   13CHTO  H153 5206   5.248   4.958   1.257  0.6470  1.3590 -0.4308
   13CHTO   N14 5207   5.100   5.107   1.269 -0.1994  0.0424 -0.2833
   13CHTO  H141 5208   5.110   5.095   1.164  1.3108 -0.6581 -0.0702
   13CHTO  H142 5209   5.142   5.203   1.293  1.2371 -0.1963 -1.7519
   13CHTO   C79 5210   5.103   4.889   1.408 -0.2384 -0.1741 -0.1855
   13CHTO  H151 5211   5.043   4.835   1.336  0.0899 -0.3331 -0.3426
   13CHTO   O52 5212   5.200   4.784   1.456  0.0692 -0.8093 -0.7615
   13CHTO   C86 5213   5.302   4.836   1.550  0.0148  0.7642  0.3624
   13CHTO  H158 5214   5.259   4.871   1.646 -0.0458  0.4454  0.4541
   13CHTO   C90 5215   5.397   4.723   1.579  0.5649 -0.6121  0.1516
   13CHTO   O60 5216   5.327   4.618   1.655 -0.0634  0.2231  0.1924
   13CHTO  H138 5217   5.389   4.564   1.700  0.2697 -1.3354 -2.0376
   13CHTO   O50 5218   5.014   4.944   1.507  0.3176  0.3341 -0.2421
   13CHTO   C73 5219   4.879   4.913   1.548 -0.0766 -0.0300  0.3886
   13CHTO  H145 5220   4.829   4.855   1.469  1.3622  0.1162 -0.6592
   13CHTO   C74 5221   4.810   5.048   1.591  0.2860 -0.7320  0.0564
   13CHTO  H146 5222   4.805   5.123   1.511 -1.0619  1.4324  2.0999
   13CHTO   O54 5223   4.672   5.012   1.598 -0.2931  0.4512 -0.5207
   13CHTO  H133 5224   4.655   4.952   1.668  0.3917  0.0752 -0.6720
   13CHTO   C75 5225   4.871   5.109   1.723  0.1782  0.0074 -0.4791
   13CHTO  H147 5226   4.973   5.145   1.703  0.3438 -0.4425 -0.4456
   13CHTO   N13 5227   4.789   5.223   1.777 -0.6801 -0.2770 -0.1161
   13CHTO  H139 5228   4.715   5.196   1.851 -1.3188  0.8204 -0.3506
   13CHTO  H140 5229   4.865   5.278   1.832  0.5923 -1.9464 -0.1659
   13CHTO   C76 5230   4.882   4.999   1.837 -0.0378  0.0050 -0.0301
   13CHTO  H148 5231   4.779   4.971   1.860 -0.1121  0.0181 -0.3459
   13CHTO   O49 5232   4.946   4.880   1.786 -0.3782 -0.4588  0.3380
   13CHTO   C77 5233   4.875   4.821   1.673 -0.2162  0.1022  0.0465
   13CHTO  H149 5234   4.770   4.807   1.699 -0.3737 -0.0140 -0.6247
   13CHTO   C88 5235   4.943   4.686   1.640 -0.2273  0.3906 -0.1146
   13CHTO   O58 5236   4.862   4.631   1.551 -0.1249  0.0856 -0.6371
   13CHTO  H136 5237   4.792   4.588   1.596  0.3192  0.7386  0.6935
   13CHTO   O51 5238   4.957   5.070   1.975  1.0682  0.1477  0.2262
   13CHTO   C78 5239   5.133   5.070   1.999 -0.0015  0.2904 -0.0070
   13CHTO  H150 5240   5.156   5.109   2.100 -1.9612  1.2713  0.0945
   13CHTO   C80 5241   5.185   5.170   1.894 -0.0169 -0.1022  0.3849
   13CHTO  H152 5242   5.154   5.138   1.792 -1.3520 -0.9032  1.0343
   13CHTO   O55 5243   5.130   5.298   1.929  0.1938 -0.3868  0.0976
   13CHTO  H134 5244   5.046   5.310   1.890 -1.8350 -0.6558  4.1463
   13CHTO   C84 5245   5.346   5.175   1.898  0.5496  0.4122 -0.0963
   13CHTO  H156 5246   5.371   5.219   1.995 -2.4561  0.8657  0.5094
   13CHTO   N15 5247   5.395   5.263   1.785 -0.1306 -0.1037  0.0410
   13CHTO  H143 5248   5.345   5.357   1.786  1.7871  1.0163 -2.6894
   13CHTO  H144 5249   5.385   5.220   1.688  0.6842 -0.3174  0.0450
   13CHTO   C87 5250   5.408   5.033   1.884  0.4467  0.2597 -0.1311
   13CHTO  H159 5251   5.399   4.988   1.786 -1.3450 -1.1161  0.6442
   13CHTO   O53 5252   5.333   4.935   1.991  0.5013 -0.2002  0.0313
   13CHTO   C82 5253   5.191   4.933   1.976 -0.2787 -0.9499 -0.3409
   13CHTO  H154 5254   5.172   4.892   1.877  0.8650 -0.8186 -0.6214
   13CHTO   C89 5255   5.135   4.831   2.076 -0.2519 -0.1286  0.4363
   13CHTO   O59 5256   5.185   4.708   2.034 -0.0126 -0.5128  0.3732
   13CHTO  H137 5257   5.278   4.703   2.042  0.2200  0.0355 -1.6071
   13CHTO   O45 5258   5.564   5.041   1.916 -0.5255  0.1939  0.0321
   13CHTO   C67 5259   5.621   4.906   1.923  0.3040 -0.0373  0.3969
   13CHTO  H124 5260   5.554   4.826   1.892  0.6237  0.2643 -1.1191
   13CHTO   C65 5261   5.751   4.895   1.837  0.5096  0.5982 -0.2018
   13CHTO  H122 5262   5.715   4.929   1.740 -1.7126  0.8026  0.6668
   13CHTO   O44 5263   5.801   4.765   1.822  0.3150 -0.0198  0.2924
   13CHTO  H102 5264   5.892   4.769   1.799  0.8411 -1.3919  1.9749
   13CHTO   C63 5265   5.852   5.001   1.896 -0.4071  0.5858 -0.2020
   13CHTO  H120 5266   5.801   5.096   1.909 -0.4753  0.6136 -0.6706
   13CHTO   N11 5267   5.956   5.054   1.800  0.4927  0.5227  0.0198
   13CHTO  H108 5268   6.021   5.123   1.849  1.4491  2.1924 -3.4514
   13CHTO  H109 5269   6.012   4.969   1.766 -0.9640 -0.0397 -1.0434
   13CHTO   C61 5270   5.895   4.966   2.043 -0.1598 -0.4691 -0.0134
   13CHTO  H118 5271   5.943   5.056   2.082  0.6118 -1.7680  2.1585
   13CHTO   O40 5272   5.773   4.946   2.132 -0.3192  0.2281  0.3720
   13CHTO   C68 5273   5.653   4.878   2.085 -0.4456  0.1247  0.7113
   13CHTO  H125 5274   5.561   4.912   2.136 -2.0453  0.0367 -2.0602
   13CHTO   C72 5275   5.660   4.728   2.097  0.1722  0.2012 -0.5773
   13CHTO   O48 5276   5.539   4.664   2.054  0.0058 -0.4436 -0.1745
   13CHTO  H105 5277   5.503   4.633   2.135  0.2743 -3.4537 -1.1352
   13CHTO   O38 5278   5.977   4.848   2.057 -0.3924  0.4288 -0.3456
   13CHTO   C55 5279   6.081   4.857   2.156  0.0050  0.3237 -0.0237
   13CHTO  H112 5280   6.099   4.750   2.174 -0.3770  0.0172 -1.4097
   13CHTO   C56 5281   6.039   4.931   2.297 -0.1238 -0.4799  0.3015
   13CHTO  H113 5282   5.985   5.024   2.274  2.0290  0.3817 -1.5285
   13CHTO   O42 5283   5.947   4.848   2.370  0.6330 -0.5413 -0.5351
   13CHTO  H100 5284   5.856   4.868   2.360  0.8472  1.8725  1.7115
   13CHTO   C57 5285   6.166   4.960   2.381  0.5203  0.0579  0.1815
   13CHTO  H114 5286   6.205   4.878   2.441 -0.1410  0.1767  0.7749
   13CHTO   N10 5287   6.143   5.048   2.497  0.0653 -0.4295 -0.1785
   13CHTO  H106 5288   6.043   5.041   2.538 -0.6911  0.5755 -1.8126
   13CHTO  H107 5289   6.215   5.024   2.574  0.4495  1.2589  0.0126
   13CHTO   C58 5290   6.284   5.009   2.293 -0.1983  0.0518  0.3401
   13CHTO  H115 5291   6.256   5.106   2.246 -0.8971 -0.2573  0.1091
   13CHTO   O37 5292   6.315   4.914   2.190 -0.3694 -0.2573  0.1092
   13CHTO   C59 5293   6.214   4.903   2.095  0.6183 -0.0773 -0.1700
   13CHTO  H116 5294   6.201   4.999   2.045  3.2304  0.5895  0.3628
   13CHTO   C70 5295   6.267   4.806   1.986  0.0582  0.0564 -0.7300
   13CHTO   O46 5296   6.366   4.871   1.911  0.1614 -0.0811  0.5822
   13CHTO  H103 5297   6.410   4.812   1.852  1.6364  1.6691 -0.1086
   13CHTO   O39 5298   6.428   5.027   2.384  0.1892  0.8400  0.2941
   13CHTO   C60 5299   6.495   5.161   2.364  0.7625  0.3165 -0.1575
   13CHTO  H117 5300   6.461   5.196   2.266  1.0728  1.3638  0.1035
   13CHTO   C62 5301   6.456   5.271   2.467  0.2417  0.3813 -0.8534
   13CHTO  H119 5302   6.348   5.289   2.446  0.2200 -0.2156 -1.2863
   13CHTO   O43 5303   6.467   5.219   2.600 -0.3140  0.1945 -0.2708
   13CHTO  H101 5304   6.383   5.215   2.642 -0.7760 -0.3811 -1.2226
   13CHTO   C66 5305   6.537   5.408   2.451  0.0388 -0.0009  0.5288
   13CHTO  H123 5306   6.520   5.436   2.347  1.6616  1.2570  0.5777
   13CHTO   N12 5307   6.489   5.515   2.539  0.4518 -0.5968  0.2740
   13CHTO  H110 5308   6.386   5.536   2.514  0.8849  0.4162 -0.6966
   13CHTO  H111 5309   6.509   5.491   2.643 -2.0405  0.2731  0.9876
   13CHTO   C69 5310   6.684   5.372   2.444 -0.8216  0.3921  0.1306
   13CHTO  H126 5311   6.722   5.323   2.535  1.9875  2.5527  0.1822
   13CHTO   O41 5312   6.717   5.284   2.332 -0.0347  0.2896  0.3259
   13CHTO   C64 5313   6.651   5.142   2.352 -0.9798 -0.8042 -0.1657
   13CHTO  H121 5314   6.697   5.098   2.443  0.4260  1.3333  0.1769
   13CHTO   C71 5315   6.690   5.051   2.235 -0.2021 -0.2690 -0.0980
   13CHTO   O47 5316   6.829   5.033   2.229  0.1097  0.6038  0.0825
   13CHTO  H104 5317   6.863   5.031   2.142 -0.3031  3.0214 -0.1669
   13CHTO   O34 5318   6.769   5.514   2.427  0.2540 -0.1492  0.0682
   13CHTO   C49 5319   6.921   5.520   2.418  0.4498  0.4258  0.0413
   13CHTO   H91 5320   6.947   5.423   2.375  0.2456  0.8157 -0.9838
   13CHTO   C47 5321   6.972   5.533   2.563  0.4538  0.0873  0.2385
   13CHTO   H89 5322   7.082   5.530   2.549  0.5271 -0.4275  0.9019
   13CHTO   O33 5323   6.930   5.421   2.638 -0.0324 -0.1194 -0.4397
   13CHTO   H70 5324   6.839   5.403   2.626 -0.3014 -0.1581  1.5119
   13CHTO   C45 5325   6.929   5.674   2.633  0.4220 -0.1853  0.1474
   13CHTO   H87 5326   6.837   5.661   2.691 -0.1382 -1.4765 -1.0126
   13CHTO    N8 5327   7.031   5.722   2.729 -0.4825  0.1402 -0.5076
   13CHTO   H75 5328   6.987   5.712   2.827 -0.7674 -2.5626 -0.8714
   13CHTO   H76 5329   7.062   5.821   2.698 -1.8209  0.9861  0.7862
   13CHTO   C43 5330   6.895   5.780   2.514 -0.1062  0.0947  0.7109
   13CHTO   H85 5331   6.792   5.764   2.481  0.7250  0.1275 -2.0489
   13CHTO   O29 5332   6.982   5.768   2.403  0.7084 -1.1169  0.4423
   13CHTO   C50 5333   6.976   5.637   2.336 -0.7651  0.2723 -1.1215
   13CHTO   H92 5334   6.919   5.647   2.242  1.4004  1.6139 -2.3631
   13CHTO   C54 5335   7.119   5.617   2.271 -0.0322 -0.4600  0.1187
   13CHTO   O36 5336   7.154   5.709   2.171  0.0965  0.1199 -0.0333
   13CHTO   H72 5337   7.090   5.707   2.102  1.0965 -1.8460 -0.9516
   13CHTO   O27 5338   6.896   5.917   2.553  0.0832  0.1290  0.0229
   13CHTO   C37 5339   6.812   6.026   2.591  0.2350 -0.0121 -0.1364
   13CHTO   H79 5340   6.725   5.987   2.646  0.7334 -0.4942  0.3194
   13CHTO   C38 5341   6.886   6.113   2.697 -0.4880  0.4770 -0.5373
   13CHTO   H80 5342   6.985   6.145   2.659 -0.5366  2.2729  0.7844
   13CHTO   O31 5343   6.904   6.036   2.816  0.4163 -0.1439 -0.1440
   13CHTO   H68 5344   6.971   6.076   2.868 -0.3869 -0.2801  1.0035
   13CHTO   C39 5345   6.806   6.240   2.739  0.4095  0.8389 -0.1439
   13CHTO   H81 5346   6.710   6.219   2.788  0.3002  2.2101  0.2609
   13CHTO    N7 5347   6.883   6.340   2.814 -0.4057  0.3525 -0.5952
   13CHTO   H73 5348   6.958   6.385   2.750 -1.1264  0.9520 -1.0248
   13CHTO   H74 5349   6.808   6.413   2.841  0.0811  0.9765 -0.9109
   13CHTO   C40 5350   6.759   6.303   2.604  0.1632 -0.3608  0.0379
   13CHTO   H82 5351   6.837   6.358   2.552 -0.6969  0.9280  0.0768
   13CHTO   O26 5352   6.685   6.212   2.519  0.0648 -0.5959 -0.0242
   13CHTO   C41 5353   6.767   6.108   2.467 -0.3305 -0.1146  0.6211
   13CHTO   H83 5354   6.857   6.151   2.419  1.2136 -2.7527  1.0233
   13CHTO   C52 5355   6.690   6.035   2.357  0.1151  0.2091 -0.3686
   13CHTO   O35 5356   6.582   5.945   2.410 -0.3047 -0.3878 -0.3614
   13CHTO   H71 5357   6.613   5.869   2.456 -2.2287 -1.1370 -0.2530
   13CHTO   O28 5358   6.666   6.413   2.635  0.3527  0.1571  0.3536
   13CHTO   C42 5359   6.628   6.528   2.546  0.0644  0.2180  0.7886
   13CHTO   H84 5360   6.675   6.514   2.449  0.2704  3.6279  0.3124
   13CHTO   C44 5361   6.678   6.666   2.595  0.4475  0.1626 -0.5614
   13CHTO   H86 5362   6.635   6.689   2.693 -0.8004 -0.8300 -0.8636
   13CHTO   O32 5363   6.819   6.663   2.628  0.0295  0.1973  0.3551
   13CHTO   H69 5364   6.832   6.604   2.699  0.8645 -1.5621 -1.2046
   13CHTO   C48 5365   6.642   6.785   2.494  0.3311 -0.1362 -0.8116
   13CHTO   H90 5366   6.693   6.762   2.400 -1.4589 -0.9643 -1.6016
   13CHTO    N9 5367   6.698   6.918   2.534 -0.2474  0.0129  0.5113
   13CHTO   H77 5368   6.657   6.995   2.471 -2.4265 -0.1690  1.6379
   13CHTO   H78 5369   6.806   6.915   2.529 -0.2059  1.4163  0.5196
   13CHTO   C51 5370   6.484   6.793   2.477  0.5805  0.4189  0.5542
   13CHTO   H93 5371   6.443   6.815   2.576  0.4687 -0.4194  0.6998
   13CHTO   O30 5372   6.444   6.668   2.425  0.3927 -0.0227  0.1617
   13CHTO   C46 5373   6.477   6.544   2.519  0.6725 -0.2597  0.5345
   13CHTO   H88 5374   6.427   6.565   2.614 -0.6592  2.9033 -0.7666
   13CHTO   C53 5375   6.411   6.414   2.461  0.4102 -0.0760 -0.8827
   13CHTO   O72 5376   6.390   6.416   2.320  0.7527  0.5049 -0.0361
   13CHTO  H199 5377   6.302   6.444   2.302  0.5525  0.3686  0.7006
   13CHTO   O22 5378   6.444   6.898   2.384  0.2466 -0.1607 -0.3454
   13CHTO   C31 5379   6.306   6.945   2.382 -0.7340  0.5957 -0.3555
   13CHTO   H59 5380   6.305   7.040   2.324 -0.5640  2.1572  2.1277
   13CHTO   C29 5381   6.206   6.848   2.317  0.3061 -0.0628  0.1344
   13CHTO   H57 5382   6.222   6.746   2.355  0.1575  0.3684  1.3741
   13CHTO   O21 5383   6.239   6.832   2.180 -0.1160  0.2063  0.0064
   13CHTO   H37 5384   6.295   6.902   2.153 -1.4695  0.3290 -2.6037
   13CHTO   C27 5385   6.050   6.883   2.332  0.9208  0.1413  0.1217
   13CHTO   H55 5386   6.033   6.975   2.274  0.1931  0.0055  0.1141
   13CHTO    N5 5387   5.968   6.773   2.275  0.2940  0.0625  0.1133
   13CHTO   H43 5388   6.022   6.735   2.190 -2.4788 -0.7069 -1.3725
   13CHTO   H44 5389   5.874   6.812   2.238  0.1497 -0.3676  0.0296
   13CHTO   C25 5390   6.022   6.912   2.483 -0.0309 -0.0987  0.0901
   13CHTO   H53 5391   6.047   6.822   2.541  0.3863 -0.0345  0.0140
   13CHTO   O17 5392   6.101   7.021   2.523 -0.6663  0.0209 -0.4938
   13CHTO   C32 5393   6.243   6.994   2.526  0.3970 -0.2749  0.1865
   13CHTO   H60 5394   6.263   6.915   2.600  0.0037 -1.5007 -0.9936
   13CHTO   C36 5395   6.322   7.118   2.572 -0.4810  0.7520 -0.7208
   13CHTO   O25 5396   6.273   7.232   2.506 -0.2740  0.4818 -0.1653
   13CHTO   H40 5397   6.306   7.309   2.548  1.8300 -0.9370  0.8586
   13CHTO   O15 5398   5.865   6.952   2.517 -0.3141 -0.3754  0.1672
   13CHTO   C19 5399   5.768   7.055   2.495 -0.3253 -0.0925 -0.2103
   13CHTO   H47 5400   5.745   7.090   2.596 -1.2423 -0.4405 -0.2967
   13CHTO   C20 5401   5.817   7.170   2.396  0.3237  0.1316  0.4188
   13CHTO   H48 5402   5.853   7.124   2.302 -1.5429  0.2599 -0.3844
   13CHTO   O19 5403   5.924   7.229   2.473 -0.0429  0.0386 -0.2690
   13CHTO   H35 5404   5.998   7.233   2.416  0.3084 -1.5927  0.0354
   13CHTO   C21 5405   5.702   7.275   2.358  0.6914  0.5048  0.0680
   13CHTO   H49 5406   5.682   7.329   2.450 -0.0857  0.7603 -0.2462
   13CHTO    N4 5407   5.747   7.376   2.264  0.0869  0.0722  0.4100
   13CHTO   H41 5408   5.832   7.435   2.296  0.4897  0.1707 -0.8173
   13CHTO   H42 5409   5.664   7.440   2.240  0.9932  1.5103  1.0265
   13CHTO   C22 5410   5.575   7.194   2.302 -0.1129 -0.3141  0.0891
   13CHTO   H50 5411   5.600   7.157   2.203 -3.0124 -0.2109 -0.7345
   13CHTO   O14 5412   5.548   7.098   2.404  0.0198  0.0146  0.6132
   13CHTO   C23 5413   5.638   6.990   2.436  0.0794 -0.4344 -0.0308
   13CHTO   H51 5414   5.661   6.932   2.346  1.6791 -0.9538  0.6882
   13CHTO   C34 5415   5.568   6.899   2.534 -0.0570 -0.5214 -0.2766
   13CHTO   O23 5416   5.453   6.831   2.483 -0.6677  0.1515  0.4104
   13CHTO   H38 5417   5.391   6.798   2.545  0.4346 -1.9959  0.4242
   13CHTO   O16 5418   5.459   7.283   2.288 -0.0527  0.9382  0.3251
   13CHTO   C24 5419   5.305   7.197   2.276 -0.3916 -1.3797 -0.4301
   13CHTO   H52 5420   5.292   7.118   2.350  0.2924 -0.0827  1.1011
   13CHTO   C26 5421   5.281   7.137   2.135 -0.0366 -0.4587 -1.0001
   13CHTO   H54 5422   5.287   7.217   2.058 -2.1412 -0.2930 -1.0345
   13CHTO   O20 5423   5.387   7.042   2.117  0.1079  0.0531  0.2657
   13CHTO   H36 5424   5.352   6.963   2.080  0.1664  1.0978 -2.0789
   13CHTO   C30 5425   5.132   7.079   2.134  0.1881 -0.1099  0.1085
   13CHTO   H58 5426   5.136   6.996   2.206  0.2147  0.0879  0.3361
   13CHTO    N6 5427   5.100   7.027   1.994 -0.6675 -0.3735  0.3436
   13CHTO   H45 5428   5.095   7.118   1.936 -0.4015 -0.5568  0.0325
   13CHTO   H46 5429   5.184   6.967   1.963  0.3864  0.2605  1.8719
   13CHTO   C33 5430   5.032   7.176   2.196 -0.5219 -0.3809 -0.3501
   13CHTO   H61 5431   5.025   7.263   2.129  0.1687 -1.0573 -1.3045
   13CHTO   O18 5432   5.079   7.222   2.327  0.2038  0.4662  1.4056
   13CHTO   C28 5433   5.199   7.302   2.310  0.7165 -0.2441  0.4287
   13CHTO   H56 5434   5.192   7.372   2.227 -2.3614  0.6483  1.3669
   13CHTO   C35 5435   5.221   7.383   2.435 -0.4118 -0.5778  0.3407
   13CHTO   O24 5436   5.110   7.467   2.478  0.1792  0.0703 -0.1110
   13CHTO   H39 5437   5.127   7.555   2.452 -1.5846  0.4555 -0.0093
   13CHTO    O9 5438   4.900   7.127   2.207 -0.1310 -0.2812 -0.4205
   13CHTO   C13 5439   4.881   6.996   2.317  0.3274 -0.1300 -0.2330
   13CHTO   H26 5440   4.983   6.974   2.352  0.9099  0.9918 -1.1957
   13CHTO   C11 5441   4.819   6.873   2.231  0.0702 -0.5600 -0.3178
   13CHTO   H24 5442   4.894   6.840   2.157 -1.0017 -0.2414 -1.5556
   13CHTO    O8 5443   4.702   6.919   2.156 -0.8856  0.1587  0.0684
   13CHTO    H3 5444   4.705   6.866   2.078 -0.5673 -1.3182  1.0613
   13CHTO    C9 5445   4.783   6.748   2.327 -0.3287  0.7608  1.1490
   13CHTO   H22 5446   4.878   6.701   2.354 -0.5367 -0.7734 -0.6168
   13CHTO    N2 5447   4.712   6.635   2.267 -0.1756 -0.9786  0.4574
   13CHTO   H10 5448   4.616   6.678   2.244  1.4092  2.0036 -0.9100
   13CHTO   H11 5449   4.696   6.559   2.342 -2.6402  1.9845  3.0468
   13CHTO    C7 5450   4.724   6.798   2.466  0.6839 -0.2507  0.4641
   13CHTO   H20 5451   4.801   6.774   2.543  0.4703 -4.0763 -0.4283
   13CHTO    O4 5452   4.693   6.937   2.461 -0.0261  0.1054  0.2048
   13CHTO   C14 5453   4.795   7.033   2.450  0.6289  0.1465 -0.3529
   13CHTO   H27 5454   4.865   7.032   2.536  0.6276  1.7134 -0.3259
   13CHTO   C18 5455   4.724   7.170   2.456 -0.2323 -0.0735 -0.5903
   13CHTO   O13 5456   4.807   7.277   2.498 -0.6441  0.0407 -0.7866
   13CHTO    H7 5457   4.765   7.356   2.470 -1.3114 -0.4056 -1.0524
   13CHTO    O2 5458   4.585   6.721   2.539  0.6177  0.1124  0.4717
   13CHTO    C1 5459   4.577   6.731   2.683 -0.4379 -0.4978  0.7597
   13CHTO   H14 5460   4.643   6.813   2.718 -0.5830  0.4496 -1.1140
   13CHTO    C2 5461   4.619   6.601   2.754 -0.7293 -0.0761  0.5505
   13CHTO   H15 5462   4.537   6.532   2.727 -0.5830 -0.6477  1.5383
   13CHTO    O6 5463   4.740   6.554   2.706  0.0637 -0.0428 -0.0865
   13CHTO    H1 5464   4.782   6.487   2.757 -1.0729  0.1866  1.1749
   13CHTO    C3 5465   4.617   6.631   2.917  0.1529  0.8920 -0.3570
   13CHTO   H16 5466   4.701   6.701   2.928  1.1460 -0.2637 -0.4099
   13CHTO    N1 5467   4.641   6.512   3.001  0.1541 -0.3744  0.1154
   13CHTO    H8 5468   4.649   6.539   3.106  0.0567 -2.6714  0.7362
   13CHTO    H9 5469   4.735   6.469   2.972 -1.1577 -0.9849 -3.3750
   13CHTO    C4 5470   4.487   6.699   2.954  0.1551  0.2256  0.4217
   13CHTO   H17 5471   4.408   6.624   2.960 -0.4581  0.8056 -0.4297
   13CHTO    O1 5472   4.433   6.809   2.872  0.0496 -0.2067 -0.3218
   13CHTO    C5 5473   4.436   6.775   2.729 -0.9329 -0.4830  0.2674
   13CHTO   H18 5474   4.360   6.701   2.704 -0.8894 -0.8215  1.1138
   13CHTO   C16 5475   4.398   6.906   2.662  0.8930 -0.7051 -0.7838
   13CHTO   O11 5476   4.259   6.952   2.682  0.3714  0.0358  0.4730
   13CHTO    H5 5477   4.249   7.045   2.672  0.1540 -0.0579 -0.2345
   13CHTO    O3 5478   4.497   6.775   3.082  0.0927 -0.2597 -0.6532
   13CHTO    C6 5479   4.378   6.805   3.156 -0.5548  0.2341  0.2056
   13CHTO   H19 5480   4.290   6.799   3.092 -0.2163  1.6805 -0.4332
   13CHTO    C8 5481   4.370   6.708   3.277 -0.3154 -0.5601  0.5930
   13CHTO   H21 5482   4.467   6.718   3.327  1.3827 -1.4014 -2.3886
   13CHTO    O7 5483   4.363   6.575   3.229 -0.7416 -0.2169 -0.4887
   13CHTO    H2 5484   4.374   6.517   3.302  1.5341 -0.7278 -1.1898
   13CHTO   C12 5485   4.250   6.746   3.372 -0.5085  0.3116  0.4883
   13CHTO   H25 5486   4.151   6.705   3.341 -0.2183  0.9873 -1.4314
   13CHTO    N3 5487   4.277   6.678   3.503  0.5298  0.4555  0.5479
   13CHTO   H12 5488   4.188   6.666   3.562  0.3819  1.3946  0.5268
   13CHTO   H13 5489   4.352   6.729   3.562 -0.3285  3.0220 -0.4853
   13CHTO   C15 5490   4.231   6.906   3.396 -0.4702 -0.1125 -0.2015
   13CHTO   H28 5491   4.299   6.942   3.474 -0.7108  0.7453 -0.3841
   13CHTO   O10 5492   4.082   6.957   3.423 -0.2031  0.4341 -0.0821
   13CHTO    H4 5493   4.051   6.915   3.501 -1.8111 -1.5964 -1.7369
   13CHTO    O5 5494   4.244   6.974   3.278 -0.0006  0.4593 -0.2358
   13CHTO   C10 5495   4.373   6.952   3.210 -0.2957  0.8396 -0.3814
   13CHTO   H23 5496   4.457   6.967   3.278  0.1353 -1.9902 -0.2274
   13CHTO   C17 5497   4.395   7.060   3.099 -0.3311 -0.2503 -0.8986
   13CHTO   O12 5498   4.431   7.194   3.136  0.2502  0.0329  0.3715
   13CHTO    H6 5499   4.352   7.237   3.161  0.7062 -0.3783  2.5817
   14CHTO  H203 5500   6.859   4.358   2.239 -0.8188 -0.6111  0.8896
   14CHTO   O82 5501   6.846   4.324   2.152  0.2913  0.1111  0.4294
   14CHTO  C123 5502   6.773   4.418   2.072 -0.4118 -0.0712 -0.2211
   14CHTO  H227 5503   6.837   4.501   2.039 -1.9823  1.2934  0.1101
   14CHTO   O77 5504   6.743   4.339   1.953  0.6384  0.0082 -0.2479
   14CHTO  C118 5505   6.653   4.386   1.852  0.3181  0.3749 -0.0990
   14CHTO  H222 5506   6.697   4.473   1.802  0.9030  0.6443  0.8705
   14CHTO  C125 5507   6.648   4.260   1.758  0.0636 -0.4542  0.1747
   14CHTO   O84 5508   6.767   4.225   1.691 -0.0284 -0.1027 -0.5227
   14CHTO  H205 5509   6.750   4.172   1.616 -0.6658  0.4719 -0.7849
   14CHTO  C114 5510   6.520   4.425   1.921 -0.1380  0.1281  0.4675
   14CHTO  H218 5511   6.477   4.333   1.959  0.3473 -0.2191  0.1757
   14CHTO  C116 5512   6.537   4.516   2.045 -0.0470  0.0007 -0.2475
   14CHTO  H220 5513   6.565   4.619   2.016 -0.9517  0.2363 -0.2925
   14CHTO   O79 5514   6.404   4.530   2.103 -0.4011  0.1574  0.7363
   14CHTO  H201 5515   6.408   4.580   2.182  2.5589  0.9059  0.1890
   14CHTO  C120 5516   6.644   4.454   2.141 -0.2229  0.2404 -0.7450
   14CHTO  H224 5517   6.599   4.363   2.186  0.9642  0.5172  1.0721
   14CHTO   N21 5518   6.665   4.543   2.256 -0.4328  0.4394 -0.7606
   14CHTO  H211 5519   6.596   4.506   2.330  0.4170 -1.1940 -0.7595
   14CHTO  H212 5520   6.764   4.538   2.300 -0.6817  1.2611 -0.0899
   14CHTO   O75 5521   6.438   4.488   1.821  0.0720 -0.4437 -0.2793
   14CHTO  C112 5522   6.278   4.462   1.818  0.6085  0.1114  0.3912
   14CHTO  H216 5523   6.216   4.531   1.877  0.7063 -0.9024  1.6975
   14CHTO   O73 5524   6.255   4.325   1.852  0.3546  0.4038 -0.2776
   14CHTO  C113 5525   6.117   4.282   1.858  0.6181  0.0712 -0.4524
   14CHTO  H217 5526   6.057   4.344   1.928  1.6092 -0.0304  0.5044
   14CHTO  C124 5527   6.125   4.139   1.907 -0.4062 -0.1216  0.2941
   14CHTO   O83 5528   5.994   4.081   1.925 -0.2361  0.5452  0.0936
   14CHTO  H204 5529   5.973   4.027   1.851  1.2558  0.3980 -0.2485
   14CHTO  C109 5530   6.051   4.291   1.717 -0.0459  0.2163 -0.4281
   14CHTO  H213 5531   6.087   4.202   1.663 -0.6872 -0.4526  0.2373
   14CHTO  C110 5532   6.083   4.428   1.652 -0.0629  0.0172  0.5481
   14CHTO  H214 5533   6.012   4.499   1.693 -0.6970 -0.2016 -0.1492
   14CHTO   O78 5534   6.037   4.423   1.512  0.1833 -0.8170 -0.3159
   14CHTO  H200 5535   6.085   4.487   1.463 -0.0941 -2.4428 -2.7934
   14CHTO  C111 5536   6.228   4.477   1.671  0.2363  0.3271  0.1160
   14CHTO  H215 5537   6.292   4.414   1.607  0.1717  1.7528 -1.4011
   14CHTO   N19 5538   6.244   4.615   1.625  0.9224  0.2388  0.1459
   14CHTO  H207 5539   6.218   4.625   1.520  0.3782 -2.1427  0.0314
   14CHTO  H208 5540   6.205   4.688   1.694  1.3684  0.3792  0.2517
   14CHTO   O74 5541   5.907   4.278   1.728 -0.0269  0.1440  0.0238
   14CHTO  C115 5542   5.809   4.199   1.639 -0.0213 -0.2319 -0.1289
   14CHTO  H219 5543   5.795   4.243   1.540 -1.6100 -1.0671 -0.3017
   14CHTO   O76 5544   5.854   4.047   1.615 -0.1334  0.3361 -0.5918
   14CHTO  C122 5545   5.759   3.961   1.545 -0.2157 -0.0455 -0.4119
   14CHTO  H226 5546   5.788   3.856   1.556 -1.8590 -0.3657  1.2735
   14CHTO  C126 5547   5.760   3.993   1.392 -0.2647  0.2530  0.0902
   14CHTO   O85 5548   5.883   3.987   1.325 -0.0522  0.2276 -0.5461
   14CHTO  H206 5549   5.922   3.903   1.341 -0.8099  0.0580  0.4026
   14CHTO  C121 5550   5.617   3.978   1.600  0.1192 -0.1043 -0.5339
   14CHTO  H225 5551   5.556   3.913   1.534 -0.6894  0.0592  0.0468
   14CHTO   O81 5552   5.604   3.922   1.728  0.1586  0.1444 -0.1870
   14CHTO  H202 5553   5.519   3.895   1.755  0.2670  0.4241  0.4503
   14CHTO  C119 5554   5.564   4.126   1.610  0.4293  0.2694 -0.2983
   14CHTO  H223 5555   5.552   4.161   1.507  0.9980  1.0916 -0.0906
   14CHTO  C117 5556   5.669   4.205   1.703  0.3524 -0.6789  0.3691
   14CHTO  H221 5557   5.677   4.164   1.804 -0.4698  1.1127  1.1938
   14CHTO   N20 5558   5.614   4.346   1.724 -0.2808  0.6438  0.7933
   14CHTO  H209 5559   5.508   4.341   1.738 -0.4150 -1.1020 -0.6053
   14CHTO  H210 5560   5.663   4.389   1.810  1.5222 -1.6550  0.9933
   14CHTO   O80 5561   5.405   4.138   1.657  0.0623  0.4351  0.2581
   14CHTO  C103 5562   5.299   4.095   1.556  0.1488 -0.1893 -0.3253
   14CHTO  H190 5563   5.347   4.065   1.463 -0.0419  0.3503 -0.5944
   14CHTO  C101 5564   5.228   3.963   1.604  0.3976 -0.2359 -0.4275
   14CHTO  H188 5565   5.191   3.973   1.706 -0.1873  2.3538 -0.8474
   14CHTO   O68 5566   5.326   3.844   1.593  0.2585  0.0161  0.0548
   14CHTO  H168 5567   5.281   3.762   1.599 -0.7342  0.4679 -0.9162
   14CHTO   C99 5568   5.103   3.933   1.505 -0.6040 -0.4904 -0.0367
   14CHTO  H186 5569   5.142   3.910   1.404 -0.0093 -1.4314  0.3999
   14CHTO   N17 5570   5.004   3.823   1.546 -0.4049  0.3857 -0.4374
   14CHTO  H174 5571   4.919   3.824   1.479  0.6153  0.1673 -1.7520
   14CHTO  H175 5572   5.053   3.727   1.539  0.6176  0.8345  0.3589
   14CHTO   C97 5573   5.020   4.063   1.485 -0.7768 -0.3224  0.2286
   14CHTO  H184 5574   4.972   4.087   1.581 -1.4013  0.5882 -0.3023
   14CHTO   O64 5575   5.105   4.170   1.435 -0.6347  0.0699  0.1821
   14CHTO  C104 5576   5.202   4.216   1.529 -0.6779 -0.4993 -0.1058
   14CHTO  H191 5577   5.160   4.251   1.623 -1.7934 -1.4566 -0.2399
   14CHTO  C108 5578   5.278   4.343   1.476  0.6361 -0.5338  0.6048
   14CHTO   O71 5579   5.180   4.447   1.443  0.0238  0.7575  0.2563
   14CHTO  H171 5580   5.167   4.509   1.512  0.1977  1.8437 -0.6573
   14CHTO   O62 5581   4.923   4.051   1.381  0.0992 -0.8107  0.3728
   14CHTO   C91 5582   4.783   4.074   1.413  0.2098 -0.3527 -0.3365
   14CHTO  H178 5583   4.757   3.994   1.482 -0.5236  0.6412  0.5601
   14CHTO   C92 5584   4.694   4.041   1.292 -0.4205 -0.0333 -0.6077
   14CHTO  H179 5585   4.720   3.944   1.247  0.6944  0.2279 -0.5410
   14CHTO   O66 5586   4.559   4.020   1.345  0.2510 -0.3225 -0.2547
   14CHTO  H166 5587   4.518   4.104   1.352 -2.1234 -1.1487 -3.1207
   14CHTO   C93 5588   4.692   4.166   1.195 -0.0868  0.2999  0.7554
   14CHTO  H180 5589   4.607   4.155   1.126  1.1304 -1.5295 -0.4925
   14CHTO   N16 5590   4.812   4.177   1.103  0.5239 -0.6935 -0.4793
   14CHTO  H172 5591   4.835   4.083   1.056 -0.2621 -0.5232 -1.2130
   14CHTO  H173 5592   4.789   4.245   1.022 -0.1113  0.6083  0.7591
   14CHTO   C94 5593   4.681   4.308   1.273  0.4045  0.3383  0.6656
   14CHTO  H181 5594   4.777   4.358   1.285  1.6925 -1.2134 -2.5023
   14CHTO   O61 5595   4.642   4.291   1.408 -0.5686 -0.5650  0.4692
   14CHTO   C95 5596   4.740   4.216   1.478 -0.1391  0.1647 -0.3070
   14CHTO  H182 5597   4.830   4.274   1.491  1.1723 -1.5927 -1.3248
   14CHTO  C106 5598   4.676   4.202   1.618  0.3987 -0.1493 -0.8794
   14CHTO   O69 5599   4.687   4.334   1.683  0.3409 -0.1902 -0.2348
   14CHTO  H169 5600   4.647   4.401   1.630  1.4541  1.1650  0.6074
   14CHTO   O63 5601   4.579   4.409   1.198 -0.2680 -0.0069  0.0834
   14CHTO   C96 5602   4.591   4.573   1.275 -0.7241 -0.5097  0.1334
   14CHTO  H183 5603   4.680   4.578   1.336 -0.1199  0.7385 -0.8208
   14CHTO   C98 5604   4.474   4.615   1.359 -0.0446  0.2437 -0.0922
   14CHTO  H185 5605   4.381   4.624   1.301 -0.8537  1.9696  1.4101
   14CHTO   O67 5606   4.453   4.516   1.462  0.7402  0.7070 -0.0065
   14CHTO  H167 5607   4.409   4.554   1.535  0.2298  3.6641 -1.7335
   14CHTO  C102 5608   4.509   4.762   1.414 -0.7457 -0.6260  0.1247
   14CHTO  H189 5609   4.602   4.752   1.472 -0.3135 -0.6580 -0.5604
   14CHTO   N18 5610   4.402   4.817   1.506  0.1019 -0.4273 -0.6100
   14CHTO  H176 5611   4.447   4.862   1.594  1.7734  0.9898 -2.1441
   14CHTO  H177 5612   4.346   4.731   1.539  0.8309 -1.4349 -1.9649
   14CHTO  C105 5613   4.528   4.859   1.293 -0.5983  0.3494 -0.0193
   14CHTO  H192 5614   4.439   4.867   1.230 -0.0645 -0.0725 -0.8469
   14CHTO   O65 5615   4.636   4.807   1.216  0.0685 -0.2817  0.2666
   14CHTO  C100 5616   4.619   4.677   1.161 -0.0808 -0.8746 -0.3975
   14CHTO  H187 5617   4.534   4.673   1.093 -1.0066  1.1840  0.5969
   14CHTO  C107 5618   4.747   4.644   1.092  0.0443  0.1056 -0.1920
   14CHTO   O70 5619   4.768   4.730   0.979 -0.3211 -0.5566  0.4719
   14CHTO  H170 5620   4.711   4.705   0.909  0.9498  2.3532 -1.7262
   14CHTO   O57 5621   4.570   5.010   1.345  1.1001 -0.5454 -0.0787
   14CHTO   C85 5622   4.536   5.125   1.274 -0.0109 -0.0894 -0.3114
   14CHTO  H157 5623   4.445   5.086   1.225  0.5690 -0.8313 -0.8011
   14CHTO   C83 5624   4.641   5.162   1.163  0.5308 -0.2844  0.0234
   14CHTO  H155 5625   4.640   5.078   1.093  1.2153 -1.3630  1.2857
   14CHTO   O56 5626   4.772   5.176   1.231 -0.2984  0.8324  0.0636
   14CHTO  H135 5627   4.804   5.088   1.238 -0.8389  0.1227 -4.6822
   14CHTO   C81 5628   4.591   5.292   1.094 -0.3842  0.4627  0.3554
   14CHTO  H153 5629   4.495   5.271   1.047  0.3293  0.4302 -1.1285
   14CHTO   N14 5630   4.676   5.329   0.977  0.2390  0.5914 -0.5329
   14CHTO  H141 5631   4.756   5.389   1.015  1.0809 -0.2188 -1.0031
   14CHTO  H142 5632   4.625   5.387   0.902  0.4949  1.0596 -0.3460
   14CHTO   C79 5633   4.580   5.405   1.190  0.1183 -0.5588 -0.6587
   14CHTO  H151 5634   4.541   5.490   1.135  0.5123  0.5817  0.8068
   14CHTO   O52 5635   4.488   5.374   1.301 -0.9375  0.0033 -0.0969
   14CHTO   C86 5636   4.510   5.247   1.370  0.0173 -0.0246 -0.2995
   14CHTO  H158 5637   4.603   5.261   1.429  1.1320 -0.1141 -1.9888
   14CHTO   C90 5638   4.398   5.222   1.477  0.6639  0.0012  0.5967
   14CHTO   O60 5639   4.422   5.289   1.599  0.1835  0.5547  0.2001
   14CHTO  H138 5640   4.377   5.371   1.590 -0.8449 -0.0560 -0.3950
   14CHTO   O50 5641   4.695   5.460   1.259 -0.1795  0.3853  0.0722
   14CHTO   C73 5642   4.728   5.568   1.352 -0.5441 -0.0026 -0.1848
   14CHTO  H145 5643   4.654   5.558   1.433  0.3026  2.3102  0.9182
   14CHTO   C74 5644   4.703   5.708   1.278  0.6979 -0.0989  0.7526
   14CHTO  H146 5645   4.603   5.707   1.232  1.3861  1.1114 -0.8214
   14CHTO   O54 5646   4.720   5.806   1.383  0.5243  0.2454  0.1527
   14CHTO  H133 5647   4.672   5.789   1.462  0.5105  1.2658  0.3667
   14CHTO   C75 5648   4.813   5.731   1.170  0.5752  0.2618  0.2618
   14CHTO  H147 5649   4.798   5.661   1.087  0.3318  1.2465 -0.5346
   14CHTO   N13 5650   4.813   5.860   1.098  0.1674 -0.4305  0.2665
   14CHTO  H139 5651   4.805   5.841   0.992 -0.3732 -1.3880  0.4768
   14CHTO  H140 5652   4.740   5.931   1.134 -0.0096 -0.8587  0.7689
   14CHTO   C76 5653   4.961   5.709   1.222 -0.3544 -0.3082  0.1104
   14CHTO  H148 5654   4.998   5.797   1.276 -2.6171 -0.3648  1.8140
   14CHTO   O49 5655   4.971   5.582   1.299  0.3816 -0.0037  0.1540
   14CHTO   C77 5656   4.879   5.562   1.408  0.1323 -0.3016  0.5227
   14CHTO  H149 5657   4.889   5.639   1.485 -2.7720  0.8345 -0.2093
   14CHTO   C88 5658   4.898   5.428   1.477  0.0237 -0.5191  0.5082
   14CHTO   O58 5659   5.043   5.406   1.516 -0.9984  0.3914  0.1205
   14CHTO  H136 5660   5.085   5.394   1.433 -2.4362 -3.6754 -0.1271
   14CHTO   O51 5661   5.055   5.673   1.093 -0.2762 -0.1087  0.5389
   14CHTO   C78 5662   5.204   5.710   1.091  0.4769  0.2304  0.0787
   14CHTO  H150 5663   5.248   5.742   1.187  1.8056 -2.5557  0.4360
   14CHTO   C80 5664   5.212   5.828   0.985 -0.9750 -0.1588 -0.4188
   14CHTO  H152 5665   5.155   5.806   0.892 -0.7649  1.6480 -0.9889
   14CHTO   O55 5666   5.152   5.935   1.062  0.2699  0.0681  0.5232
   14CHTO  H134 5667   5.109   6.001   1.012 -2.5825 -1.2291  1.1513
   14CHTO   C84 5668   5.361   5.866   0.954  0.5797  0.2109 -0.2923
   14CHTO  H156 5669   5.398   5.910   1.047 -1.7329 -1.2984  1.4136
   14CHTO   N15 5670   5.377   5.965   0.850 -0.4306  0.2752  0.3688
   14CHTO  H143 5671   5.483   5.981   0.841 -0.4664  1.8569  2.5341
   14CHTO  H144 5672   5.331   6.056   0.883 -0.7592  0.2985 -0.1373
   14CHTO   C87 5673   5.444   5.739   0.924  0.7263 -0.0344  0.0036
   14CHTO  H159 5674   5.418   5.696   0.827  2.4190  0.3829 -0.6719
   14CHTO   O53 5675   5.429   5.638   1.030 -0.0900 -0.2338 -0.1285
   14CHTO   C82 5676   5.291   5.596   1.042 -0.3279 -0.0138  1.0803
   14CHTO  H154 5677   5.254   5.554   0.949  0.6626 -1.2158  1.2047
   14CHTO   C89 5678   5.290   5.482   1.146 -0.1411  0.1471 -0.1127
   14CHTO   O59 5679   5.396   5.380   1.134  0.2570  0.5799 -0.3440
   14CHTO  H137 5680   5.474   5.428   1.114 -0.1025  0.2923 -2.6242
   14CHTO   O45 5681   5.590   5.760   0.895  0.1924  0.2731 -0.3262
   14CHTO   C67 5682   5.650   5.653   0.825 -0.5255  0.6342  0.1550
   14CHTO  H124 5683   5.581   5.600   0.759 -0.3794  1.3375 -0.5764
   14CHTO   C65 5684   5.758   5.718   0.735  0.1056 -0.1071 -0.5359
   14CHTO  H122 5685   5.721   5.810   0.690  2.2284  1.3467  0.5999
   14CHTO   O44 5686   5.803   5.622   0.631  0.6969  0.4262  0.4622
   14CHTO  H102 5687   5.734   5.631   0.568 -0.9589  0.0673  2.1629
   14CHTO   C63 5688   5.875   5.771   0.824  0.5058  0.9404 -0.3741
   14CHTO  H120 5689   5.827   5.834   0.899  0.7054  0.9340 -0.2422
   14CHTO   N11 5690   5.971   5.864   0.760  0.0295  0.4927 -0.7112
   14CHTO  H108 5691   5.972   5.961   0.805  2.0868  0.5115 -0.7215
   14CHTO  H109 5692   5.963   5.863   0.653  0.4268 -1.4477 -0.7485
   14CHTO   C61 5693   5.936   5.659   0.913  0.4473 -0.9001  0.3834
   14CHTO  H118 5694   6.000   5.710   0.986  0.1370  1.2420 -0.8035
   14CHTO   O40 5695   5.833   5.594   0.987 -0.6598  0.4023 -0.0573
   14CHTO   C68 5696   5.711   5.547   0.921  0.0448 -0.2897 -0.2042
   14CHTO  H125 5697   5.629   5.538   0.996 -0.4756 -0.1611 -0.7533
   14CHTO   C72 5698   5.727   5.408   0.863 -0.2359  0.3692 -0.4055
   14CHTO   O48 5699   5.604   5.350   0.818 -0.1911  0.1767  0.0115
   14CHTO  H105 5700   5.625   5.261   0.797  0.1317  0.2894 -0.1503
   14CHTO   O38 5701   6.000   5.544   0.857 -0.1365 -0.2130  0.6837
   14CHTO   C55 5702   6.128   5.541   0.800  0.1684  0.1849  0.2682
   14CHTO  H112 5703   6.130   5.619   0.722  0.3249 -0.3078 -0.2216
   14CHTO   C56 5704   6.140   5.398   0.734  0.3533 -0.4211 -0.8595
   14CHTO  H113 5705   6.126   5.335   0.823  2.0652  2.7613  1.7563
   14CHTO   O42 5706   6.034   5.369   0.642 -0.2008 -0.9073  0.4386
   14CHTO  H100 5707   5.958   5.364   0.696 -1.7840  1.3121 -1.4602
   14CHTO   C57 5708   6.280   5.359   0.667 -0.5888 -0.3048  0.0359
   14CHTO  H114 5709   6.278   5.407   0.569 -0.1546  1.0920  0.6971
   14CHTO   N10 5710   6.303   5.217   0.649  0.2513 -0.2593 -0.1991
   14CHTO  H106 5711   6.294   5.160   0.740 -0.2777 -0.8760 -0.6316
   14CHTO  H107 5712   6.229   5.180   0.579  1.2831 -1.3658 -0.7061
   14CHTO   C58 5713   6.397   5.420   0.745 -0.3404  0.1271 -0.3980
   14CHTO  H115 5714   6.413   5.369   0.842  0.9943  0.8088 -0.2459
   14CHTO   O37 5715   6.368   5.556   0.781  0.0210  0.5802  0.6493
   14CHTO   C59 5716   6.263   5.571   0.873  0.7219 -0.2732  0.1995
   14CHTO  H116 5717   6.279   5.496   0.951  2.6480  1.4671  1.5046
   14CHTO   C70 5718   6.279   5.710   0.937  0.6644 -0.0349 -0.1040
   14CHTO   O46 5719   6.388   5.731   1.023  0.0683  0.3018  0.2534
   14CHTO  H103 5720   6.467   5.715   0.976 -1.1980 -1.4546 -1.3808
   14CHTO   O39 5721   6.522   5.433   0.662 -0.2257  0.1533 -0.1178
   14CHTO   C60 5722   6.652   5.431   0.723  0.2903 -0.4050 -0.2290
   14CHTO  H117 5723   6.638   5.469   0.824 -1.9888 -0.1907 -0.6053
   14CHTO   C62 5724   6.706   5.287   0.735  0.1298 -0.0560 -0.2657
   14CHTO  H119 5725   6.626   5.242   0.797  0.3365  0.1095  0.1256
   14CHTO   O43 5726   6.726   5.227   0.603 -0.5052 -0.6573 -0.5414
   14CHTO  H101 5727   6.752   5.137   0.610 -0.6240 -0.6718 -0.2742
   14CHTO   C66 5728   6.843   5.291   0.827  0.1376  0.0664  0.1185
   14CHTO  H123 5729   6.829   5.341   0.923  0.0038  0.2721 -0.0092
   14CHTO   N12 5730   6.890   5.155   0.867 -0.1705 -0.2397 -0.3226
   14CHTO  H110 5731   6.998   5.151   0.879  0.0018  1.5645 -1.1289
   14CHTO  H111 5732   6.835   5.116   0.951  1.1056  0.7406  0.9989
   14CHTO   C69 5733   6.953   5.369   0.741  0.5559  0.7296 -0.0960
   14CHTO  H126 5734   6.973   5.314   0.646  0.6730 -0.6176  0.6943
   14CHTO   O41 5735   6.906   5.519   0.719 -0.4004 -0.1965  0.5841
   14CHTO   C64 5736   6.754   5.527   0.649  0.1294  0.5537 -0.2277
   14CHTO  H121 5737   6.761   5.494   0.543 -1.3004 -0.9450  0.1208
   14CHTO   C71 5738   6.692   5.668   0.652 -0.5381 -0.1725  0.4917
   14CHTO   O47 5739   6.772   5.758   0.576 -0.2243 -0.8844 -0.1693
   14CHTO  H104 5740   6.807   5.828   0.626 -0.1245 -1.0325 -0.0298
   14CHTO   O34 5741   7.102   5.373   0.812  0.3773 -0.0020 -0.6298
   14CHTO   C49 5742   7.247   5.395   0.790 -0.0153  0.7985 -0.4009
   14CHTO   H91 5743   7.277   5.337   0.703  1.3386 -0.1009  0.6426
   14CHTO   C47 5744   7.320   5.358   0.922  0.2749 -0.0430 -0.1986
   14CHTO   H89 5745   7.426   5.374   0.892  1.1287 -2.4392  1.3697
   14CHTO   O33 5746   7.304   5.220   0.962 -0.6994  0.3480  0.5657
   14CHTO   H70 5747   7.365   5.201   1.030 -1.4708 -0.2785  1.0990
   14CHTO   C45 5748   7.273   5.463   1.045  0.1052 -0.3713 -0.2749
   14CHTO   H87 5749   7.193   5.412   1.100  0.1824 -1.4414 -1.1346
   14CHTO    N8 5750   7.393   5.463   1.123 -0.2214 -0.3267 -0.0472
   14CHTO   H75 5751   7.469   5.515   1.067  1.0264 -1.2832  0.7444
   14CHTO   H76 5752   7.375   5.483   1.228  2.6138 -0.7330  0.5512
   14CHTO   C43 5753   7.216   5.601   0.984 -0.2772  0.6652 -0.4697
   14CHTO   H85 5754   7.109   5.585   0.966 -0.7402  0.7075  2.1019
   14CHTO   O29 5755   7.295   5.636   0.866  0.2624  0.8608 -0.5600
   14CHTO   C50 5756   7.273   5.549   0.758 -0.0337  0.0705  0.3337
   14CHTO   H92 5757   7.191   5.583   0.693  0.1755  0.7309  0.4135
   14CHTO   C54 5758   7.382   5.580   0.648 -0.5526  0.1221  0.8111
   14CHTO   O36 5759   7.521   5.562   0.680  0.0508 -0.4784  0.0327
   14CHTO   H72 5760   7.560   5.644   0.658  0.4917 -0.4231  0.9841
   14CHTO   O27 5761   7.208   5.700   1.086  0.1110  0.1910  0.2517
   14CHTO   C37 5762   7.111   5.788   1.143  1.1418  0.2632  0.7034
   14CHTO   H79 5763   7.149   5.889   1.165 -1.0137  1.3468 -0.4190
   14CHTO   C38 5764   6.998   5.822   1.041 -0.0143  0.0984  0.7377
   14CHTO   H80 5765   6.973   5.726   0.994 -0.6035 -0.3022  1.8591
   14CHTO   O31 5766   7.051   5.913   0.941 -0.1035 -0.1622 -0.1022
   14CHTO   H68 5767   6.994   5.928   0.868  0.1036 -0.8903 -0.4199
   14CHTO   C39 5768   6.869   5.884   1.105  0.2814  0.1268  0.2204
   14CHTO   H81 5769   6.891   5.989   1.125  0.6510 -0.1087  1.0495
   14CHTO    N7 5770   6.756   5.872   1.008  0.8516  0.0235  0.0046
   14CHTO   H73 5771   6.667   5.901   1.061  2.1760  2.4611  0.9797
   14CHTO   H74 5772   6.778   5.940   0.927 -1.9097  2.1927  1.0252
   14CHTO   C40 5773   6.836   5.825   1.244  0.0046 -0.3649  0.0020
   14CHTO   H82 5774   6.782   5.731   1.235  0.1074 -0.5440  1.1226
   14CHTO   O26 5775   6.953   5.807   1.322  0.2819  1.0266 -0.2254
   14CHTO   C41 5776   7.053   5.721   1.270  0.5912 -0.2633 -0.3259
   14CHTO   H83 5777   7.005   5.625   1.246 -2.8988  1.5500 -0.8568
   14CHTO   C52 5778   7.150   5.693   1.384  0.4064 -0.1653  0.1745
   14CHTO   O35 5779   7.087   5.609   1.486 -0.5491 -0.1681 -0.4693
   14CHTO   H71 5780   7.048   5.658   1.556 -3.3259 -0.3524 -1.8381
   14CHTO   O28 5781   6.760   5.918   1.326  0.5509 -0.4810 -0.1111
   14CHTO   C42 5782   6.653   5.864   1.411 -0.0443 -0.0711 -0.3303
   14CHTO   H84 5783   6.637   5.932   1.494  0.0290  1.5608 -1.6371
   14CHTO   C44 5784   6.663   5.722   1.481  0.7426  0.3918 -0.3490
   14CHTO   H86 5785   6.681   5.650   1.401 -1.8509  0.2986 -0.9160
   14CHTO   O32 5786   6.780   5.726   1.564  0.2687  0.1193  0.4907
   14CHTO   H69 5787   6.763   5.774   1.643 -1.5128  1.1473 -0.4813
   14CHTO   C48 5788   6.530   5.671   1.556 -0.3445 -0.0969  0.1687
   14CHTO   H90 5789   6.517   5.740   1.640 -0.0051 -0.2780  0.3698
   14CHTO    N9 5790   6.546   5.531   1.607 -0.4861  0.1413 -0.3996
   14CHTO   H77 5791   6.503   5.527   1.706 -2.2264  1.4578 -1.0633
   14CHTO   H78 5792   6.649   5.500   1.607 -0.1640  1.1683 -2.1719
   14CHTO   C51 5793   6.412   5.684   1.462  0.3268 -0.3117  0.6820
   14CHTO   H93 5794   6.422   5.614   1.378 -1.9592  1.3048 -0.9902
   14CHTO   O30 5795   6.404   5.819   1.418  0.5870  0.1925  0.1155
   14CHTO   C46 5796   6.517   5.863   1.334  1.0185  0.1502 -0.5974
   14CHTO   H88 5797   6.527   5.792   1.253 -0.2427 -0.5856 -0.1103
   14CHTO   C53 5798   6.477   6.001   1.284  0.2162  0.6262  0.1921
   14CHTO   O72 5799   6.391   6.006   1.170  0.0919  0.2048 -0.1333
   14CHTO  H199 5800   6.302   5.990   1.196 -0.7604 -0.0894 -3.0349
   14CHTO   O22 5801   6.287   5.660   1.540 -0.0385 -0.6948 -0.0320
   14CHTO   C31 5802   6.161   5.610   1.487 -0.6237  0.4321 -0.3746
   14CHTO   H59 5803   6.191   5.537   1.409 -1.7113  0.5690 -0.9234
   14CHTO   C29 5804   6.081   5.536   1.604 -0.6536 -0.4031  0.2082
   14CHTO   H57 5805   6.063   5.603   1.689  1.2351 -0.4868  0.6946
   14CHTO   O21 5806   6.169   5.428   1.647 -0.2922  0.1178 -0.3934
   14CHTO   H37 5807   6.142   5.402   1.733  1.6452 -0.4987  0.0399
   14CHTO   C27 5808   5.938   5.488   1.557 -0.3686  0.3339  0.0504
   14CHTO   H55 5809   5.950   5.411   1.479  0.7708 -0.0732  0.6178
   14CHTO    N5 5810   5.864   5.427   1.675  0.4540  0.2862 -0.0607
   14CHTO   H43 5811   5.890   5.325   1.699  0.8613  0.3598 -0.1890
   14CHTO   H44 5812   5.759   5.423   1.652  0.4510  3.0139 -0.7635
   14CHTO   C25 5813   5.864   5.617   1.513  0.3541  0.1513  0.1499
   14CHTO   H53 5814   5.847   5.682   1.600 -2.5429 -0.0141 -0.2547
   14CHTO   O17 5815   5.937   5.681   1.412 -0.0385 -0.2643 -0.0729
   14CHTO   C32 5816   6.074   5.721   1.421 -0.1630  0.2270  0.5300
   14CHTO   H60 5817   6.079   5.810   1.482  1.6578  1.3646 -1.1869
   14CHTO   C36 5818   6.116   5.757   1.276 -0.1945  0.6048  0.5242
   14CHTO   O25 5819   6.062   5.875   1.222  0.0735  0.4306 -0.0322
   14CHTO   H40 5820   6.097   5.874   1.136  0.4961 -0.1975  0.1442
   14CHTO   O15 5821   5.730   5.590   1.448  0.3448  0.1010 -0.2287
   14CHTO   C19 5822   5.604   5.660   1.416  0.0668 -0.3766  0.1831
   14CHTO   H47 5823   5.557   5.587   1.348  0.9717 -2.0396  1.2834
   14CHTO   C20 5824   5.499   5.677   1.528 -0.2917 -0.6530  0.7266
   14CHTO   H48 5825   5.539   5.736   1.612  0.3107  0.9611 -0.6721
   14CHTO   O19 5826   5.469   5.551   1.582  0.3684  0.7087 -0.0430
   14CHTO   H35 5827   5.549   5.516   1.616 -0.1433 -0.5262 -0.1107
   14CHTO   C21 5828   5.365   5.743   1.481 -0.0188 -1.4499  0.6775
   14CHTO   H49 5829   5.317   5.677   1.409 -0.6216 -1.1176  0.7675
   14CHTO    N4 5830   5.263   5.769   1.590 -0.1588 -0.1636 -0.1959
   14CHTO   H41 5831   5.240   5.675   1.636  0.0004  0.1227  0.4655
   14CHTO   H42 5832   5.178   5.805   1.534  0.8195  1.1952 -0.8584
   14CHTO   C22 5833   5.406   5.879   1.405  0.5593  0.6575  0.3512
   14CHTO   H50 5834   5.446   5.946   1.481  0.2890 -0.8064  1.7798
   14CHTO   O14 5835   5.503   5.859   1.305  0.1367 -0.0907 -0.9169
   14CHTO   C23 5836   5.630   5.794   1.336 -0.6201  0.4299 -0.2317
   14CHTO   H51 5837   5.687   5.867   1.394  0.2974  0.8819 -1.6747
   14CHTO   C34 5838   5.715   5.773   1.207  0.3167 -0.0095  0.1180
   14CHTO   O23 5839   5.747   5.899   1.152 -0.0955  0.0049  0.5140
   14CHTO   H38 5840   5.746   5.898   1.059 -1.1523 -0.6403  0.5222
   14CHTO   O16 5841   5.294   5.946   1.345 -0.0946 -0.2407  0.8468
   14CHTO   C24 5842   5.286   6.106   1.308  1.0445  0.9388 -0.4916
   14CHTO   H52 5843   5.218   6.128   1.226  1.0068 -0.0589 -0.7336
   14CHTO   C26 5844   5.426   6.179   1.284 -0.2563 -0.2284  0.0880
   14CHTO   H54 5845   5.497   6.142   1.362  1.4498  1.0127 -0.8472
   14CHTO   O20 5846   5.486   6.118   1.163  0.0869  0.0774  0.9863
   14CHTO   H36 5847   5.546   6.177   1.121 -0.4035 -1.7051 -2.4050
   14CHTO   C30 5848   5.417   6.334   1.277 -0.4055 -0.2697  0.3456
   14CHTO   H58 5849   5.350   6.364   1.196 -1.1706 -2.2592  0.2258
   14CHTO    N6 5850   5.550   6.406   1.254  0.5315 -0.5885 -0.0102
   14CHTO   H45 5851   5.590   6.380   1.157  0.2218 -0.9328 -0.0454
   14CHTO   H46 5852   5.620   6.367   1.327 -0.8226 -1.3351  0.9023
   14CHTO   C33 5853   5.348   6.384   1.406 -0.3258 -0.4815 -0.4815
   14CHTO   H61 5854   5.409   6.371   1.497 -0.6515 -1.3929 -0.3885
   14CHTO   O18 5855   5.221   6.313   1.426 -0.3204  0.3936  0.6272
   14CHTO   C28 5856   5.232   6.169   1.435 -0.0847 -0.4549  0.0497
   14CHTO   H56 5857   5.293   6.146   1.522 -0.9039 -2.5927  0.0871
   14CHTO   C35 5858   5.093   6.106   1.469  1.0167  0.1558  0.2297
   14CHTO   O24 5859   5.020   6.185   1.567 -0.2773 -0.0217 -0.3014
   14CHTO   H39 5860   4.968   6.251   1.525  0.4091  0.0853 -0.9804
   14CHTO    O9 5861   5.326   6.525   1.396 -0.6223 -0.1322  0.3521
   14CHTO   C13 5862   5.298   6.599   1.517  0.1253 -0.6633  0.4796
   14CHTO   H26 5863   5.286   6.535   1.608 -2.8230  1.7057  1.8375
   14CHTO   C11 5864   5.172   6.686   1.498 -0.6136 -0.5675 -0.1466
   14CHTO   H24 5865   5.081   6.624   1.491  0.6488 -2.5399  0.4888
   14CHTO    O8 5866   5.172   6.751   1.377 -0.1585 -0.0356  0.1931
   14CHTO    H3 5867   5.178   6.684   1.312 -2.4613 -0.2113  0.1368
   14CHTO    C9 5868   5.157   6.775   1.628  0.1174  0.1110 -0.0668
   14CHTO   H22 5869   5.144   6.707   1.713  0.3122  0.3259  0.1341
   14CHTO    N2 5870   5.027   6.850   1.625  0.1646  0.0295 -0.0258
   14CHTO   H10 5871   4.936   6.799   1.598 -0.7637  0.4338  2.2080
   14CHTO   H11 5872   5.035   6.933   1.556  0.7898  0.0684  0.0883
   14CHTO    C7 5873   5.280   6.863   1.653 -0.4495  0.1016  0.4410
   14CHTO   H20 5874   5.271   6.893   1.759  2.0058 -1.1769  1.0684
   14CHTO    O4 5875   5.399   6.785   1.653 -0.1170 -0.3224 -0.6524
   14CHTO   C14 5876   5.425   6.690   1.542 -0.0911 -0.1162 -0.6751
   14CHTO   H27 5877   5.501   6.615   1.572 -0.3560 -0.7303 -1.5074
   14CHTO   C18 5878   5.489   6.760   1.417 -0.6678 -0.1284  0.2312
   14CHTO   O13 5879   5.631   6.782   1.444 -0.7884 -0.0313 -0.2911
   14CHTO    H7 5880   5.655   6.868   1.415 -2.7529  0.8403  0.5947
   14CHTO    O2 5881   5.304   6.978   1.545 -0.3220 -0.3040  0.2330
   14CHTO    C1 5882   5.358   7.104   1.595 -0.0605 -0.3223  0.0321
   14CHTO   H14 5883   5.391   7.166   1.509 -2.8728 -0.6078 -1.3292
   14CHTO    C2 5884   5.489   7.086   1.692  0.3251 -0.1055 -0.3777
   14CHTO   H15 5885   5.444   7.036   1.779  1.4603 -2.5723 -1.1618
   14CHTO    O6 5886   5.589   7.012   1.625  0.5684 -0.1766  0.1007
   14CHTO    H1 5887   5.548   6.948   1.570 -3.0683  1.5765  0.6294
   14CHTO    C3 5888   5.543   7.232   1.747  0.0873  0.3606 -0.2479
   14CHTO   H16 5889   5.590   7.289   1.665  0.1653  0.4770 -0.1211
   14CHTO    N1 5890   5.651   7.221   1.853  0.5730 -0.1039 -0.1300
   14CHTO    H8 5891   5.753   7.232   1.818  1.4157 -1.2351  1.8932
   14CHTO    H9 5892   5.633   7.130   1.908 -0.4611 -1.0443 -1.9746
   14CHTO    C4 5893   5.420   7.320   1.786  0.8427  0.4521  0.3927
   14CHTO   H17 5894   5.387   7.296   1.888  0.6730 -1.0822 -0.0000
   14CHTO    O1 5895   5.304   7.307   1.700 -0.1009 -0.3342 -0.3327
   14CHTO    C5 5896   5.255   7.177   1.677  0.1294 -0.2020  0.3456
   14CHTO   H18 5897   5.249   7.123   1.772 -1.7759  0.5088  0.6503
   14CHTO   C16 5898   5.117   7.197   1.624  0.5062 -0.1900  0.0931
   14CHTO   O11 5899   5.041   7.282   1.709 -0.1649 -0.7376  0.3319
   14CHTO    H5 5900   5.020   7.240   1.790  0.6967 -1.5626  0.1418
   14CHTO    O3 5901   5.465   7.455   1.765 -0.0835 -0.0002  0.3605
   14CHTO    C6 5902   5.402   7.557   1.846 -0.4515  0.4086 -0.7272
   14CHTO   H19 5903   5.303   7.531   1.884  0.4934 -3.5027 -0.7654
   14CHTO    C8 5904   5.497   7.602   1.965  0.1301  0.8741 -0.2889
   14CHTO   H21 5905   5.597   7.620   1.925  0.1520 -2.8507 -2.0775
   14CHTO    O7 5906   5.508   7.497   2.062 -0.2651 -0.6838 -0.0434
   14CHTO    H2 5907   5.508   7.412   2.023  1.0110 -0.6647 -0.0959
   14CHTO   C12 5908   5.450   7.741   2.032 -0.2483 -0.2422  0.2401
   14CHTO   H25 5909   5.359   7.711   2.088  0.0842 -0.2717  0.7716
   14CHTO    N3 5910   5.552   7.789   2.134  0.7039 -0.2980 -0.4670
   14CHTO   H12 5911   5.590   7.697   2.176  2.2763  1.1672  1.3775
   14CHTO   H13 5912   5.515   7.862   2.204 -0.8079 -1.6195  0.1316
   14CHTO   C15 5913   5.410   7.851   1.923  0.8235 -0.1508  0.0630
   14CHTO   H28 5914   5.497   7.892   1.871 -0.2782  3.3706  0.8641
   14CHTO   O10 5915   5.337   7.976   1.976  0.3001 -0.0804  0.2965
   14CHTO    H4 5916   5.377   7.992   2.060  0.9583 -0.1190 -0.0091
   14CHTO    O5 5917   5.322   7.786   1.832 -0.6610  0.5325 -0.0655
   14CHTO   C10 5918   5.381   7.678   1.752 -0.2007 -0.2656 -0.1297
   14CHTO   H23 5919   5.468   7.710   1.695  0.0939 -0.7682  0.0357
   14CHTO   C17 5920   5.278   7.641   1.644  0.3668  0.5495 -0.7103
   14CHTO   O12 5921   5.225   7.758   1.579  0.1181 -0.0002 -0.4832
   14CHTO    H6 5922   5.291   7.795   1.523  0.6615  0.5862  0.5253
   15CHTO  H203 5923   7.068   4.726   1.701 -1.6501  0.5732 -0.3793
   15CHTO   O82 5924   7.039   4.645   1.738 -0.6994  0.5653  0.3499
   15CHTO  C123 5925   6.997   4.544   1.642 -0.0689 -0.4655  0.0003
   15CHTO  H227 5926   6.979   4.447   1.692  1.1630  0.0201  1.4377
   15CHTO   O77 5927   6.866   4.603   1.609  0.0004  0.3405 -0.5858
   15CHTO  C118 5928   6.790   4.531   1.501 -0.0502 -0.0607 -0.3267
   15CHTO  H222 5929   6.773   4.428   1.537  2.8718 -0.3860  0.1880
   15CHTO  C125 5930   6.651   4.610   1.485 -0.0870 -0.3634 -0.1750
   15CHTO   O84 5931   6.572   4.615   1.603 -0.3630  0.3053  0.3161
   15CHTO  H205 5932   6.630   4.631   1.675 -0.4039 -1.0559  0.6636
   15CHTO  C114 5933   6.873   4.533   1.372 -0.2677  0.0132  0.3399
   15CHTO  H218 5934   6.897   4.637   1.351  0.8472  0.2262  2.4952
   15CHTO  C116 5935   7.011   4.461   1.392 -0.4005 -0.3797  0.1662
   15CHTO  H220 5936   6.992   4.358   1.428  0.8857 -0.4780  0.6078
   15CHTO   O79 5937   7.086   4.476   1.271  0.7805 -0.0047  0.6123
   15CHTO  H201 5938   7.126   4.559   1.257  3.8494 -1.4157  0.4944
   15CHTO  C120 5939   7.085   4.543   1.508  0.1813  0.1068  0.3581
   15CHTO  H224 5940   7.112   4.644   1.470 -3.1395  0.7859 -0.3232
   15CHTO   N21 5941   7.217   4.479   1.538 -0.0534  0.3861 -0.2362
   15CHTO  H211 5942   7.197   4.401   1.610 -2.3101  0.5135 -0.6579
   15CHTO  H212 5943   7.258   4.440   1.446  2.0202  0.5848  0.5795
   15CHTO   O75 5944   6.794   4.480   1.264 -0.0578 -0.2285 -0.0343
   15CHTO  C112 5945   6.758   4.317   1.266 -0.6819  0.3194  0.4361
   15CHTO  H216 5946   6.752   4.297   1.374 -0.0879 -0.8496  0.2519
   15CHTO   O73 5947   6.864   4.243   1.201  0.2401  0.6468  0.3141
   15CHTO  C113 5948   6.848   4.100   1.196 -0.3832 -0.7042  0.3163
   15CHTO  H217 5949   6.845   4.063   1.300 -0.2567  2.3407  1.4770
   15CHTO  C124 5950   6.975   4.032   1.132 -0.0959 -0.9055 -0.1917
   15CHTO   O83 5951   7.089   4.042   1.227 -0.1887 -0.6056  0.4067
   15CHTO  H204 5952   7.169   3.997   1.207  0.3118  1.0973 -1.5923
   15CHTO  C109 5953   6.713   4.064   1.125 -0.0149  0.4265  0.0044
   15CHTO  H213 5954   6.714   4.105   1.023 -1.4241 -0.5158 -0.4055
   15CHTO  C110 5955   6.597   4.136   1.195  0.2288  0.1122 -0.4173
   15CHTO  H214 5956   6.609   4.107   1.299  2.2669 -0.0289 -0.6715
   15CHTO   O78 5957   6.471   4.096   1.143  0.1377  0.4590 -0.1417
   15CHTO  H200 5958   6.462   4.005   1.164  1.3081  0.5476  0.8033
   15CHTO  C111 5959   6.618   4.292   1.191 -0.3034  1.0447 -0.0436
   15CHTO  H215 5960   6.629   4.327   1.087 -0.4425 -2.2977 -1.2337
   15CHTO   N19 5961   6.506   4.365   1.255  0.2055 -0.1155 -0.4284
   15CHTO  H207 5962   6.418   4.330   1.204  1.5695 -2.7892 -1.0406
   15CHTO  H208 5963   6.518   4.473   1.257  0.7566 -0.1813 -0.0816
   15CHTO   O74 5964   6.693   3.921   1.116 -0.8987 -0.0806 -0.1387
   15CHTO  C115 5965   6.629   3.888   0.972  0.7240 -0.2902 -0.4268
   15CHTO  H219 5966   6.566   3.969   0.935 -1.6788 -0.4844  3.0594
   15CHTO   O76 5967   6.744   3.867   0.862 -0.7733  0.0486  0.1598
   15CHTO  C122 5968   6.827   3.752   0.896  0.4901  0.3582 -0.5474
   15CHTO  H226 5969   6.885   3.778   0.985  1.7133 -0.9351 -0.9416
   15CHTO  C126 5970   6.934   3.736   0.779  0.0986  0.0725  0.2936
   15CHTO   O85 5971   7.033   3.630   0.793 -0.1966 -0.1461  0.3350
   15CHTO  H206 5972   7.111   3.667   0.830 -0.5937  1.2657 -0.2218
   15CHTO  C121 5973   6.751   3.616   0.909 -0.1548 -0.5800  0.5200
   15CHTO  H225 5974   6.786   3.552   0.826 -1.2234 -0.6350  0.1073
   15CHTO   O81 5975   6.786   3.543   1.031  0.4060 -0.1209  0.6646
   15CHTO  H202 5976   6.765   3.451   1.026 -1.1027  0.1368  1.7732
   15CHTO  C119 5977   6.596   3.633   0.902 -0.0969 -0.3852  0.2365
   15CHTO  H223 5978   6.582   3.660   0.798  1.8743  1.0765  0.3194
   15CHTO  C117 5979   6.544   3.754   0.991 -0.4761 -0.0417  0.3596
   15CHTO  H221 5980   6.553   3.739   1.098 -0.0510  0.9979  0.4792
   15CHTO   N20 5981   6.397   3.782   0.973 -0.2036 -0.1292 -0.0826
   15CHTO  H209 5982   6.346   3.713   1.039 -1.4630  0.2853 -0.6005
   15CHTO  H210 5983   6.374   3.802   0.869  2.2702 -2.1749 -1.0655
   15CHTO   O80 5984   6.525   3.492   0.911 -0.2647  0.1987 -0.2841
   15CHTO  C103 5985   6.459   3.424   0.781  0.0040 -0.2084 -0.1367
   15CHTO  H190 5986   6.397   3.343   0.818 -0.1747  0.7456  1.7123
   15CHTO  C101 5987   6.369   3.513   0.692  0.3700  0.3169 -0.2902
   15CHTO  H188 5988   6.431   3.586   0.640 -2.1526  0.7560 -2.7688
   15CHTO   O68 5989   6.269   3.581   0.781  0.0775  0.2062  0.1284
   15CHTO  H168 5990   6.239   3.515   0.840  1.2727 -2.8468 -2.4687
   15CHTO   C99 5991   6.299   3.412   0.585 -1.0062 -0.4037  0.1017
   15CHTO  H186 5992   6.231   3.339   0.632 -0.4566 -0.6251  0.5443
   15CHTO   N17 5993   6.218   3.494   0.489  0.0942 -0.5705  0.0232
   15CHTO  H174 5994   6.113   3.470   0.499  0.0703  0.0607  1.5652
   15CHTO  H175 5995   6.248   3.474   0.388  2.3561 -1.0255  0.7545
   15CHTO   C97 5996   6.410   3.331   0.508 -0.7721  0.3827  0.6558
   15CHTO  H184 5997   6.457   3.394   0.431  0.0806 -1.3007 -0.2494
   15CHTO   O64 5998   6.511   3.273   0.598  0.1299  0.4884 -0.2420
   15CHTO  C104 5999   6.573   3.358   0.698  0.4458 -0.3667  0.7087
   15CHTO  H191 6000   6.632   3.430   0.641 -0.4832 -2.4447 -3.0469
   15CHTO  C108 6001   6.673   3.284   0.786  0.1989 -0.0178 -0.6722
   15CHTO   O71 6002   6.777   3.244   0.698 -0.3996  0.0579 -0.6637
   15CHTO  H171 6003   6.845   3.207   0.751  0.0450  0.1157 -1.1897
   15CHTO   O62 6004   6.351   3.203   0.458 -0.3279 -0.0264 -0.1074
   15CHTO   C91 6005   6.405   3.159   0.330 -0.0766 -0.1747 -0.0327
   15CHTO  H178 6006   6.471   3.233   0.286  0.1198  0.4147  1.2176
   15CHTO   C92 6007   6.273   3.163   0.243  0.3416  0.2048  0.4123
   15CHTO  H179 6008   6.223   3.258   0.266  1.6812  0.7618  1.0679
   15CHTO   O66 6009   6.295   3.169   0.100  0.2359  0.5078  0.0314
   15CHTO  H166 6010   6.227   3.220   0.061  0.3426 -0.0295 -0.8771
   15CHTO   C93 6011   6.174   3.045   0.281  0.3729  0.0148  0.8373
   15CHTO  H180 6012   6.130   3.015   0.185  2.1152 -1.5714  0.4917
   15CHTO   N16 6013   6.057   3.084   0.366  0.1288  0.5211 -0.0376
   15CHTO  H172 6014   6.083   3.151   0.447  0.3574  1.1607 -0.6372
   15CHTO  H173 6015   5.981   3.135   0.309 -1.0288  0.1788  1.1500
   15CHTO   C94 6016   6.252   2.921   0.335  0.4523 -0.3476 -0.4833
   15CHTO  H181 6017   6.276   2.932   0.441  0.4096 -1.0036 -0.4022
   15CHTO   O61 6018   6.375   2.919   0.267  0.5037 -0.1836  0.2392
   15CHTO   C95 6019   6.471   3.015   0.318  0.6561 -0.1288 -0.4882
   15CHTO  H182 6020   6.504   2.986   0.418  1.7740  0.3993 -0.6967
   15CHTO  C106 6021   6.594   3.014   0.226  0.6123  0.4955  0.0593
   15CHTO   O69 6022   6.645   2.882   0.188  0.2978  0.0038 -0.0401
   15CHTO  H169 6023   6.715   2.898   0.128  1.2751  0.0711  1.1049
   15CHTO   O63 6024   6.182   2.791   0.306  0.1498  0.3517  0.2337
   15CHTO   C96 6025   6.226   2.660   0.390 -0.3344 -0.0225  0.2728
   15CHTO  H183 6026   6.258   2.693   0.488  1.8542  2.3242 -1.1661
   15CHTO   C98 6027   6.345   2.590   0.326  0.5031  0.1888 -0.8360
   15CHTO  H185 6028   6.338   2.598   0.216 -3.1794  0.1187 -0.6385
   15CHTO   O67 6029   6.465   2.661   0.362 -0.8019  0.0263  0.2976
   15CHTO  H167 6030   6.481   2.728   0.299  0.0640 -1.3022 -0.9437
   15CHTO  C102 6031   6.366   2.442   0.367  0.6780 -0.2178 -0.3849
   15CHTO  H189 6032   6.395   2.441   0.473 -0.2668  1.7565 -0.0852
   15CHTO   N18 6033   6.473   2.366   0.297 -0.8523  0.0461  0.1259
   15CHTO  H176 6034   6.554   2.375   0.367  0.8842 -0.4666 -1.7758
   15CHTO  H177 6035   6.505   2.415   0.206 -0.6378  2.7414  1.5736
   15CHTO  C105 6036   6.226   2.370   0.353 -0.2629 -0.1930 -0.2674
   15CHTO  H192 6037   6.187   2.383   0.252 -2.0707  2.2748  0.6843
   15CHTO   O65 6038   6.139   2.437   0.443 -0.3403 -0.5499 -0.0987
   15CHTO  C100 6039   6.101   2.573   0.412 -0.7896  0.3658 -0.0756
   15CHTO  H187 6040   6.040   2.553   0.323  1.8705 -0.6656 -1.7063
   15CHTO  C107 6041   6.003   2.636   0.517 -0.0228  0.2310 -0.2646
   15CHTO   O70 6042   5.970   2.770   0.485 -0.1228  0.3973  0.3277
   15CHTO  H170 6043   6.003   2.828   0.550  1.5460 -2.2822  1.9735
   15CHTO   O57 6044   6.233   2.208   0.387  0.0296 -0.3576 -0.0668
   15CHTO   C85 6045   6.217   2.159   0.524  0.0684 -0.4524  0.0305
   15CHTO  H157 6046   6.227   2.250   0.588 -1.1170  0.0240 -0.4426
   15CHTO   C83 6047   6.334   2.065   0.548 -0.0242  0.5218 -0.3715
   15CHTO  H155 6048   6.431   2.114   0.539  0.5681 -0.4974  0.4882
   15CHTO   O56 6049   6.345   1.970   0.444 -0.4627  0.1574  0.3200
   15CHTO  H135 6050   6.356   2.011   0.361  1.0192 -0.2736  0.2961
   15CHTO   C81 6051   6.329   2.003   0.689 -0.1082 -0.1619  0.0306
   15CHTO  H153 6052   6.324   2.087   0.759 -0.0560  1.0313 -1.3764
   15CHTO   N14 6053   6.453   1.924   0.726  0.3687 -0.5875 -0.1974
   15CHTO  H141 6054   6.445   1.878   0.823 -0.2295  0.3932  0.2282
   15CHTO  H142 6055   6.536   1.991   0.724 -1.0309  1.1831 -0.1509
   15CHTO   C79 6056   6.200   1.920   0.705  0.7320 -0.8243  0.7323
   15CHTO  H151 6057   6.198   1.877   0.805 -1.8389  1.5877  1.8171
   15CHTO   O52 6058   6.081   2.009   0.688 -0.0463  0.2257 -0.3469
   15CHTO   C86 6059   6.085   2.081   0.556  0.6053 -0.3244  0.5483
   15CHTO  H158 6060   6.077   1.998   0.482  0.8697  0.7413 -0.6782
   15CHTO   C90 6061   5.960   2.169   0.544 -0.2765  0.4055 -0.3089
   15CHTO   O60 6062   5.956   2.250   0.661 -0.3238 -0.4380 -0.2351
   15CHTO  H138 6063   5.871   2.289   0.657 -0.3030 -0.3498  0.1402
   15CHTO   O50 6064   6.187   1.813   0.610  0.2718  0.9562 -0.2199
   15CHTO   C73 6065   6.098   1.702   0.586  0.5623  0.0048  0.7003
   15CHTO  H145 6066   6.009   1.738   0.533  1.0453  2.0298  1.2161
   15CHTO   C74 6067   6.052   1.640   0.719  0.0695  0.5153  0.1530
   15CHTO  H146 6068   6.010   1.727   0.771  0.9448  0.6456  0.6536
   15CHTO   O54 6069   5.954   1.541   0.690 -0.4083 -0.5018 -0.2627
   15CHTO  H133 6070   5.869   1.573   0.666  0.4927  0.5367 -2.1737
   15CHTO   C75 6071   6.174   1.576   0.798 -0.9213  1.1241 -0.0962
   15CHTO  H147 6072   6.241   1.658   0.827  0.3537 -0.3577  1.2053
   15CHTO   N13 6073   6.138   1.506   0.926 -0.3113 -0.4204 -0.3585
   15CHTO  H139 6074   6.230   1.463   0.962 -0.5529 -0.3442  0.3605
   15CHTO  H140 6075   6.117   1.584   0.997 -1.6726 -0.8242 -0.2889
   15CHTO   C76 6076   6.264   1.481   0.701  0.4177 -0.3187  0.0390
   15CHTO  H148 6077   6.200   1.396   0.678 -1.6511  1.1520  0.2173
   15CHTO   O49 6078   6.292   1.553   0.578  0.1457  0.2909 -0.2678
   15CHTO   C77 6079   6.177   1.599   0.502 -0.2235  0.5971  0.7721
   15CHTO  H149 6080   6.104   1.527   0.465 -0.0421  0.4686  0.6665
   15CHTO   C88 6081   6.224   1.656   0.366 -0.1232  0.5237 -0.0145
   15CHTO   O58 6082   6.126   1.703   0.297  0.2290 -0.2051  0.2855
   15CHTO  H136 6083   6.150   1.780   0.249 -0.2138 -1.0973 -1.4195
   15CHTO   O51 6084   6.394   1.444   0.768  0.4175  0.2219 -0.2759
   15CHTO   C78 6085   6.465   1.342   0.690  0.1822  0.2587  0.4023
   15CHTO  H150 6086   6.442   1.332   0.582 -0.5067 -0.7677  0.6478
   15CHTO   C80 6087   6.449   1.200   0.753 -0.6595 -0.5239 -0.2516
   15CHTO  H152 6088   6.470   1.210   0.862 -3.0709  1.0792  0.1045
   15CHTO   O55 6089   6.311   1.158   0.742 -0.5002 -0.1652 -0.1326
   15CHTO  H134 6090   6.289   1.131   0.655 -0.8533 -0.6827  0.1166
   15CHTO   C84 6091   6.544   1.096   0.686 -0.0876  0.0603 -0.2910
   15CHTO  H156 6092   6.518   1.089   0.581  0.7844  0.3363 -0.5348
   15CHTO   N15 6093   6.542   0.948   0.737 -0.1955  0.1828  0.5440
   15CHTO  H143 6094   6.529   0.946   0.843 -0.2861  0.5309  0.5414
   15CHTO  H144 6095   6.468   0.883   0.694  0.0976  0.4113 -0.3255
   15CHTO   C87 6096   6.686   1.150   0.696  0.3143 -0.3669 -0.8079
   15CHTO  H159 6097   6.705   1.158   0.803 -0.2682 -1.4957 -0.6072
   15CHTO   O53 6098   6.690   1.289   0.631 -0.0606  0.2332 -0.6020
   15CHTO   C82 6099   6.611   1.378   0.698 -0.1122 -0.3307 -0.7443
   15CHTO  H154 6100   6.646   1.380   0.801 -3.0732 -0.3171  0.2889
   15CHTO   C89 6101   6.641   1.517   0.636 -0.5515  0.3935 -0.0144
   15CHTO   O59 6102   6.614   1.521   0.497 -0.2264  0.1375 -0.4962
   15CHTO  H137 6103   6.658   1.449   0.455  0.8071  0.4167  0.1068
   15CHTO   O45 6104   6.792   1.061   0.615 -0.0823 -0.1265  0.1402
   15CHTO   C67 6105   6.929   1.097   0.629 -0.7402  0.3238  0.6131
   15CHTO  H124 6106   6.923   1.198   0.670 -0.7219 -0.0566  1.5659
   15CHTO   C65 6107   7.003   0.998   0.720 -0.0126  0.0384  0.4037
   15CHTO  H122 6108   6.972   0.899   0.684  2.5776 -0.7283  0.1708
   15CHTO   O44 6109   6.950   1.037   0.853 -0.3080 -0.1486  0.1464
   15CHTO  H102 6110   6.942   0.963   0.910  2.0129 -0.0250  0.6894
   15CHTO   C63 6111   7.154   1.000   0.704 -0.4062 -0.0427  1.0203
   15CHTO  H120 6112   7.182   0.940   0.617 -2.1577  1.6703 -0.7621
   15CHTO   N11 6113   7.229   0.932   0.823 -0.2470 -0.7019 -0.2253
   15CHTO  H108 6114   7.284   1.014   0.864  1.2159 -0.4623 -2.5887
   15CHTO  H109 6115   7.160   0.889   0.893  0.9290  0.1538  1.4821
   15CHTO   C61 6116   7.204   1.135   0.652 -0.4653  0.2887 -0.6463
   15CHTO  H118 6117   7.311   1.125   0.630 -1.0381 -3.3689 -2.1635
   15CHTO   O40 6118   7.143   1.186   0.532 -0.2725  0.7779  0.6284
   15CHTO   C68 6119   7.015   1.115   0.494  0.0569  0.3457 -0.4991
   15CHTO  H125 6120   7.051   1.021   0.448 -1.3155 -0.6018  0.3515
   15CHTO   C72 6121   6.942   1.191   0.382 -0.4401 -0.3010 -0.4736
   15CHTO   O48 6122   6.830   1.123   0.325 -0.4447 -1.0062 -0.2074
   15CHTO  H105 6123   6.779   1.073   0.386 -1.7949  1.5180  0.8112
   15CHTO   O38 6124   7.184   1.235   0.750  0.0482 -0.6380 -0.1408
   15CHTO   C55 6125   7.254   1.359   0.735  0.7866 -0.9365  0.1054
   15CHTO  H112 6126   7.274   1.377   0.628  0.5849  0.8822  0.3606
   15CHTO   C56 6127   7.380   1.372   0.819  0.0554  0.3909  0.0183
   15CHTO  H113 6128   7.350   1.368   0.924  0.0337 -1.3799 -0.0430
   15CHTO   O42 6129   7.467   1.261   0.790 -0.7039  0.6666  0.5907
   15CHTO  H100 6130   7.553   1.274   0.823  0.3764 -0.6054 -1.5857
   15CHTO   C57 6131   7.443   1.515   0.798  0.0169 -0.3226  0.3516
   15CHTO  H114 6132   7.464   1.508   0.691  1.4819  0.5236  0.5558
   15CHTO   N10 6133   7.563   1.543   0.880 -0.6770 -0.0661  0.0286
   15CHTO  H106 6134   7.549   1.489   0.973 -1.1109 -0.6947 -0.3959
   15CHTO  H107 6135   7.640   1.493   0.824 -0.5866 -0.7485  0.7542
   15CHTO   C58 6136   7.336   1.628   0.823  0.8164 -0.0810  0.4442
   15CHTO  H115 6137   7.317   1.632   0.933  0.0240  0.0775  0.2990
   15CHTO   O37 6138   7.217   1.602   0.752  0.3211 -0.1532 -0.2067
   15CHTO   C59 6139   7.154   1.473   0.764  0.7889 -0.3890 -0.4345
   15CHTO  H116 6140   7.121   1.470   0.868 -0.6987  0.7650 -0.8431
   15CHTO   C70 6141   7.031   1.468   0.672  0.3497  0.6523  0.6489
   15CHTO   O46 6142   7.071   1.480   0.534 -0.4130 -0.0417 -0.2644
   15CHTO  H103 6143   6.999   1.462   0.477  0.5262  0.5590 -1.6608
   15CHTO   O39 6144   7.381   1.780   0.750 -0.0474 -0.1388 -0.2700
   15CHTO   C60 6145   7.351   1.801   0.613 -0.0189 -0.3120 -0.2461
   15CHTO  H117 6146   7.333   1.704   0.565 -1.2743  0.5061 -1.4702
   15CHTO   C62 6147   7.225   1.888   0.592  0.2206  0.1321  0.1807
   15CHTO  H119 6148   7.140   1.825   0.626  0.8957 -0.1866  1.3058
   15CHTO   O43 6149   7.237   2.019   0.657  0.0989 -0.7843 -0.1317
   15CHTO  H101 6150   7.286   2.006   0.736 -0.2451 -0.0176  0.2069
   15CHTO   C66 6151   7.192   1.901   0.433 -0.0381  0.7154 -0.3320
   15CHTO  H123 6152   7.196   1.804   0.383 -1.2154 -0.5021  1.8913
   15CHTO   N12 6153   7.060   1.966   0.406 -0.1986 -0.0960  0.4600
   15CHTO  H110 6154   6.989   1.896   0.363  0.1218 -0.3817  0.3896
   15CHTO  H111 6155   7.075   2.045   0.334 -0.9716 -0.6355 -0.3078
   15CHTO   C69 6156   7.311   1.975   0.361 -0.7537  0.6569 -0.1162
   15CHTO  H126 6157   7.316   2.071   0.416  0.5542  0.6865 -0.2809
   15CHTO   O41 6158   7.427   1.904   0.381 -0.0677  0.0474  0.1307
   15CHTO   C64 6159   7.464   1.867   0.532 -0.2483 -0.3334  0.0669
   15CHTO  H121 6160   7.495   1.961   0.581  1.1011 -1.0179  0.5564
   15CHTO   C71 6161   7.594   1.776   0.532 -0.3943  0.2550 -0.0831
   15CHTO   O47 6162   7.591   1.671   0.429  0.0086 -0.7486 -0.4574
   15CHTO  H104 6163   7.681   1.644   0.426  1.4576  3.7313 -1.3096
   15CHTO   O34 6164   7.282   1.987   0.198  0.2003  0.5452 -0.6953
   15CHTO   C49 6165   7.253   2.048   0.065 -0.4839 -0.2115 -0.2444
   15CHTO   H91 6166   7.249   1.970  -0.012 -0.2297 -0.0669 -0.4073
   15CHTO   C47 6167   7.360   2.151   0.024 -0.8814  0.1762  0.4808
   15CHTO   H89 6168   7.335   2.178  -0.081  0.4115 -1.2388 -0.2055
   15CHTO   O33 6169   7.486   2.084   0.020  0.3076 -0.1517 -0.2381
   15CHTO   H70 6170   7.510   2.059   0.108 -0.1658  0.0046 -0.0637
   15CHTO   C45 6171   7.357   2.287   0.116 -0.3607 -0.7070 -0.1742
   15CHTO   H87 6172   7.374   2.249   0.218 -0.0101  0.5384  0.2388
   15CHTO    N8 6173   7.466   2.384   0.089  0.5317  0.1982 -0.5004
   15CHTO   H75 6174   7.422   2.478   0.060 -2.7406 -1.5402 -1.3517
   15CHTO   H76 6175   7.502   2.416   0.186 -0.5593  1.7416 -0.5805
   15CHTO   C43 6176   7.209   2.342   0.105 -0.1987  0.4123 -0.0546
   15CHTO   H85 6177   7.190   2.417   0.181  1.7615  1.8478 -0.9331
   15CHTO   O29 6178   7.110   2.239   0.122 -0.0509 -0.4405 -0.6085
   15CHTO   C50 6179   7.119   2.113   0.050 -0.2235 -0.5405 -0.9180
   15CHTO   H92 6180   7.045   2.052   0.104  0.5127  0.2554  1.0695
   15CHTO   C54 6181   7.065   2.124  -0.088 -0.5584 -0.5324 -0.2527
   15CHTO   O36 6182   6.926   2.166  -0.090 -0.2721  0.4079  0.3945
   15CHTO   H72 6183   6.892   2.132  -0.171  2.2522  0.4854 -0.7593
   15CHTO   O27 6184   7.178   2.399  -0.025  0.0416  0.5619 -0.1662
   15CHTO   C37 6185   7.091   2.467  -0.118  0.5031  0.5535 -0.1679
   15CHTO   H79 6186   7.037   2.393  -0.179  1.7444 -0.6334  0.1662
   15CHTO   C38 6187   6.985   2.542  -0.030  0.6489 -0.0260 -0.0466
   15CHTO   H80 6188   7.036   2.601   0.048  0.9648  0.6642 -0.7689
   15CHTO   O31 6189   6.895   2.441   0.018 -0.0318  0.2447 -0.1671
   15CHTO   H68 6190   6.909   2.424   0.109 -0.9236  0.4471  0.0124
   15CHTO   C39 6191   6.911   2.645  -0.117  0.1041  0.5682 -0.4760
   15CHTO   H81 6192   6.827   2.592  -0.161  0.0068 -0.2304  0.6614
   15CHTO    N7 6193   6.828   2.743  -0.037 -0.4890 -0.7060  0.0234
   15CHTO   H73 6194   6.896   2.789   0.034 -1.5194 -0.3269  0.7621
   15CHTO   H74 6195   6.790   2.819  -0.102  0.2105 -3.0073 -3.2122
   15CHTO   C40 6196   6.990   2.731  -0.226  0.4832  0.1590 -0.6088
   15CHTO   H82 6197   7.036   2.822  -0.187  1.9981 -0.7570 -0.1770
   15CHTO   O26 6198   7.092   2.644  -0.287  0.2097 -0.2589 -0.1976
   15CHTO   C41 6199   7.175   2.559  -0.205 -0.4614 -1.0259 -0.0821
   15CHTO   H83 6200   7.232   2.635  -0.150  0.1487 -0.2795 -1.7249
   15CHTO   C52 6201   7.273   2.481  -0.295  0.6224 -0.5013  0.5095
   15CHTO   O35 6202   7.342   2.567  -0.382  0.3191  0.6081  0.3174
   15CHTO   H71 6203   7.425   2.526  -0.397  0.1788  0.0709  0.9962
   15CHTO   O28 6204   6.901   2.755  -0.339  0.6659  0.4160  0.0393
   15CHTO   C42 6205   6.898   2.875  -0.422 -0.1713 -0.8228  0.5440
   15CHTO   H84 6206   6.829   2.845  -0.502 -0.0288 -1.0909  0.5217
   15CHTO   C44 6207   7.034   2.915  -0.489  0.3452 -0.0928  0.2991
   15CHTO   H86 6208   7.108   2.928  -0.410 -0.5893  1.6416  0.9186
   15CHTO   O32 6209   7.081   2.804  -0.567 -0.0364 -0.3530 -0.1744
   15CHTO   H69 6210   7.018   2.789  -0.634 -1.0739 -2.3094  1.1782
   15CHTO   C48 6211   7.016   3.047  -0.577 -0.1995  0.0977  0.2946
   15CHTO   H90 6212   6.962   3.002  -0.661 -2.1677  0.5910  1.2660
   15CHTO    N9 6213   7.156   3.081  -0.631  0.0386  0.8910 -0.4269
   15CHTO   H77 6214   7.148   3.150  -0.714 -0.5410  1.7351  0.3181
   15CHTO   H78 6215   7.214   2.991  -0.647 -0.9157  0.6933 -3.0085
   15CHTO   C51 6216   6.960   3.175  -0.503  0.0612  0.2770  0.2553
   15CHTO   H93 6217   7.029   3.200  -0.422 -0.0946 -0.2086  0.5391
   15CHTO   O30 6218   6.836   3.129  -0.454  0.4987  0.0322  0.0662
   15CHTO   C46 6219   6.834   3.000  -0.356 -0.4445 -0.2904 -0.2120
   15CHTO   H88 6220   6.897   3.016  -0.269 -0.9117  0.0402  0.0624
   15CHTO   C53 6221   6.685   2.977  -0.314 -0.3601  0.6987 -0.0485
   15CHTO   O72 6222   6.602   2.953  -0.425  0.1879  0.4678  0.2718
   15CHTO  H199 6223   6.524   2.907  -0.403  1.2844 -1.9191 -0.5891
   15CHTO   O22 6224   6.938   3.291  -0.596  0.2226  0.0749  0.3371
   15CHTO   C31 6225   6.891   3.417  -0.539 -0.1297  0.7368 -0.1038
   15CHTO   H59 6226   6.895   3.484  -0.627 -0.3712 -0.9317 -1.4146
   15CHTO   C29 6227   6.741   3.410  -0.497  0.3361 -0.0378  0.7568
   15CHTO   H57 6228   6.737   3.325  -0.428  0.8677  0.8778  1.9159
   15CHTO   O21 6229   6.657   3.370  -0.609  0.0934 -0.9310  0.0937
   15CHTO   H37 6230   6.570   3.372  -0.573  0.0881 -1.0555  0.0887
   15CHTO   C27 6231   6.698   3.543  -0.430  0.1318  0.5002 -0.3371
   15CHTO   H55 6232   6.689   3.625  -0.503 -1.6273  1.8472  1.3100
   15CHTO    N5 6233   6.563   3.523  -0.370  0.1012 -0.4525  0.0966
   15CHTO   H43 6234   6.529   3.614  -0.323  1.1642 -0.4457  0.8711
   15CHTO   H44 6235   6.560   3.440  -0.301  1.2903  0.0536  0.7635
   15CHTO   C25 6236   6.807   3.590  -0.326  0.3145 -0.0626  0.0382
   15CHTO   H53 6237   6.818   3.516  -0.246  0.0947  0.0404  0.1618
   15CHTO   O17 6238   6.935   3.608  -0.393 -0.3745 -0.1398  0.1576
   15CHTO   C32 6239   6.986   3.476  -0.427  0.0024 -0.1514  0.2341
   15CHTO   H60 6240   6.970   3.410  -0.342 -0.3767 -0.4781 -0.0866
   15CHTO   C36 6241   7.132   3.497  -0.465  0.0713  0.0437 -0.3182
   15CHTO   O25 6242   7.214   3.564  -0.363 -0.5583 -0.3948  0.1040
   15CHTO   H40 6243   7.187   3.652  -0.346 -1.8653 -0.9379  0.9435
   15CHTO   O15 6244   6.764   3.724  -0.277 -0.0488  0.4301 -0.0165
   15CHTO   C19 6245   6.786   3.835  -0.183  0.1951 -0.6562  0.9805
   15CHTO   H47 6246   6.856   3.903  -0.235 -0.8925  0.0217  0.3739
   15CHTO   C20 6247   6.653   3.919  -0.157 -0.0790  0.8704  0.1090
   15CHTO   H48 6248   6.576   3.860  -0.106 -1.7157  1.8254 -1.1998
   15CHTO   O19 6249   6.609   3.944  -0.295 -0.5096  0.5748 -0.5316
   15CHTO   H35 6250   6.675   3.984  -0.350 -0.7267 -1.3010 -2.2067
   15CHTO   C21 6251   6.687   4.047  -0.091  0.0487  0.2056 -0.5771
   15CHTO   H49 6252   6.757   4.100  -0.156 -1.3752  1.2655 -1.2775
   15CHTO    N4 6253   6.566   4.130  -0.061 -0.2414 -0.0508 -0.2273
   15CHTO   H41 6254   6.530   4.167  -0.156  1.8392  2.2716 -0.1887
   15CHTO   H42 6255   6.495   4.073  -0.003  0.9175 -0.1642  1.1275
   15CHTO   C22 6256   6.757   4.009   0.041  0.0668 -0.3437 -0.0204
   15CHTO   H50 6257   6.686   3.952   0.101  0.4452  0.2980  1.0413
   15CHTO   O14 6258   6.882   3.933   0.007 -0.1522  0.0004 -0.0744
   15CHTO   C23 6259   6.852   3.808  -0.049  0.1116  0.1626  0.3960
   15CHTO   H51 6260   6.785   3.759   0.023  1.9697 -1.9102  0.7739
   15CHTO   C34 6261   6.979   3.726  -0.067 -0.3444  0.5026 -0.1974
   15CHTO   O23 6262   7.067   3.756  -0.174  0.0904 -0.3018 -0.3556
   15CHTO   H38 6263   7.025   3.744  -0.257 -3.2055  0.5322  1.0798
   15CHTO   O16 6264   6.805   4.116   0.111  0.3436  0.2396  0.0288
   15CHTO   C24 6265   6.800   4.098   0.276  0.3906  0.0707  0.1716
   15CHTO   H52 6266   6.732   4.019   0.306  0.9704 -0.9312 -1.0914
   15CHTO   C26 6267   6.730   4.230   0.327  0.4334 -0.0730  0.3606
   15CHTO   H54 6268   6.771   4.316   0.271  0.3681  2.2186  3.7216
   15CHTO   O20 6269   6.591   4.221   0.293  0.4248 -0.0600  0.0458
   15CHTO   H36 6270   6.549   4.182   0.367  2.6358 -1.8003  0.4293
   15CHTO   C30 6271   6.766   4.250   0.476  0.2421  0.8282  0.2663
   15CHTO   H58 6272   6.721   4.166   0.531  2.8203 -1.1465 -0.5603
   15CHTO    N6 6273   6.707   4.382   0.517 -0.9787  0.1264 -0.4446
   15CHTO   H45 6274   6.725   4.405   0.621 -1.0553 -0.5370 -0.2819
   15CHTO   H46 6275   6.599   4.385   0.507 -0.9392  1.3626 -0.5057
   15CHTO   C33 6276   6.922   4.236   0.493  0.2035 -0.3454 -0.1738
   15CHTO   H61 6277   6.973   4.298   0.417  0.5762 -0.8214 -0.3126
   15CHTO   O18 6278   6.949   4.098   0.468  0.2897  0.2539  0.5167
   15CHTO   C28 6279   6.942   4.064   0.329 -0.0139 -0.5530 -0.0031
   15CHTO   H56 6280   7.016   4.125   0.277 -0.1549  1.5817  2.2346
   15CHTO   C35 6281   6.976   3.916   0.319 -0.1324 -0.4216 -0.0389
   15CHTO   O24 6282   7.094   3.878   0.393  0.5214 -0.3943  0.2995
   15CHTO   H39 6283   7.070   3.887   0.483 -3.7606 -2.9237 -0.4902
   15CHTO    O9 6284   6.978   4.282   0.622  0.1622 -0.2916 -0.5850
   15CHTO   C13 6285   7.128   4.375   0.621  0.3645  0.7350 -0.1956
   15CHTO   H26 6286   7.093   4.477   0.593 -1.2186 -0.6954 -3.7915
   15CHTO   C11 6287   7.237   4.326   0.519 -0.1403  1.0376 -0.5902
   15CHTO   H24 6288   7.199   4.349   0.419 -1.0732 -1.1570 -0.7639
   15CHTO    O8 6289   7.253   4.182   0.543 -0.1659 -0.4075 -0.1120
   15CHTO    H3 6290   7.291   4.137   0.470  1.8002  1.1851 -0.1153
   15CHTO    C9 6291   7.370   4.400   0.551 -1.0645 -0.0740  0.5094
   15CHTO   H22 6292   7.349   4.507   0.538 -1.5822 -0.2936 -0.5009
   15CHTO    N2 6293   7.472   4.383   0.443 -0.3853  0.2987 -0.1530
   15CHTO   H10 6294   7.566   4.358   0.488  0.1416  3.4603  0.6107
   15CHTO   H11 6295   7.438   4.327   0.357  0.4254  1.0609 -0.9860
   15CHTO    C7 6296   7.425   4.373   0.698 -0.1850 -0.2057  0.6495
   15CHTO   H20 6297   7.462   4.475   0.722  0.8187 -0.5280  0.5301
   15CHTO    O4 6298   7.322   4.330   0.790 -0.9446 -0.2796 -0.0706
   15CHTO   C14 6299   7.184   4.380   0.772 -0.3504  0.3425  0.5122
   15CHTO   H27 6300   7.179   4.482   0.816  0.3553  0.5585  0.1026
   15CHTO   C18 6301   7.106   4.288   0.872 -0.4290 -0.5129  0.1810
   15CHTO   O13 6302   7.107   4.148   0.854 -0.5903 -0.3224  0.1664
   15CHTO    H7 6303   7.021   4.116   0.873 -1.2957  1.1572 -0.4107
   15CHTO    O2 6304   7.555   4.266   0.698 -0.3499  0.9660  0.5031
   15CHTO    C1 6305   7.604   4.243   0.831 -0.6161  0.3060  0.3689
   15CHTO   H14 6306   7.528   4.271   0.907 -0.9224 -0.9335  0.5239
   15CHTO    C2 6307   7.736   4.332   0.866 -0.4603 -0.2287 -0.6946
   15CHTO   H15 6308   7.812   4.303   0.793 -0.7224  1.5137 -1.6838
   15CHTO    O6 6309   7.707   4.474   0.860 -0.2510 -0.5097  0.0574
   15CHTO    H1 6310   7.615   4.491   0.848 -0.1629 -0.1619 -0.1134
   15CHTO    C3 6311   7.788   4.295   1.011  0.3602  0.2176 -0.5106
   15CHTO   H16 6312   7.718   4.327   1.090 -0.1508 -0.0130 -0.8652
   15CHTO    N1 6313   7.923   4.362   1.031  0.2916  0.5055  0.2294
   15CHTO    H8 6314   7.965   4.364   1.131 -1.0781 -0.4387  0.8474
   15CHTO    H9 6315   7.913   4.466   1.006 -0.4673  0.1343 -1.0813
   15CHTO    C4 6316   7.793   4.134   1.033 -0.4443 -0.2143  0.4234
   15CHTO   H17 6317   7.888   4.093   0.998 -0.2084  1.1079 -0.5254
   15CHTO    O1 6318   7.682   4.066   0.981  0.3874 -0.0657 -0.0267
   15CHTO    C5 6319   7.640   4.094   0.848 -0.0749  0.3609  0.0657
   15CHTO   H18 6320   7.727   4.078   0.785  0.0086 -1.4554  0.6179
   15CHTO   C16 6321   7.532   3.988   0.809  0.0896  0.1729 -0.5423
   15CHTO   O11 6322   7.598   3.858   0.802 -0.7952  0.6977 -0.2814
   15CHTO    H5 6323   7.687   3.873   0.779 -1.5246  1.3595 -2.8392
   15CHTO    O3 6324   7.802   4.106   1.178 -0.3367  0.5649  0.0608
   15CHTO    C6 6325   7.839   3.971   1.212  0.2251 -0.0237  0.2692
   15CHTO   H19 6326   7.835   3.902   1.127  0.3874 -0.3649  0.5372
   15CHTO    C8 6327   7.987   3.965   1.247  0.1544  0.1627  0.6316
   15CHTO   H21 6328   8.002   4.027   1.335  0.7736  2.1704 -0.8613
   15CHTO    O7 6329   8.073   3.999   1.137 -0.0108 -0.0496  0.4102
   15CHTO    H2 6330   8.020   4.019   1.063  1.1035  3.5646  0.4865
   15CHTO   C12 6331   8.029   3.817   1.298  0.3251  0.4867 -0.0581
   15CHTO   H25 6332   8.016   3.758   1.206  0.6393  2.0253 -1.1137
   15CHTO    N3 6333   8.169   3.800   1.342 -0.4047 -0.0015  0.0331
   15CHTO   H12 6334   8.191   3.708   1.395 -0.8401 -2.2140 -3.4356
   15CHTO   H13 6335   8.228   3.793   1.252 -0.6733  0.8297 -0.2099
   15CHTO   C15 6336   7.930   3.773   1.409  0.0327 -0.5133  0.4282
   15CHTO   H28 6337   7.945   3.832   1.499  0.7825  0.4726 -0.3402
   15CHTO   O10 6338   7.934   3.620   1.458 -0.5127  0.2216 -0.0958
   15CHTO    H4 6339   7.915   3.609   1.549  0.7709  0.0228  0.1567
   15CHTO    O5 6340   7.790   3.783   1.365  0.3421  0.1462 -0.0543
   15CHTO   C10 6341   7.760   3.912   1.323 -0.2836 -0.5884 -0.8192
   15CHTO   H23 6342   7.778   3.975   1.411  0.6923  0.4146 -1.7180
   15CHTO   C17 6343   7.610   3.920   1.286 -0.5964  0.1423 -0.8448
   15CHTO   O12 6344   7.548   4.044   1.249  0.3214  0.5766 -0.1520
   15CHTO    H6 6345   7.457   4.029   1.266  0.4344  2.2391  2.0431
   16CHTO  H203 6346   6.070   4.585   0.196 -0.4080  1.0183 -1.7401
   16CHTO   O82 6347   6.101   4.508   0.153  0.0155  0.0138  0.2987
   16CHTO  C123 6348   6.094   4.392   0.238  0.2603 -0.1893  0.3773
   16CHTO  H227 6349   5.993   4.386   0.281  0.6294 -0.3199  1.2161
   16CHTO   O77 6350   6.108   4.289   0.131 -0.2630 -0.6519 -0.0632
   16CHTO  C118 6351   6.133   4.161   0.188 -0.3377 -0.1491  0.0884
   16CHTO  H222 6352   6.042   4.126   0.239 -1.4306  0.2628 -1.5346
   16CHTO  C125 6353   6.169   4.059   0.072 -0.0317 -0.3226  0.1573
   16CHTO   O84 6354   6.085   4.063  -0.042  0.7037 -0.6250 -0.3384
   16CHTO  H205 6355   6.043   3.986  -0.073  0.0894 -0.3170 -0.2888
   16CHTO  C114 6356   6.248   4.156   0.288  0.4236 -0.8662 -0.2777
   16CHTO  H218 6357   6.339   4.191   0.239  0.9920  0.2062  1.4741
   16CHTO  C116 6358   6.235   4.252   0.405 -0.1842 -0.0916  0.9326
   16CHTO  H220 6359   6.149   4.223   0.469  0.1009 -1.1350  0.8573
   16CHTO   O79 6360   6.354   4.254   0.489 -0.1851  0.2046  0.1622
   16CHTO  H201 6361   6.368   4.165   0.513 -0.0273 -0.2480 -1.5256
   16CHTO  C120 6362   6.213   4.396   0.343  0.1910  0.1477 -0.5334
   16CHTO  H224 6363   6.314   4.411   0.299  0.3614 -0.1913 -0.2508
   16CHTO   N21 6364   6.191   4.503   0.443 -0.3039 -0.5538  0.6096
   16CHTO  H211 6365   6.129   4.473   0.526 -0.4888  1.2391  1.1417
   16CHTO  H212 6366   6.143   4.581   0.387  0.4742 -0.5787 -0.1012
   16CHTO   O75 6367   6.260   4.019   0.329  1.1168  0.3602  0.0264
   16CHTO  C112 6368   6.391   3.932   0.298 -0.3150  0.0282  0.2028
   16CHTO  H216 6369   6.468   3.995   0.251 -0.4320  0.4586  0.5807
   16CHTO   O73 6370   6.343   3.827   0.210 -0.5126  0.0810 -0.6452
   16CHTO  C113 6371   6.452   3.752   0.153 -0.3590  0.2071  0.3784
   16CHTO  H217 6372   6.522   3.827   0.111 -1.1381  1.7175  1.6905
   16CHTO  C124 6373   6.400   3.653   0.051  0.7591  0.3276  0.2146
   16CHTO   O83 6374   6.336   3.703  -0.068  0.0304  0.6455 -0.5237
   16CHTO  H204 6375   6.340   3.635  -0.133  0.3263  1.2533 -1.1489
   16CHTO  C109 6376   6.532   3.679   0.263  0.3043 -0.2623  0.2796
   16CHTO  H213 6377   6.469   3.598   0.301  0.1159  0.1632  0.8711
   16CHTO  C110 6378   6.573   3.775   0.387 -0.5032  0.8510 -0.7080
   16CHTO  H214 6379   6.659   3.829   0.349  0.8174 -0.0283  0.9841
   16CHTO   O78 6380   6.618   3.694   0.499 -0.6023 -0.4134  0.2892
   16CHTO  H200 6381   6.639   3.751   0.570  2.7484 -0.5804 -0.5269
   16CHTO  C111 6382   6.453   3.871   0.428 -0.0875  0.5936  0.1213
   16CHTO  H215 6383   6.374   3.813   0.477 -0.4787 -0.4002 -1.6257
   16CHTO   N19 6384   6.495   3.972   0.527  0.3197  0.2814 -0.4262
   16CHTO  H207 6385   6.571   4.042   0.496  1.5747 -1.5143 -1.5183
   16CHTO  H208 6386   6.404   4.014   0.567  1.7978  3.8351 -0.5984
   16CHTO   O74 6387   6.652   3.624   0.198  0.2193 -0.0187  0.1000
   16CHTO  C115 6388   6.677   3.479   0.252  0.0401  0.0899  0.2715
   16CHTO  H219 6389   6.634   3.463   0.351 -1.0090 -0.6936 -0.3069
   16CHTO   O76 6390   6.607   3.366   0.163 -0.7721  0.3382  0.5063
   16CHTO  C122 6391   6.686   3.351   0.042  0.2952  0.1426  0.5923
   16CHTO  H226 6392   6.702   3.449  -0.003  0.2948  0.0231  0.3320
   16CHTO  C126 6393   6.618   3.264  -0.068 -0.1964  0.6864 -0.4862
   16CHTO   O85 6394   6.495   3.302  -0.121  0.3842 -0.1881 -0.1626
   16CHTO  H206 6395   6.509   3.329  -0.210 -0.2077 -0.6134 -0.3878
   16CHTO  C121 6396   6.827   3.285   0.076 -0.1446  1.3973  0.5196
   16CHTO  H225 6397   6.822   3.176   0.054 -1.6647  1.8210 -1.3733
   16CHTO   O81 6398   6.925   3.348  -0.008  0.1090  0.3912  0.5784
   16CHTO  H202 6399   6.976   3.280  -0.045 -0.6973 -0.6895  1.4186
   16CHTO  C119 6400   6.873   3.302   0.219 -0.0786  0.0008  0.1343
   16CHTO  H223 6401   6.804   3.236   0.272 -1.7770  0.2946 -1.6544
   16CHTO  C117 6402   6.840   3.448   0.261  0.1304 -0.8677 -0.3614
   16CHTO  H221 6403   6.886   3.532   0.210 -1.9214  2.0389  2.4348
   16CHTO   N20 6404   6.880   3.465   0.399  0.1197  0.1558 -0.4872
   16CHTO  H209 6405   6.834   3.556   0.433 -1.1974 -1.5735  2.5322
   16CHTO  H210 6406   6.856   3.378   0.458  0.5833 -0.1273 -0.7048
   16CHTO   O80 6407   7.019   3.233   0.249  0.8739  0.3102 -0.6697
   16CHTO  C103 6408   7.031   3.086   0.229 -0.3581 -0.4845  0.1998
   16CHTO  H190 6409   6.935   3.038   0.211 -1.0203  1.6129 -2.0672
   16CHTO  C101 6410   7.135   3.044   0.118 -0.3705  0.0620 -0.0333
   16CHTO  H188 6411   7.224   3.102   0.139  0.3915 -0.9167 -0.4953
   16CHTO   O68 6412   7.077   3.073  -0.029  0.2116  0.3457 -0.3577
   16CHTO  H168 6413   7.061   3.164  -0.040  0.2448  0.5967  1.4585
   16CHTO   C99 6414   7.184   2.893   0.123  0.3491 -0.2729  0.0422
   16CHTO  H186 6415   7.101   2.831   0.083 -1.2105  0.6317  1.8266
   16CHTO   N17 6416   7.306   2.863   0.035 -0.0460 -0.3629 -1.0659
   16CHTO  H174 6417   7.376   2.819   0.105 -0.3261  1.9263  0.7087
   16CHTO  H175 6418   7.276   2.782  -0.029 -1.1872 -0.0405 -0.9500
   16CHTO   C97 6419   7.203   2.848   0.271 -0.0636  0.4009 -0.5137
   16CHTO  H184 6420   7.303   2.879   0.306  0.9885 -2.7922 -0.5550
   16CHTO   O64 6421   7.097   2.892   0.358  0.2497 -0.1857 -0.3052
   16CHTO  C104 6422   7.085   3.030   0.363  0.4370 -0.0585  0.2152
   16CHTO  H191 6423   7.178   3.081   0.390  0.8383 -0.9725  0.5910
   16CHTO  C108 6424   6.992   3.062   0.480  0.2354  0.4465  0.3986
   16CHTO   O71 6425   6.869   2.995   0.476 -0.1226 -0.5022  0.6237
   16CHTO  H171 6426   6.832   2.984   0.562 -0.8698  1.2009  0.5405
   16CHTO   O62 6427   7.203   2.703   0.276 -0.2036  0.4352  0.0551
   16CHTO   C91 6428   7.214   2.648   0.407  1.0300 -0.3149  0.5633
   16CHTO  H178 6429   7.230   2.726   0.481  1.2197  0.1154  0.0697
   16CHTO   C92 6430   7.339   2.558   0.420  0.0244 -0.4938  0.1738
   16CHTO  H179 6431   7.335   2.491   0.332  1.7533 -2.5360  1.5748
   16CHTO   O66 6432   7.457   2.639   0.396 -0.6213  0.1865 -0.2077
   16CHTO  H166 6433   7.483   2.638   0.306  1.5756  1.8257  0.3566
   16CHTO   C93 6434   7.344   2.487   0.561 -0.4886 -0.3520  0.6274
   16CHTO  H180 6435   7.372   2.564   0.635  2.0219  1.2447 -1.8564
   16CHTO   N16 6436   7.444   2.381   0.562  0.0229 -0.3501  0.1730
   16CHTO  H172 6437   7.445   2.330   0.657  0.8591  0.0478  0.3860
   16CHTO  H173 6438   7.545   2.414   0.541  0.1985 -1.2413 -0.3879
   16CHTO   C94 6439   7.209   2.426   0.605  0.9467  0.0753  0.4190
   16CHTO  H181 6440   7.182   2.338   0.547  0.4925 -0.6188  1.6733
   16CHTO   O61 6441   7.110   2.530   0.590  0.1816  0.4404 -0.2453
   16CHTO   C95 6442   7.090   2.562   0.454 -0.4479 -0.4667 -0.4640
   16CHTO  H182 6443   7.088   2.470   0.396  1.2680 -0.5034 -0.4998
   16CHTO  C106 6444   6.946   2.626   0.449 -0.0126 -0.1723  0.2010
   16CHTO   O69 6445   6.917   2.682   0.320 -0.6018 -0.1553 -0.1747
   16CHTO  H169 6446   6.826   2.708   0.317 -0.1020  1.5371 -1.7935
   16CHTO   O63 6447   7.199   2.392   0.766  0.9405 -0.1305 -0.3138
   16CHTO   C96 6448   7.031   2.367   0.817 -0.7387 -0.1022 -0.2532
   16CHTO  H183 6449   7.028   2.300   0.902  1.5015  0.2735  0.1499
   16CHTO   C98 6450   6.928   2.307   0.714 -0.1388 -0.1550 -0.1097
   16CHTO  H185 6451   6.929   2.355   0.615  1.4217 -1.3582 -0.7161
   16CHTO   O67 6452   6.972   2.175   0.689 -0.0793  0.0083  0.1576
   16CHTO  H167 6453   6.991   2.126   0.767  1.1665  2.1550  1.2252
   16CHTO  C102 6454   6.775   2.309   0.772  0.6633  0.5778  0.8453
   16CHTO  H189 6455   6.776   2.247   0.862  0.0963 -0.9670 -0.1963
   16CHTO   N18 6456   6.666   2.264   0.683 -0.3249 -0.0423  0.1837
   16CHTO  H176 6457   6.686   2.163   0.653  1.8187  0.1547  0.8959
   16CHTO  H177 6458   6.674   2.324   0.593 -0.1415 -3.7803 -2.3958
   16CHTO  C105 6459   6.743   2.455   0.817 -0.3604 -0.2791 -0.2675
   16CHTO  H192 6460   6.761   2.525   0.735 -2.6406  0.7920  0.1120
   16CHTO   O65 6461   6.843   2.506   0.914 -0.1330 -0.0077 -0.3754
   16CHTO  C100 6462   6.981   2.506   0.867  0.5663  0.8420  0.1688
   16CHTO  H187 6463   6.982   2.574   0.780 -0.0902  2.1283  1.1624
   16CHTO  C107 6464   7.074   2.567   0.976 -0.3080  0.2770 -0.2473
   16CHTO   O70 6465   7.200   2.608   0.923 -0.3329 -0.6157  0.1177
   16CHTO  H170 6466   7.258   2.534   0.922 -0.0948 -0.5316  3.1270
   16CHTO   O57 6467   6.583   2.480   0.871 -0.5802 -0.1213 -0.2221
   16CHTO   C85 6468   6.502   2.576   0.797 -0.5900  0.7475 -0.3953
   16CHTO  H157 6469   6.526   2.558   0.690 -2.0271  2.6642 -1.0546
   16CHTO   C83 6470   6.542   2.728   0.815  0.1043  0.0482 -0.2024
   16CHTO  H155 6471   6.647   2.746   0.789 -0.3164  0.6966 -1.5379
   16CHTO   O56 6472   6.522   2.778   0.945  0.1408  0.8424  0.3928
   16CHTO  H135 6473   6.558   2.724   1.013 -2.0406 -2.7601 -1.1799
   16CHTO   C81 6474   6.466   2.812   0.711 -0.6756 -0.1295  0.1738
   16CHTO  H153 6475   6.488   2.769   0.614 -2.8534 -0.1253 -0.3534
   16CHTO   N14 6476   6.505   2.959   0.709  0.0399  0.1998  0.5568
   16CHTO  H141 6477   6.505   2.998   0.610 -2.0480  1.8170  1.1560
   16CHTO  H142 6478   6.452   3.025   0.775  1.4177  0.8703  1.0021
   16CHTO   C79 6479   6.312   2.794   0.738  0.1749  0.0391 -0.0499
   16CHTO  H151 6480   6.266   2.842   0.651  1.5109 -0.1859 -0.9082
   16CHTO   O52 6481   6.270   2.658   0.733  0.4569 -0.0751 -0.3883
   16CHTO   C86 6482   6.343   2.566   0.821  0.1823  0.0255 -0.5226
   16CHTO  H158 6483   6.321   2.596   0.925  3.5314  1.8073 -0.2742
   16CHTO   C90 6484   6.288   2.422   0.801 -0.6237 -0.1202  0.8197
   16CHTO   O60 6485   6.149   2.426   0.835 -0.3092  0.2303 -0.0723
   16CHTO  H138 6486   6.119   2.344   0.869  1.4913 -1.1991 -1.7817
   16CHTO   O50 6487   6.264   2.857   0.853  0.0496  0.1177  0.0232
   16CHTO   C73 6488   6.134   2.854   0.900  0.5719 -0.0262  0.2714
   16CHTO  H145 6489   6.113   2.746   0.902 -0.4271  0.1579 -0.1437
   16CHTO   C74 6490   6.022   2.925   0.815  0.1150  0.4287  0.2298
   16CHTO  H146 6491   6.024   2.888   0.711  0.1339  1.9300 -0.3107
   16CHTO   O54 6492   5.897   2.886   0.867  0.3551  0.2207  0.1860
   16CHTO  H133 6493   5.858   2.925   0.943  0.9389  0.8455  0.1674
   16CHTO   C75 6494   6.047   3.078   0.818  0.2835  0.1699  0.5639
   16CHTO  H147 6495   6.144   3.103   0.774 -0.0347 -0.2555 -0.3978
   16CHTO   N13 6496   5.957   3.161   0.738 -0.0544  0.0726 -0.3713
   16CHTO  H139 6497   5.955   3.122   0.637  1.2110 -3.5788  0.9291
   16CHTO  H140 6498   5.858   3.151   0.781 -0.2787 -0.3056 -0.9748
   16CHTO   C76 6499   6.072   3.131   0.968  0.5240  0.2320  0.2793
   16CHTO  H148 6500   5.978   3.131   1.023 -0.0375  2.9773 -0.6100
   16CHTO   O49 6501   6.168   3.036   1.045 -0.4647  0.3101  0.1299
   16CHTO   C77 6502   6.132   2.903   1.048  0.3971  0.8747  0.5138
   16CHTO  H149 6503   6.035   2.881   1.091  1.4765 -0.5394  2.3065
   16CHTO   C88 6504   6.237   2.822   1.132 -0.1985  0.5011 -0.4296
   16CHTO   O58 6505   6.254   2.887   1.266 -0.2667 -0.2655 -0.6151
   16CHTO  H136 6506   6.259   2.980   1.268  0.8173 -0.2735 -2.0951
   16CHTO   O51 6507   6.145   3.263   0.970  0.1544  0.7244 -0.0576
   16CHTO   C78 6508   6.114   3.341   1.105 -0.4072  0.1060  0.0640
   16CHTO  H150 6509   6.087   3.269   1.185 -2.1345  0.2614 -0.3626
   16CHTO   C80 6510   6.003   3.442   1.086 -0.0005 -0.4915 -0.2143
   16CHTO  H152 6511   6.015   3.489   0.986  1.1995  1.3947  0.7705
   16CHTO   O55 6512   5.888   3.362   1.059 -0.7101 -1.0704 -0.2861
   16CHTO  H134 6513   5.828   3.423   1.020 -0.1249 -0.4635 -0.2459
   16CHTO   C84 6514   5.983   3.548   1.201  0.3010  0.0385 -0.2705
   16CHTO  H156 6515   5.943   3.486   1.281 -1.2510  1.6320  0.2156
   16CHTO   N15 6516   5.871   3.646   1.177 -0.7066 -0.3824  0.1517
   16CHTO  H143 6517   5.927   3.738   1.180  1.0783 -1.4774  4.3738
   16CHTO  H144 6518   5.820   3.638   1.083 -2.2883 -2.4007  1.1494
   16CHTO   C87 6519   6.117   3.606   1.250  0.0596 -1.0088  0.2627
   16CHTO  H159 6520   6.150   3.666   1.166 -1.1237  0.1509  0.6193
   16CHTO   O53 6521   6.208   3.493   1.270 -0.1217 -0.3784  0.0120
   16CHTO   C82 6522   6.236   3.418   1.154 -0.0787  0.1211  0.1648
   16CHTO  H154 6523   6.261   3.489   1.075  0.8269 -0.2370  0.1238
   16CHTO   C89 6524   6.363   3.329   1.174  0.3466 -0.3728 -0.3182
   16CHTO   O59 6525   6.413   3.254   1.063 -0.2601 -0.1407  0.1101
   16CHTO  H137 6526   6.485   3.200   1.089  0.2326  0.5924  0.2744
   16CHTO   O45 6527   6.102   3.684   1.397  0.6413 -0.2512  0.7058
   16CHTO   C67 6528   6.220   3.736   1.452 -1.1372  0.4716  0.4746
   16CHTO  H124 6529   6.307   3.691   1.405 -1.5366 -0.0157  0.1908
   16CHTO   C65 6530   6.223   3.892   1.431  0.8343 -0.7177 -0.6461
   16CHTO  H122 6531   6.118   3.921   1.442  1.3506  0.6015  0.9125
   16CHTO   O44 6532   6.264   3.913   1.293 -0.4612  0.3997 -0.5001
   16CHTO  H102 6533   6.249   4.004   1.272  1.6935  0.7598 -0.5841
   16CHTO   C63 6534   6.310   3.965   1.541  0.3984 -0.3674 -0.0007
   16CHTO  H120 6535   6.242   3.982   1.624 -1.0474  0.4122 -1.3035
   16CHTO   N11 6536   6.348   4.105   1.516  0.6000 -0.3831 -0.5246
   16CHTO  H108 6537   6.438   4.122   1.571  0.9936 -1.0281 -0.9645
   16CHTO  H109 6538   6.265   4.173   1.522  0.9131 -0.1190  0.9171
   16CHTO   C61 6539   6.418   3.872   1.605  0.1665  0.5872 -0.1524
   16CHTO  H118 6540   6.465   3.931   1.686 -0.1453  3.1813 -1.7979
   16CHTO   O40 6541   6.363   3.747   1.661 -0.3300 -0.0466  0.0255
   16CHTO   C68 6542   6.234   3.696   1.612  0.1062 -0.0456 -0.2353
   16CHTO  H125 6543   6.160   3.731   1.687  1.0547  0.1484  0.6374
   16CHTO   C72 6544   6.226   3.543   1.617 -0.0105  0.3110 -0.0024
   16CHTO   O48 6545   6.193   3.507   1.752 -0.0556 -0.2711 -0.2682
   16CHTO  H105 6546   6.103   3.479   1.755 -0.2994  0.5630  0.3755
   16CHTO   O38 6547   6.510   3.841   1.504  0.1648  0.0825 -0.0589
   16CHTO   C55 6548   6.627   3.766   1.530  0.4553 -0.1174  0.3969
   16CHTO  H112 6549   6.619   3.687   1.606  2.9675 -0.6767  0.1122
   16CHTO   C56 6550   6.740   3.862   1.563 -0.1254 -0.6026 -0.6284
   16CHTO  H113 6551   6.731   3.945   1.492  2.1886  0.4024  0.1947
   16CHTO   O42 6552   6.715   3.921   1.693  0.2254  0.0436  0.4741
   16CHTO  H100 6553   6.754   4.006   1.703 -0.7572  0.5903 -0.1978
   16CHTO   C57 6554   6.883   3.800   1.556 -0.1979 -1.0187 -0.3889
   16CHTO  H114 6555   6.900   3.738   1.644 -0.0404 -1.0319 -0.4285
   16CHTO   N10 6556   6.998   3.896   1.559  0.2928  0.0896 -0.7591
   16CHTO  H106 6557   6.985   3.980   1.626 -0.8231  1.1088 -2.1899
   16CHTO  H107 6558   7.091   3.848   1.581  0.5200  0.1839 -1.4820
   16CHTO   C58 6559   6.897   3.714   1.431 -0.1738 -0.4759  0.5216
   16CHTO  H115 6560   6.899   3.770   1.335  0.9901 -1.8430 -0.2853
   16CHTO   O37 6561   6.789   3.620   1.427 -0.3406 -0.2740 -0.0396
   16CHTO   C59 6562   6.667   3.689   1.406  0.4431 -0.0765 -0.4612
   16CHTO  H116 6563   6.682   3.754   1.320 -1.2872 -3.1015 -3.1708
   16CHTO   C70 6564   6.566   3.582   1.382 -0.4488 -0.0289  0.1424
   16CHTO   O46 6565   6.587   3.497   1.266 -0.2674  0.5918  0.4065
   16CHTO  H103 6566   6.679   3.500   1.248 -0.1318 -0.9266  0.7920
   16CHTO   O39 6567   7.019   3.625   1.449 -0.0182 -0.5149  0.1943
   16CHTO   C60 6568   7.079   3.575   1.327  0.2301  0.1623 -0.8691
   16CHTO  H117 6569   7.004   3.540   1.256 -1.2211  0.1699  0.6203
   16CHTO   C62 6570   7.168   3.690   1.272  0.1618 -0.2346 -0.5218
   16CHTO  H119 6571   7.096   3.771   1.247 -2.7857 -1.7735  2.6086
   16CHTO   O43 6572   7.264   3.738   1.371 -0.2837  0.0245  0.4564
   16CHTO  H101 6573   7.351   3.718   1.342  0.0202 -0.9617  2.0327
   16CHTO   C66 6574   7.231   3.645   1.136  0.3227  0.2865  0.2402
   16CHTO  H123 6575   7.150   3.622   1.067  0.2448  0.0219  0.4180
   16CHTO   N12 6576   7.314   3.745   1.061 -0.4430  0.5999  0.1690
   16CHTO  H110 6577   7.376   3.695   0.988 -1.6895 -0.4017 -0.2363
   16CHTO  H111 6578   7.255   3.822   1.014  1.0104  1.0547 -0.9691
   16CHTO   C69 6579   7.313   3.513   1.160 -0.4200  0.5362  0.0126
   16CHTO  H126 6580   7.407   3.530   1.216  0.4414 -0.1680 -1.2037
   16CHTO   O41 6581   7.226   3.405   1.237  1.1742 -0.5876  0.3850
   16CHTO   C64 6582   7.170   3.450   1.359  0.1496  0.7323  0.1162
   16CHTO  H121 6583   7.253   3.471   1.429 -0.0521 -1.3700  1.0092
   16CHTO   C71 6584   7.087   3.332   1.415 -0.5480 -0.1560 -0.2426
   16CHTO   O47 6585   6.963   3.301   1.345  0.0825  0.4519 -0.0666
   16CHTO  H104 6586   6.976   3.255   1.265 -2.0848 -2.5032  1.1929
   16CHTO   O34 6587   7.354   3.431   1.021 -0.0207  0.0322 -0.1234
   16CHTO   C49 6588   7.295   3.416   0.875 -0.5017  0.4884 -0.0240
   16CHTO   H91 6589   7.263   3.516   0.845  1.7005  1.1494 -0.2815
   16CHTO   C47 6590   7.172   3.326   0.875 -0.3399  0.6029  0.2513
   16CHTO   H89 6591   7.151   3.324   0.767  2.2402  0.4888 -0.2887
   16CHTO   O33 6592   7.066   3.388   0.944 -0.2364  0.0913 -0.0960
   16CHTO   H70 6593   6.984   3.361   0.906 -0.3798 -0.1921  0.4073
   16CHTO   C45 6594   7.207   3.178   0.922  0.6622  0.5178 -0.0249
   16CHTO   H87 6595   7.201   3.171   1.032  1.2380 -0.6780 -0.0641
   16CHTO    N8 6596   7.103   3.086   0.864  0.5785  0.2257 -0.4461
   16CHTO   H75 6597   7.037   3.140   0.798 -0.1282 -1.4262 -1.1266
   16CHTO   H76 6598   7.043   3.054   0.947  0.8173  0.6382 -0.1128
   16CHTO   C43 6599   7.365   3.141   0.895  0.3230  0.6374 -0.7566
   16CHTO   H85 6600   7.420   3.175   0.983 -2.4870  1.3285  0.8170
   16CHTO   O29 6601   7.404   3.209   0.774  0.0957  0.0080  0.4707
   16CHTO   C50 6602   7.401   3.352   0.784 -0.3079  0.1222  1.1983
   16CHTO   H92 6603   7.498   3.386   0.823  0.8175 -0.6891 -0.8361
   16CHTO   C54 6604   7.399   3.420   0.642 -0.6313  0.2812 -0.2359
   16CHTO   O36 6605   7.510   3.491   0.592  0.2491  0.1357  0.4993
   16CHTO   H72 6606   7.525   3.569   0.642  3.2693 -0.7744  1.1260
   16CHTO   O27 6607   7.392   2.999   0.900 -0.1551  0.3595 -0.3124
   16CHTO   C37 6608   7.455   2.924   1.001  0.0349  0.2874  0.3347
   16CHTO   H79 6609   7.549   2.967   1.040  0.0611 -0.8702  1.5907
   16CHTO   C38 6610   7.355   2.902   1.119  0.1003 -0.4220 -0.3696
   16CHTO   H80 6611   7.257   2.869   1.082 -0.5795  1.0184  0.1220
   16CHTO   O31 6612   7.338   3.033   1.180 -0.1695 -0.4024  0.1620
   16CHTO   H68 6613   7.360   3.040   1.271 -2.8536 -1.5632  0.9525
   16CHTO   C39 6614   7.417   2.792   1.224 -0.4301  0.2188 -0.0359
   16CHTO   H81 6615   7.508   2.839   1.262  1.1005 -0.6393 -2.5438
   16CHTO    N7 6616   7.320   2.746   1.332  0.1169  0.2322 -0.9923
   16CHTO   H73 6617   7.233   2.700   1.287  0.9616 -1.3597 -1.0228
   16CHTO   H74 6618   7.292   2.828   1.395  0.8017 -0.6395  0.4620
   16CHTO   C40 6619   7.462   2.665   1.143 -0.4855 -0.3151  0.1549
   16CHTO   H82 6620   7.376   2.609   1.106 -1.2554  0.3309  0.9440
   16CHTO   O26 6621   7.551   2.706   1.035  0.2925  0.2624 -0.4842
   16CHTO   C41 6622   7.489   2.787   0.941 -0.8841  0.3066 -0.2440
   16CHTO   H83 6623   7.397   2.744   0.898 -0.3985  0.1197 -1.0937
   16CHTO   C52 6624   7.597   2.783   0.824  0.3256  0.0155  0.4281
   16CHTO   O35 6625   7.605   2.644   0.778 -0.2603  0.3438  0.5702
   16CHTO   H71 6626   7.694   2.614   0.787 -1.0877 -2.5374 -0.1742
   16CHTO   O28 6627   7.549   2.568   1.214 -0.1836 -0.2090  0.0573
   16CHTO   C42 6628   7.530   2.425   1.178 -0.2690  0.2362  0.2805
   16CHTO   H84 6629   7.605   2.376   1.240 -0.0910  0.8554  0.5627
   16CHTO   C44 6630   7.563   2.388   1.025  0.3294  0.0914 -0.5262
   16CHTO   H86 6631   7.483   2.435   0.967 -0.1664 -1.0940 -0.8212
   16CHTO   O32 6632   7.689   2.445   0.995 -0.4058  0.0057 -0.1725
   16CHTO   H69 6633   7.734   2.409   0.921  1.3748  2.6480 -0.4603
   16CHTO   C48 6634   7.545   2.224   1.010 -0.6844  0.4194 -0.3697
   16CHTO   H90 6635   7.622   2.176   1.070 -3.2123 -0.5004  2.2946
   16CHTO    N9 6636   7.568   2.185   0.870  0.0141 -0.1040 -0.2123
   16CHTO   H77 6637   7.647   2.113   0.855  0.7405  0.2620  1.7655
   16CHTO   H78 6638   7.479   2.156   0.816 -0.5065  1.8054 -0.4326
   16CHTO   C51 6639   7.399   2.177   1.055  0.0553  0.4702  0.2036
   16CHTO   H93 6640   7.327   2.223   0.988  0.2013  0.0522 -0.2462
   16CHTO   O30 6641   7.372   2.211   1.193 -0.1498  0.4132  0.2032
   16CHTO   C46 6642   7.390   2.370   1.224 -0.7227  0.2302 -0.0686
   16CHTO   H88 6643   7.307   2.422   1.175 -2.0926 -0.2898  1.6389
   16CHTO   C53 6644   7.372   2.381   1.377 -0.1869  0.1437  0.6098
   16CHTO   O72 6645   7.235   2.360   1.422 -0.2373  0.1322  0.2147
   16CHTO  H199 6646   7.177   2.426   1.390 -1.6683 -0.9767  0.4365
   16CHTO   O22 6647   7.373   2.036   1.049 -0.1438 -0.9510 -0.2934
   16CHTO   C31 6648   7.240   1.973   1.078  0.1564 -0.9006  0.0098
   16CHTO   H59 6649   7.193   2.042   1.151  1.0516 -0.6473  0.3492
   16CHTO   C29 6650   7.146   1.956   0.957  0.6165  0.4744 -0.5815
   16CHTO   H57 6651   7.192   1.887   0.884  0.8373 -1.0687  0.9700
   16CHTO   O21 6652   7.114   2.081   0.899 -0.1208  0.1485 -0.1772
   16CHTO   H37 6653   7.063   2.074   0.820  1.5889 -0.1424 -1.2965
   16CHTO   C27 6654   7.011   1.895   1.014  0.3817  0.2290  1.5911
   16CHTO   H55 6655   6.972   1.965   1.089 -0.5060  1.0484  0.3884
   16CHTO    N5 6656   6.902   1.869   0.917  0.2763  0.6148  0.6396
   16CHTO   H43 6657   6.875   1.972   0.895  1.2013  1.1035  1.7229
   16CHTO   H44 6658   6.948   1.818   0.833 -1.3644  1.0025 -0.5039
   16CHTO   C25 6659   7.041   1.752   1.072 -0.4018  0.1267  0.8533
   16CHTO   H53 6660   7.079   1.688   0.991  1.5421  1.1433  0.9402
   16CHTO   O17 6661   7.145   1.760   1.172  0.5716  0.3341 -0.1924
   16CHTO   C32 6662   7.259   1.838   1.150  0.2657 -0.0582  0.1365
   16CHTO   H60 6663   7.322   1.775   1.087 -1.4916 -1.2713 -0.4556
   16CHTO   C36 6664   7.326   1.852   1.288  0.0477  0.0412 -0.0826
   16CHTO   O25 6665   7.457   1.917   1.280 -0.2329 -0.6240 -0.4791
   16CHTO   H40 6666   7.499   1.907   1.363  0.2069  0.4878 -0.5601
   16CHTO   O15 6667   6.912   1.681   1.145 -0.1816  0.7525 -0.0996
   16CHTO   C19 6668   6.797   1.687   1.237 -0.1333  0.3116  0.3115
   16CHTO   H47 6669   6.784   1.587   1.280  3.0725  0.3192  1.4083
   16CHTO   C20 6670   6.811   1.781   1.353 -0.5813 -0.4234 -0.2499
   16CHTO   H48 6671   6.837   1.882   1.320  0.2996  0.1951  2.2205
   16CHTO   O19 6672   6.929   1.724   1.412 -0.2767 -0.4490  0.1610
   16CHTO   H35 6673   6.935   1.753   1.501  2.0938 -1.1713  0.2640
   16CHTO   C21 6674   6.686   1.785   1.446 -0.4072 -0.0656 -0.6109
   16CHTO   H49 6675   6.659   1.688   1.489 -0.8284  0.4370  0.2654
   16CHTO    N4 6676   6.702   1.884   1.551 -0.0390  0.1548  0.4606
   16CHTO   H41 6677   6.770   1.840   1.622 -1.4956 -0.4133  1.5198
   16CHTO   H42 6678   6.745   1.976   1.515  0.9744 -0.8119 -0.8896
   16CHTO   C22 6679   6.563   1.809   1.361  0.2520 -0.2331  0.5659
   16CHTO   H50 6680   6.560   1.914   1.333 -0.6894  0.2517  2.4371
   16CHTO   O14 6681   6.557   1.716   1.252 -0.2550 -0.7885  0.1667
   16CHTO   C23 6682   6.670   1.720   1.157  0.7578  0.1037  0.1631
   16CHTO   H51 6683   6.670   1.823   1.118  1.2076 -0.2180 -0.6954
   16CHTO   C34 6684   6.631   1.613   1.049 -0.2013 -0.1666  0.1799
   16CHTO   O23 6685   6.721   1.593   0.938 -0.3006 -0.1143  0.0223
   16CHTO   H38 6686   6.802   1.564   0.975 -0.2789  1.9710  1.7034
   16CHTO   O16 6687   6.448   1.777   1.449 -0.1504 -0.2273 -0.3554
   16CHTO   C24 6688   6.318   1.867   1.424 -0.3442  0.2404  0.3712
   16CHTO   H52 6689   6.320   1.919   1.328 -0.2454  1.1271  0.8442
   16CHTO   C26 6690   6.315   1.969   1.540  0.3923 -0.2043 -0.3663
   16CHTO   H54 6691   6.322   1.917   1.638 -0.8506 -0.8625 -0.6155
   16CHTO   O20 6692   6.423   2.061   1.509  0.2227  0.0764 -0.0662
   16CHTO   H36 6693   6.466   2.094   1.586 -1.5247  0.5069  0.7454
   16CHTO   C30 6694   6.184   2.055   1.541  0.8858 -0.3114 -0.0966
   16CHTO   H58 6695   6.187   2.122   1.454  0.7521 -0.4996 -0.2460
   16CHTO    N6 6696   6.171   2.146   1.661 -0.5591  0.1789 -0.1302
   16CHTO   H45 6697   6.218   2.098   1.745 -0.5017  3.5647  1.8489
   16CHTO   H46 6698   6.223   2.238   1.641  1.0684 -0.5755  0.5742
   16CHTO   C33 6699   6.057   1.967   1.520 -0.0836  0.0424  0.9971
   16CHTO   H61 6700   6.042   1.898   1.605 -2.0582  0.5899  1.1117
   16CHTO   O18 6701   6.080   1.884   1.407 -0.3136  0.1783  0.1927
   16CHTO   C28 6702   6.183   1.792   1.418  0.1513  0.1565 -0.0666
   16CHTO   H56 6703   6.174   1.730   1.508 -2.2337  0.7878  0.1764
   16CHTO   C35 6704   6.177   1.705   1.289 -0.6630 -0.7592  0.2774
   16CHTO   O24 6705   6.290   1.623   1.265  0.2661  0.7447 -0.4366
   16CHTO   H39 6706   6.368   1.666   1.296  0.3367  0.9101 -0.8432
   16CHTO    O9 6707   5.926   2.034   1.506  0.1988  0.3914 -0.2444
   16CHTO   C13 6708   5.828   2.015   1.612  0.3910 -0.0978 -0.5307
   16CHTO   H26 6709   5.876   2.035   1.710 -0.8154 -0.5403  0.1662
   16CHTO   C11 6710   5.764   1.864   1.612  0.1296 -0.1813  0.2201
   16CHTO   H24 6711   5.834   1.795   1.661  1.6389  0.5224 -0.8853
   16CHTO    O8 6712   5.737   1.833   1.474 -0.0680  0.4687  0.2303
   16CHTO    H3 6713   5.761   1.745   1.455 -0.0268  0.8690 -1.6093
   16CHTO    C9 6714   5.649   1.879   1.710  0.7478 -0.3869 -0.5463
   16CHTO   H22 6715   5.692   1.924   1.800 -0.8359  1.3503 -0.6418
   16CHTO    N2 6716   5.599   1.749   1.753  0.0687 -0.5665 -0.4761
   16CHTO   H10 6717   5.605   1.736   1.860  0.7031  1.4056 -0.2446
   16CHTO   H11 6718   5.496   1.739   1.723  0.3316 -0.2705 -1.4855
   16CHTO    C7 6719   5.536   1.973   1.646 -0.3622 -0.2648  0.4018
   16CHTO   H20 6720   5.491   2.013   1.739  1.5235  0.5203  0.9938
   16CHTO    O4 6721   5.586   2.084   1.573  0.0370 -0.2559 -0.0296
   16CHTO   C14 6722   5.716   2.125   1.615  0.3617  0.5616 -0.1925
   16CHTO   H27 6723   5.704   2.150   1.723 -1.9342 -0.5609 -0.1538
   16CHTO   C18 6724   5.757   2.253   1.543  0.2574  0.7203 -0.4807
   16CHTO   O13 6725   5.887   2.304   1.589 -0.5884  0.2696  0.2818
   16CHTO    H7 6726   5.901   2.317   1.681 -0.0493 -1.8263  0.5381
   16CHTO    O2 6727   5.423   1.880   1.546  0.3580  0.8687 -0.1257
   16CHTO    C1 6728   5.288   1.941   1.524 -0.4052 -0.0958 -0.3239
   16CHTO   H14 6729   5.232   1.863   1.468 -2.8451 -0.5236  2.6052
   16CHTO    C2 6730   5.280   2.073   1.444 -0.7818 -0.1285 -1.1636
   16CHTO   H15 6731   5.334   2.156   1.491  1.0347 -1.0414 -1.5919
   16CHTO    O6 6732   5.339   2.044   1.321 -0.1430  0.0960 -0.1216
   16CHTO    H1 6733   5.403   1.976   1.323 -0.2488 -0.0740 -1.5372
   16CHTO    C3 6734   5.127   2.114   1.428  0.0711  0.0594 -0.4235
   16CHTO   H16 6735   5.069   2.042   1.369 -3.7158  1.2599  1.6110
   16CHTO    N1 6736   5.095   2.243   1.345  0.9622  0.3009  0.1047
   16CHTO    H8 6737   4.997   2.279   1.376  0.3280 -2.2406  1.1738
   16CHTO    H9 6738   5.167   2.320   1.366  1.2931  0.0156  0.0187
   16CHTO    C4 6739   5.057   2.113   1.563  0.8822 -0.1287 -1.2493
   16CHTO   H17 6740   5.081   2.211   1.604  1.5866 -0.2077 -1.4709
   16CHTO    O1 6741   5.084   2.004   1.655 -0.6189 -0.0687 -0.0188
   16CHTO    C5 6742   5.226   1.970   1.665  0.1888  0.8774 -0.2514
   16CHTO   H18 6743   5.285   2.041   1.722  0.9548  0.1434 -0.1077
   16CHTO   C16 6744   5.229   1.839   1.756  1.0138  0.1744  0.2754
   16CHTO   O11 6745   5.130   1.735   1.731 -0.2797 -0.1068 -0.4292
   16CHTO    H5 6746   5.100   1.723   1.643 -2.6927 -1.2010  0.4875
   16CHTO    O3 6747   4.914   2.096   1.528 -0.0128 -0.1252 -0.2688
   16CHTO    C6 6748   4.814   2.156   1.626 -0.0473  0.2203  0.2487
   16CHTO   H19 6749   4.843   2.203   1.720  0.3667  0.1416  0.1657
   16CHTO    C8 6750   4.741   2.268   1.549  0.9359 -0.0010 -0.1624
   16CHTO   H21 6751   4.698   2.229   1.457 -0.4252  0.6943  0.1708
   16CHTO    O7 6752   4.841   2.369   1.521 -0.0869 -0.1032 -0.3033
   16CHTO    H2 6753   4.826   2.436   1.458  0.8301  2.0979  1.7340
   16CHTO   C12 6754   4.626   2.329   1.649  0.1649  0.3935 -0.0461
   16CHTO   H25 6755   4.665   2.376   1.741  1.4767  1.6440 -1.2069
   16CHTO    N3 6756   4.546   2.440   1.578 -0.6361 -0.2338  0.5417
   16CHTO   H12 6757   4.610   2.520   1.545 -0.2970  0.0600  1.8885
   16CHTO   H13 6758   4.493   2.398   1.493 -1.9900 -0.3956  1.4588
   16CHTO   C15 6759   4.539   2.203   1.689  0.0039  0.4220  0.1398
   16CHTO   H28 6760   4.489   2.162   1.601 -0.0044 -0.9890  0.7945
   16CHTO   O10 6761   4.435   2.242   1.790  0.1102 -0.4428  0.7129
   16CHTO    H4 6762   4.357   2.189   1.793  2.2791 -3.8787 -0.1898
   16CHTO    O5 6763   4.611   2.099   1.756  0.6785 -0.5999 -0.4177
   16CHTO   C10 6764   4.708   2.044   1.661  0.1058  0.6230 -0.7773
   16CHTO   H23 6765   4.668   2.017   1.563  1.7472 -1.1383 -1.0027
   16CHTO   C17 6766   4.769   1.918   1.722  0.1116 -0.1567 -0.1937
   16CHTO   O12 6767   4.667   1.820   1.758 -0.1581 -0.7806  0.3178
   16CHTO    H6 6768   4.671   1.746   1.700  2.2079 -0.0943 -0.4849
   17CHTO  H203 6769   5.779   4.150   0.116 -0.4815 -0.7859  0.3087
   17CHTO   O82 6770   5.737   4.199   0.048  0.6218  0.0196  0.1882
   17CHTO  C123 6771   5.637   4.296   0.101  0.2956  0.1371  0.2993
   17CHTO  H227 6772   5.578   4.245   0.179 -0.2694  1.6715  0.8943
   17CHTO   O77 6773   5.717   4.410   0.159  0.0134 -0.1009 -0.0407
   17CHTO  C118 6774   5.642   4.519   0.206  0.6315  0.2028 -0.2346
   17CHTO  H222 6775   5.580   4.482   0.289 -0.5669 -1.4457 -1.8168
   17CHTO  C125 6776   5.744   4.620   0.269 -0.2031 -0.3751  0.2789
   17CHTO   O84 6777   5.831   4.567   0.371  0.2128  0.3875  0.4296
   17CHTO  H205 6778   5.843   4.480   0.340  0.2509  0.9200 -1.0817
   17CHTO  C114 6779   5.556   4.581   0.092  0.4377  0.0214 -0.4716
   17CHTO  H218 6780   5.625   4.611   0.014  0.8893  0.8649  0.2402
   17CHTO  C116 6781   5.459   4.471   0.028  0.5641 -0.0407  0.1781
   17CHTO  H220 6782   5.386   4.450   0.109  0.2282 -0.6916 -0.2901
   17CHTO   O79 6783   5.379   4.528  -0.074 -0.2022  0.7888  0.6130
   17CHTO  H201 6784   5.293   4.549  -0.043 -1.4366 -2.8611 -0.0672
   17CHTO  C120 6785   5.537   4.342  -0.021  0.2017  0.6315 -0.3551
   17CHTO  H224 6786   5.586   4.375  -0.114  1.0600 -2.1365 -0.9240
   17CHTO   N21 6787   5.444   4.236  -0.071 -0.3746  0.5126  0.0503
   17CHTO  H211 6788   5.508   4.175  -0.133  0.8685  0.5423  1.2797
   17CHTO  H212 6789   5.407   4.182   0.015  1.2728  1.5234  1.4220
   17CHTO   O75 6790   5.494   4.697   0.145  0.2775  0.7269 -0.3821
   17CHTO  C112 6791   5.496   4.832   0.023 -0.2675  0.2971  0.1899
   17CHTO  H216 6792   5.444   4.794  -0.066  0.8936 -0.0395 -0.3564
   17CHTO   O73 6793   5.633   4.862  -0.009 -0.2787 -0.4403  0.4959
   17CHTO  C113 6794   5.651   4.974  -0.101  0.4457  0.0485 -0.1002
   17CHTO  H217 6795   5.594   4.958  -0.194 -1.4860  0.5299  0.9743
   17CHTO  C124 6796   5.794   4.973  -0.145  0.1324 -0.1876  0.1070
   17CHTO   O83 6797   5.879   5.023  -0.040  0.7485  0.0235 -0.4730
   17CHTO  H204 6798   5.943   4.955  -0.035  1.2156  0.5562  1.0929
   17CHTO  C109 6799   5.601   5.103  -0.029 -0.4836 -0.5076  0.2072
   17CHTO  H213 6800   5.658   5.113   0.065  1.2774  1.1505 -0.9980
   17CHTO  C110 6801   5.451   5.089  -0.007  0.0760 -0.1893  0.0310
   17CHTO  H214 6802   5.395   5.072  -0.099  0.3894 -0.4120 -0.1218
   17CHTO   O78 6803   5.399   5.207   0.057 -0.5050 -0.6885  0.1648
   17CHTO  H200 6804   5.438   5.224   0.141 -1.1008 -0.6239  0.4391
   17CHTO  C111 6805   5.426   4.962   0.083 -0.1597 -0.7409  0.3220
   17CHTO  H215 6806   5.453   4.984   0.187  1.0446 -1.3015  0.1324
   17CHTO   N19 6807   5.280   4.935   0.083  0.0406 -0.8069 -0.1896
   17CHTO  H207 6808   5.243   4.881  -0.003  0.7629  0.4494 -1.3110
   17CHTO  H208 6809   5.242   4.898   0.177 -0.0086 -1.3388 -0.4161
   17CHTO   O74 6810   5.627   5.220  -0.109  0.0415  0.3578  0.2236
   17CHTO  C115 6811   5.646   5.349  -0.049 -0.4240 -0.1069  0.0509
   17CHTO  H219 6812   5.577   5.367   0.033 -2.2758 -0.0804 -1.4800
   17CHTO   O76 6813   5.795   5.360   0.021  0.8496  0.1204  0.0687
   17CHTO  C122 6814   5.905   5.386  -0.065 -0.0630 -0.1696  0.3733
   17CHTO  H226 6815   5.901   5.310  -0.143 -2.4201 -0.1886  0.4847
   17CHTO  C126 6816   6.042   5.377   0.013 -0.6808  0.0865  0.0218
   17CHTO   O85 6817   6.056   5.240   0.061 -0.0376 -0.2800 -0.3161
   17CHTO  H206 6818   6.073   5.177  -0.007 -0.6370 -0.2795 -0.4694
   17CHTO  C121 6819   5.891   5.527  -0.128 -0.1135 -0.1400  0.0824
   17CHTO  H225 6820   5.959   5.599  -0.077 -0.9178  0.0299  0.9378
   17CHTO   O81 6821   5.932   5.516  -0.266 -0.5695  0.2892 -0.2552
   17CHTO  H202 6822   5.946   5.599  -0.308 -1.5803  0.6741  0.1630
   17CHTO  C119 6823   5.739   5.578  -0.126 -0.2973  0.4124  0.0694
   17CHTO  H223 6824   5.708   5.615  -0.029  1.4263  1.7008  0.1494
   17CHTO  C117 6825   5.635   5.464  -0.165 -0.8911  0.0355 -0.1111
   17CHTO  H221 6826   5.649   5.417  -0.262 -2.7978 -2.1437  0.6271
   17CHTO   N20 6827   5.498   5.517  -0.165 -0.4953 -0.1642 -0.4743
   17CHTO  H209 6828   5.498   5.623  -0.142 -0.1296  0.0853 -1.5981
   17CHTO  H210 6829   5.457   5.505  -0.264  1.0435 -0.8343 -1.0405
   17CHTO   O80 6830   5.731   5.724  -0.221  0.1881 -0.3607  0.5154
   17CHTO  C103 6831   5.782   5.849  -0.173  0.1527 -0.2269  0.0526
   17CHTO  H190 6832   5.802   5.859  -0.066 -1.8077  0.1150  0.4108
   17CHTO  C101 6833   5.915   5.903  -0.251 -0.1048  0.8988  0.4327
   17CHTO  H188 6834   5.903   5.884  -0.357 -0.7196 -0.1946  0.6929
   17CHTO   O68 6835   6.036   5.807  -0.195  0.0538 -0.0320  0.4624
   17CHTO  H168 6836   6.008   5.718  -0.200  1.4205 -0.7080  3.5127
   17CHTO   C99 6837   5.943   6.063  -0.224 -0.3458  0.3438  0.0381
   17CHTO  H186 6838   5.967   6.081  -0.117  0.6227 -1.0718  0.0809
   17CHTO   N17 6839   6.053   6.116  -0.311  0.8413 -0.3675  0.0863
   17CHTO  H174 6840   6.108   6.038  -0.362  2.1456  1.2796 -1.0885
   17CHTO  H175 6841   6.119   6.180  -0.256 -0.5501 -0.4198  1.8441
   17CHTO   C97 6842   5.813   6.144  -0.250 -0.1947 -0.3536  0.0156
   17CHTO  H184 6843   5.792   6.155  -0.358  0.2589  2.5780  0.1877
   17CHTO   O64 6844   5.702   6.086  -0.181  0.0136 -0.6864  0.0640
   17CHTO  C104 6845   5.667   5.947  -0.203  0.3015  0.0564 -0.5260
   17CHTO  H191 6846   5.638   5.928  -0.307 -2.5391  1.0931  0.0295
   17CHTO  C108 6847   5.539   5.911  -0.125 -0.0850  0.3575  0.0035
   17CHTO   O71 6848   5.438   6.008  -0.155 -0.7844  0.1628  0.4675
   17CHTO  H171 6849   5.406   5.989  -0.241 -1.5525 -1.0628  1.0074
   17CHTO   O62 6850   5.820   6.279  -0.195 -0.8173 -0.1615 -0.5905
   17CHTO   C91 6851   5.734   6.383  -0.237  0.0941 -0.1472 -0.1516
   17CHTO  H178 6852   5.652   6.338  -0.294  0.0796 -1.1914  0.6711
   17CHTO   C92 6853   5.814   6.473  -0.334  0.4575  0.0457 -0.1522
   17CHTO  H179 6854   5.868   6.404  -0.401 -0.4815  0.1126 -0.9925
   17CHTO   O66 6855   5.722   6.553  -0.404  0.0979  0.2515  0.4517
   17CHTO  H166 6856   5.758   6.576  -0.488  1.3460  1.8269  1.3767
   17CHTO   C93 6857   5.909   6.569  -0.251  0.0391 -0.2360 -0.4368
   17CHTO  H180 6858   5.927   6.655  -0.317  0.6900 -0.8441 -1.0598
   17CHTO   N16 6859   6.046   6.516  -0.221 -0.0636 -0.3229  0.1677
   17CHTO  H172 6860   6.045   6.416  -0.179 -2.9332 -0.9982 -1.3829
   17CHTO  H173 6861   6.119   6.546  -0.294 -1.1218  2.8248  0.3260
   17CHTO   C94 6862   5.840   6.620  -0.118  0.2036 -0.2602 -0.0934
   17CHTO  H181 6863   5.869   6.559  -0.032 -0.1676 -1.0103 -0.4882
   17CHTO   O61 6864   5.695   6.605  -0.127  0.5855  0.1867  0.1094
   17CHTO   C95 6865   5.656   6.464  -0.122  0.1733  0.3540 -0.3721
   17CHTO  H182 6866   5.691   6.425  -0.026 -0.3464 -0.9748 -0.7141
   17CHTO  C106 6867   5.499   6.452  -0.135 -0.4970 -0.5644  0.3533
   17CHTO   O69 6868   5.426   6.529  -0.037  0.1546 -0.2642  0.1627
   17CHTO  H169 6869   5.460   6.616  -0.030  2.8011 -1.3622  1.6914
   17CHTO   O63 6870   5.862   6.755  -0.099  0.2145  0.0921  0.3269
   17CHTO   C96 6871   5.832   6.824   0.038  0.2883  0.1042 -0.0298
   17CHTO  H183 6872   5.837   6.758   0.125 -3.1706  1.9243  1.6980
   17CHTO   C98 6873   5.699   6.896   0.048 -0.4038  0.4888  0.0597
   17CHTO  H185 6874   5.667   6.933  -0.050  0.8136  0.9314 -0.1824
   17CHTO   O67 6875   5.606   6.788   0.076 -0.6664 -0.5938 -0.2701
   17CHTO  H167 6876   5.538   6.774   0.013 -1.5133  1.7731  0.0904
   17CHTO  C102 6877   5.678   7.006   0.166 -1.1008  0.2296 -0.2436
   17CHTO  H189 6878   5.662   6.946   0.257  2.7129 -0.8737 -0.2214
   17CHTO   N18 6879   5.554   7.090   0.155 -0.2710 -0.6968  0.1114
   17CHTO  H176 6880   5.477   7.017   0.140 -1.7744  0.5836  1.5017
   17CHTO  H177 6881   5.563   7.159   0.072 -0.7814 -0.7673  0.0025
   17CHTO  C105 6882   5.807   7.092   0.189 -0.4664 -0.3491  0.1851
   17CHTO  H192 6883   5.805   7.176   0.120 -1.9700 -0.7591 -0.2803
   17CHTO   O65 6884   5.932   7.030   0.161 -0.5525  0.2262  0.3493
   17CHTO  C100 6885   5.946   6.932   0.049 -0.5822 -0.1719 -0.3052
   17CHTO  H187 6886   5.940   6.996  -0.040 -1.0146  2.3458  1.4859
   17CHTO  C107 6887   6.085   6.866   0.065 -0.1469 -0.2407  0.2550
   17CHTO   O70 6888   6.117   6.797  -0.049 -0.7004  0.1987  0.2384
   17CHTO  H170 6889   6.203   6.762  -0.033 -0.3496  0.9096 -0.1281
   17CHTO   O57 6890   5.793   7.144   0.348 -0.5377  0.4694  0.7117
   17CHTO   C85 6891   5.801   7.288   0.374 -0.7452  0.4315  0.1764
   17CHTO  H157 6892   5.784   7.337   0.276  1.6870  3.7768  1.3424
   17CHTO   C83 6893   5.947   7.330   0.418  0.1347  0.2219 -0.0807
   17CHTO  H155 6894   6.011   7.320   0.331  1.7843 -0.9198  1.2408
   17CHTO   O56 6895   5.998   7.237   0.521  0.0781 -0.2610  0.2794
   17CHTO  H135 6896   6.057   7.176   0.481  0.1662  1.1908 -1.8551
   17CHTO   C81 6897   5.942   7.475   0.465 -0.3529  0.5270  0.6839
   17CHTO  H153 6898   5.910   7.535   0.380  0.7596  0.2067  0.0338
   17CHTO   N14 6899   6.076   7.536   0.494  0.2303  0.1035 -0.0981
   17CHTO  H141 6900   6.138   7.454   0.526  0.5020 -0.5250 -2.1945
   17CHTO  H142 6901   6.071   7.610   0.571 -0.5063 -1.9060  1.8507
   17CHTO   C79 6902   5.840   7.504   0.584 -0.8217  0.2801  0.1200
   17CHTO  H151 6903   5.831   7.612   0.593 -0.4749  0.2582  0.7289
   17CHTO   O52 6904   5.705   7.459   0.543  0.4824  0.2281 -0.3766
   17CHTO   C86 6905   5.693   7.331   0.482 -0.0225  0.3538  0.0119
   17CHTO  H158 6906   5.685   7.253   0.561 -1.1473  1.2588  0.8035
   17CHTO   C90 6907   5.555   7.336   0.428  0.1421 -0.1868 -0.0648
   17CHTO   O60 6908   5.537   7.411   0.309  0.2625  0.0638 -0.3577
   17CHTO  H138 6909   5.608   7.385   0.253  0.5233 -2.0362  0.8658
   17CHTO   O50 6910   5.869   7.427   0.705  0.3961 -0.3390 -0.2740
   17CHTO   C73 6911   5.854   7.420   0.844 -0.7280 -0.4784 -0.1547
   17CHTO  H145 6912   5.831   7.517   0.891  1.0095  0.8018 -1.8515
   17CHTO   C74 6913   5.984   7.395   0.919 -1.0379 -0.2424  0.1436
   17CHTO  H146 6914   6.057   7.473   0.893 -0.5850 -0.7018  0.0327
   17CHTO   O54 6915   5.955   7.410   1.058  0.1537  0.1805 -0.3258
   17CHTO  H133 6916   5.914   7.333   1.092 -2.3178  1.0548 -1.2022
   17CHTO   C75 6917   6.035   7.248   0.885 -0.1303 -0.0545  0.0765
   17CHTO  H147 6918   6.061   7.241   0.778  0.7180  0.0894  0.2671
   17CHTO   N13 6919   6.151   7.200   0.947 -0.2690  0.4475  0.0848
   17CHTO  H139 6920   6.173   7.114   0.884  1.0963  1.7441 -1.2492
   17CHTO  H140 6921   6.131   7.162   1.046  1.0135  1.0726  0.6021
   17CHTO   C76 6922   5.912   7.144   0.907  0.7990  0.0937  0.2456
   17CHTO  H148 6923   5.895   7.134   1.014  1.1244 -1.6471  0.1462
   17CHTO   O49 6924   5.778   7.180   0.843 -0.5354 -0.3268 -0.3014
   17CHTO   C77 6925   5.743   7.309   0.880  0.0308 -0.2340  0.6606
   17CHTO  H149 6926   5.724   7.319   0.987  2.5104  2.5254  0.9057
   17CHTO   C88 6927   5.606   7.340   0.826  0.5493  0.5617 -0.0452
   17CHTO   O58 6928   5.556   7.476   0.868 -0.4573 -0.9391  0.3143
   17CHTO  H136 6929   5.482   7.460   0.923  0.0756  0.3667  1.4397
   17CHTO   O51 6930   5.967   7.008   0.841 -0.0023 -0.2279  0.0087
   17CHTO   C78 6931   5.861   6.893   0.838  0.2286 -0.4329  0.2328
   17CHTO  H150 6932   5.759   6.936   0.849  0.6203  0.2241  1.3705
   17CHTO   C80 6933   5.889   6.788   0.945 -0.0541  0.0445  0.5960
   17CHTO  H152 6934   5.996   6.757   0.939  0.3775  1.7485 -1.1364
   17CHTO   O55 6935   5.853   6.849   1.069 -0.4105 -0.1534 -0.6017
   17CHTO  H134 6936   5.776   6.902   1.063  0.7090  1.4837 -0.7456
   17CHTO   C84 6937   5.816   6.651   0.920 -0.5929 -0.1903 -1.0321
   17CHTO  H156 6938   5.715   6.688   0.938 -0.3468  1.6729 -3.2571
   17CHTO   N15 6939   5.860   6.544   1.016  0.3306 -0.1309 -0.1446
   17CHTO  H143 6940   5.801   6.456   1.003 -0.0291  0.4133 -2.2715
   17CHTO  H144 6941   5.847   6.576   1.118  1.7539 -1.7478  0.5813
   17CHTO   C87 6942   5.834   6.609   0.774 -0.7359  0.8424  0.1774
   17CHTO  H159 6943   5.936   6.580   0.749 -1.6519 -0.6251 -1.9546
   17CHTO   O53 6944   5.789   6.722   0.688  0.2121  0.2607 -0.1066
   17CHTO   C82 6945   5.876   6.829   0.694  0.5856 -0.0285  0.0344
   17CHTO  H154 6946   5.975   6.789   0.674  0.3974  0.0451 -1.1099
   17CHTO   C89 6947   5.848   6.932   0.581  0.4887 -1.1244  0.3192
   17CHTO   O59 6948   5.710   6.978   0.571 -0.7323 -0.1473  0.0878
   17CHTO  H137 6949   5.671   6.943   0.493 -0.0958  1.5406 -1.0108
   17CHTO   O45 6950   5.748   6.469   0.740  0.2021 -0.0794 -0.4730
   17CHTO   C67 6951   5.613   6.450   0.786 -0.0853 -0.0946  0.6388
   17CHTO  H124 6952   5.613   6.477   0.892  1.6525  0.2236  0.5756
   17CHTO   C65 6953   5.508   6.545   0.705  0.2714  0.8087 -0.0179
   17CHTO  H122 6954   5.564   6.611   0.639  1.5314  1.2817  1.4771
   17CHTO   O44 6955   5.438   6.621   0.811  0.1629 -0.2053  0.0141
   17CHTO  H102 6956   5.503   6.652   0.870 -0.9113 -1.1221  1.7112
   17CHTO   C63 6957   5.412   6.464   0.609 -0.0569  0.3469 -0.1240
   17CHTO  H120 6958   5.477   6.409   0.541  2.6683  1.9326  1.1101
   17CHTO   N11 6959   5.314   6.529   0.519 -0.2953  0.3178  0.1951
   17CHTO  H108 6960   5.309   6.635   0.521 -2.7031  0.3343 -2.4238
   17CHTO  H109 6961   5.263   6.470   0.445  0.3105  0.8267 -0.6445
   17CHTO   C61 6962   5.349   6.343   0.699  0.4980 -0.4199  0.4361
   17CHTO  H118 6963   5.313   6.274   0.621  0.4301 -0.3068  0.3684
   17CHTO   O40 6964   5.442   6.268   0.781 -0.0345 -0.1742 -0.0682
   17CHTO   C68 6965   5.582   6.301   0.776  0.0605 -1.1303  0.1446
   17CHTO  H125 6966   5.629   6.270   0.680  0.4748 -1.8542  0.5763
   17CHTO   C72 6967   5.646   6.219   0.895 -0.1597  0.1982 -0.0781
   17CHTO   O48 6968   5.782   6.185   0.875 -0.3455  0.0510 -0.0521
   17CHTO  H105 6969   5.795   6.093   0.872  2.5705  0.3293  2.0314
   17CHTO   O38 6970   5.240   6.392   0.781 -0.0628 -0.0551  0.2788
   17CHTO   C55 6971   5.156   6.303   0.856  0.2747 -0.9913 -0.5141
   17CHTO  H112 6972   5.210   6.237   0.926 -1.2967 -1.2787  0.4381
   17CHTO   C56 6973   5.064   6.225   0.764  0.4723 -0.6247 -0.1145
   17CHTO  H113 6974   5.011   6.291   0.694  1.2884  1.9725  1.6363
   17CHTO   O42 6975   5.147   6.137   0.694 -1.1192  0.2695  0.2168
   17CHTO  H100 6976   5.202   6.082   0.746  0.1944  0.8364 -0.5344
   17CHTO   C57 6977   4.957   6.145   0.847  0.2097 -0.1282 -0.1383
   17CHTO  H114 6978   5.010   6.071   0.907 -0.0332  0.4443  0.8011
   17CHTO   N10 6979   4.856   6.082   0.764  0.1173  0.0943 -0.1403
   17CHTO  H106 6980   4.770   6.053   0.821  0.2106  0.0375 -0.0268
   17CHTO  H107 6981   4.878   5.997   0.701 -1.5726  0.1235 -0.7972
   17CHTO   C58 6982   4.894   6.247   0.947  0.9630 -0.0362 -0.7210
   17CHTO  H115 6983   4.844   6.331   0.894  2.0851  1.1807  0.1178
   17CHTO   O37 6984   4.997   6.301   1.038  0.2658  0.0762  0.2019
   17CHTO   C59 6985   5.074   6.392   0.956 -0.6399  0.5122  0.4905
   17CHTO  H116 6986   5.013   6.454   0.890 -0.5738  1.3116  1.1757
   17CHTO   C70 6987   5.171   6.477   1.044 -0.1137 -0.0192 -0.2991
   17CHTO   O46 6988   5.116   6.533   1.165  0.2260  0.5945 -0.0941
   17CHTO  H103 6989   5.077   6.467   1.219  1.9587  1.3202  2.1450
   17CHTO   O39 6990   4.778   6.178   1.046  0.1720 -0.3465  0.0400
   17CHTO   C60 6991   4.676   6.269   1.089  0.6998 -0.5928  0.2791
   17CHTO  H117 6992   4.714   6.371   1.087  1.3164 -0.8407 -1.3662
   17CHTO   C62 6993   4.559   6.264   0.990 -0.2598  0.0650  0.2421
   17CHTO  H119 6994   4.616   6.299   0.902 -1.5129 -0.2177 -0.6952
   17CHTO   O43 6995   4.512   6.131   0.977  1.1264 -0.3163  0.1707
   17CHTO  H101 6996   4.583   6.075   0.949  1.9710  1.6609 -1.7288
   17CHTO   C66 6997   4.458   6.377   1.031 -0.0461 -0.1134  0.5249
   17CHTO  H123 6998   4.500   6.477   1.025  0.2879 -0.3418 -1.8758
   17CHTO   N12 6999   4.344   6.384   0.932 -0.1263 -0.2684  0.1484
   17CHTO  H110 7000   4.304   6.284   0.923 -2.9667  0.7431  1.1234
   17CHTO  H111 7001   4.266   6.456   0.953 -0.0080 -0.1365  0.1329
   17CHTO   C69 7002   4.395   6.336   1.169  0.1608 -0.5813 -0.1482
   17CHTO  H126 7003   4.355   6.234   1.154 -1.3147  0.0351 -0.4849
   17CHTO   O41 7004   4.502   6.333   1.277  0.1527  0.4101  0.3531
   17CHTO   C64 7005   4.625   6.238   1.237  0.5505  0.1101  0.6310
   17CHTO  H121 7006   4.600   6.132   1.260  0.1947  0.3725  1.4699
   17CHTO   C71 7007   4.735   6.276   1.338  0.5427 -0.6182 -0.4088
   17CHTO   O47 7008   4.697   6.291   1.478  0.6703 -0.7089  0.2715
   17CHTO  H104 7009   4.608   6.321   1.482  0.7578 -0.3258 -0.5178
   17CHTO   O34 7010   4.272   6.425   1.220  0.2371  0.5467  0.7843
   17CHTO   C49 7011   4.167   6.521   1.245 -0.8390 -0.5683 -0.0370
   17CHTO   H91 7012   4.214   6.618   1.262  0.9289 -1.3938 -0.1401
   17CHTO   C47 7013   4.088   6.494   1.375  0.2360  0.2128 -0.3018
   17CHTO   H89 7014   4.010   6.572   1.386  0.6046  0.9241 -2.4595
   17CHTO   O33 7015   4.164   6.477   1.494  0.0640  0.1504  0.4665
   17CHTO   H70 7016   4.160   6.551   1.551 -2.2655  0.9363 -0.6435
   17CHTO   C45 7017   4.010   6.344   1.354 -0.0295 -0.9308 -0.5634
   17CHTO   H87 7018   4.082   6.263   1.374  2.6180  1.7750  1.4422
   17CHTO    N8 7019   3.905   6.335   1.455  0.2009  0.3896 -0.4742
   17CHTO   H75 7020   3.864   6.236   1.454 -1.1058  0.9232  0.1459
   17CHTO   H76 7021   3.824   6.406   1.446 -0.1303  0.1254  0.3349
   17CHTO   C43 7022   3.960   6.330   1.204  0.0740  0.3917 -0.8890
   17CHTO   H85 7023   4.040   6.279   1.150 -1.0573 -0.4912 -1.7485
   17CHTO   O29 7024   3.935   6.457   1.148 -0.0419  0.1525  0.1693
   17CHTO   C50 7025   4.058   6.525   1.123 -0.4365 -0.4739 -0.4313
   17CHTO   H92 7026   4.097   6.469   1.037 -1.5252 -2.5723  0.4021
   17CHTO   C54 7027   4.030   6.671   1.075 -0.1081 -0.3351  0.1615
   17CHTO   O36 7028   4.143   6.754   1.050 -0.4695 -0.2624 -0.4423
   17CHTO   H72 7029   4.112   6.841   1.064  3.0257  1.2012 -1.1721
   17CHTO   O27 7030   3.841   6.251   1.183  0.3560 -0.4598  0.1266
   17CHTO   C37 7031   3.824   6.142   1.091  0.5273 -0.0216 -0.0557
   17CHTO   H79 7032   3.717   6.116   1.095  0.7510 -0.7681  1.2729
   17CHTO   C38 7033   3.863   6.184   0.943  0.1687 -0.0305 -0.2848
   17CHTO   H80 7034   3.968   6.218   0.948 -0.0974  0.8362 -0.4939
   17CHTO   O31 7035   3.783   6.294   0.902  0.2701 -0.1902 -0.6749
   17CHTO   H68 7036   3.692   6.273   0.891  0.3915 -1.2867  0.2632
   17CHTO   C39 7037   3.846   6.059   0.852 -0.5188  0.6844 -0.0240
   17CHTO   H81 7038   3.743   6.024   0.854 -0.3292  0.0707 -0.7539
   17CHTO    N7 7039   3.886   6.085   0.709 -0.6071  0.3881  0.3413
   17CHTO   H73 7040   3.801   6.093   0.643 -1.3576 -1.7947  1.0188
   17CHTO   H74 7041   3.953   6.170   0.700  1.3374 -1.2909 -1.7138
   17CHTO   C40 7042   3.932   5.936   0.909  0.5672  0.8263  0.0682
   17CHTO   H82 7043   4.038   5.954   0.893  0.3501  3.3546  1.1965
   17CHTO   O26 7044   3.903   5.912   1.048  0.2224 -0.1621  0.0131
   17CHTO   C41 7045   3.906   6.022   1.141  0.1271 -0.6531 -0.7946
   17CHTO   H83 7046   4.011   6.053   1.149 -0.3775  0.8918 -0.1686
   17CHTO   C52 7047   3.844   5.973   1.272 -0.3727  0.2582 -0.5110
   17CHTO   O35 7048   3.721   5.911   1.269 -0.3058 -0.0493  0.2376
   17CHTO   H71 7049   3.653   5.971   1.246 -0.6269 -1.0796 -1.6492
   17CHTO   O28 7050   3.884   5.810   0.855 -0.4022  0.0279  0.2275
   17CHTO   C42 7051   3.987   5.701   0.840 -0.1599  0.3453  0.0840
   17CHTO   H84 7052   3.922   5.620   0.806 -1.1159  1.0953  0.1119
   17CHTO   C44 7053   4.059   5.647   0.969  0.2488 -0.1866 -0.4298
   17CHTO   H86 7054   4.093   5.736   1.021 -1.7570 -0.2331  1.0541
   17CHTO   O32 7055   3.949   5.595   1.050 -0.3556  0.2470 -0.2606
   17CHTO   H69 7056   3.952   5.647   1.128 -0.1501  0.9944 -0.7586
   17CHTO   C48 7057   4.176   5.546   0.957 -0.9006  0.0829  0.6768
   17CHTO   H90 7058   4.124   5.454   0.931 -0.2646  0.1032 -0.7162
   17CHTO    N9 7059   4.257   5.516   1.087  0.3902 -0.3069  0.2481
   17CHTO   H77 7060   4.196   5.481   1.170  1.7925 -1.5881  0.7486
   17CHTO   H78 7061   4.345   5.456   1.072  0.1694 -1.1879  2.3182
   17CHTO   C51 7062   4.264   5.593   0.841 -0.5014 -0.5574  0.3755
   17CHTO   H93 7063   4.307   5.689   0.871 -0.1769 -0.3781 -0.6580
   17CHTO   O30 7064   4.188   5.605   0.723  0.3525 -0.2678  0.0985
   17CHTO   C46 7065   4.091   5.723   0.735  0.0981 -0.4169  0.2378
   17CHTO   H88 7066   4.144   5.814   0.761 -1.0648  0.0219  1.0828
   17CHTO   C53 7067   4.023   5.755   0.595 -0.8045  0.2807 -1.0200
   17CHTO   O72 7068   4.103   5.843   0.512  0.2561 -0.2911 -0.0876
   17CHTO  H199 7069   4.049   5.875   0.442 -0.7275 -0.8253  0.4228
   17CHTO   O22 7070   4.375   5.503   0.802  0.4649  0.3071 -0.0563
   17CHTO   C31 7071   4.468   5.533   0.694  0.0320  0.1347 -0.2943
   17CHTO   H59 7072   4.557   5.473   0.718 -1.1375 -0.9185  1.4987
   17CHTO   C29 7073   4.411   5.481   0.550 -0.1943 -0.1515  0.2770
   17CHTO   H57 7074   4.304   5.504   0.546 -0.5935 -1.4804  2.5407
   17CHTO   O21 7075   4.421   5.338   0.534 -0.2520 -0.5424 -0.2271
   17CHTO   H37 7076   4.392   5.312   0.448  0.0790 -0.6983 -0.2917
   17CHTO   C27 7077   4.477   5.543   0.420  0.7689  0.7790 -0.6608
   17CHTO   H55 7078   4.577   5.500   0.402 -0.2067 -2.1593  0.6733
   17CHTO    N5 7079   4.400   5.531   0.294 -0.1197 -0.2001 -0.5805
   17CHTO   H43 7080   4.457   5.502   0.208 -1.3469  0.5832 -1.6885
   17CHTO   H44 7081   4.322   5.457   0.303  0.7822 -1.0707  0.1712
   17CHTO   C25 7082   4.498   5.694   0.441  0.0354  0.2381  0.5813
   17CHTO   H53 7083   4.400   5.742   0.456 -0.8392 -1.3934  0.2644
   17CHTO   O17 7084   4.576   5.706   0.564 -0.6702  0.3246 -0.6083
   17CHTO   C32 7085   4.507   5.685   0.685  0.2608 -0.0118  0.2768
   17CHTO   H60 7086   4.420   5.750   0.681  0.4994  0.4956  2.3747
   17CHTO   C36 7087   4.601   5.740   0.795 -0.0729 -0.0532  0.1615
   17CHTO   O25 7088   4.546   5.746   0.927 -0.0173  0.5669 -0.5031
   17CHTO   H40 7089   4.532   5.658   0.956  2.4168  0.9277  1.9665
   17CHTO   O15 7090   4.592   5.778   0.317 -0.0770  0.1726 -0.3596
   17CHTO   C19 7091   4.613   5.926   0.318  0.4347  0.3762  0.1662
   17CHTO   H47 7092   4.629   5.945   0.211 -0.7835 -0.4805 -0.1822
   17CHTO   C20 7093   4.492   6.006   0.374  0.3866 -0.2576 -0.1165
   17CHTO   H48 7094   4.454   5.960   0.467 -0.7992 -1.4347 -1.1612
   17CHTO   O19 7095   4.391   5.977   0.275  0.1676 -0.0301  0.3022
   17CHTO   H35 7096   4.355   5.891   0.286 -0.7390  0.0490 -1.7434
   17CHTO   C21 7097   4.513   6.160   0.377  0.5896 -0.1972  0.0531
   17CHTO   H49 7098   4.518   6.198   0.275 -2.2606 -0.3820 -0.2081
   17CHTO    N4 7099   4.401   6.235   0.439  0.0988 -0.5296 -0.7152
   17CHTO   H41 7100   4.421   6.337   0.411 -2.0134 -0.1639 -0.9715
   17CHTO   H42 7101   4.308   6.204   0.394 -1.9034  2.8201  0.8843
   17CHTO   C22 7102   4.653   6.176   0.448 -0.4220  0.2681  0.5103
   17CHTO   H50 7103   4.645   6.164   0.556 -2.6725  0.3588  0.3890
   17CHTO   O14 7104   4.754   6.098   0.379  0.1701 -0.9727  0.4498
   17CHTO   C23 7105   4.740   5.959   0.387  0.1005  0.1899  0.3455
   17CHTO   H51 7106   4.734   5.935   0.494  1.3851  0.4839  0.4853
   17CHTO   C34 7107   4.864   5.890   0.329 -0.3189 -0.1058  0.1669
   17CHTO   O23 7108   4.871   5.750   0.351  0.8747  0.0224 -0.0112
   17CHTO   H38 7109   4.900   5.740   0.440  1.2139  0.0120 -0.1237
   17CHTO   O16 7110   4.702   6.315   0.420  0.0900  0.9248  0.2784
   17CHTO   C24 7111   4.782   6.393   0.527 -0.4611 -0.2731 -0.1585
   17CHTO   H52 7112   4.809   6.335   0.616 -2.0319  0.6620  0.9520
   17CHTO   C26 7113   4.688   6.498   0.583 -0.5408  0.6747  0.3870
   17CHTO   H54 7114   4.636   6.551   0.501  1.0777  2.7493  0.6621
   17CHTO   O20 7115   4.592   6.418   0.656  0.4460  0.4355  0.1212
   17CHTO   H36 7116   4.511   6.440   0.613  1.9800  1.1438 -2.4822
   17CHTO   C30 7117   4.765   6.604   0.669  0.3171  0.9094  0.5219
   17CHTO   H58 7118   4.795   6.557   0.764 -0.3420 -0.4467  0.0579
   17CHTO    N6 7119   4.675   6.712   0.717 -0.1916  0.3313  0.0710
   17CHTO   H45 7120   4.712   6.765   0.804  0.1192 -1.6347  1.1631
   17CHTO   H46 7121   4.656   6.779   0.635 -0.5283 -0.0295 -0.1486
   17CHTO   C33 7122   4.892   6.657   0.597  0.1113  0.5212  0.0967
   17CHTO   H61 7123   4.861   6.704   0.503 -0.4590 -0.3018 -0.1338
   17CHTO   O18 7124   4.974   6.538   0.563 -0.3979 -0.0821 -0.1196
   17CHTO   C28 7125   4.914   6.448   0.466  0.4328 -0.3837 -1.0374
   17CHTO   H56 7126   4.885   6.509   0.380 -0.1470  1.2639  0.3010
   17CHTO   C35 7127   5.002   6.329   0.422  0.2372 -0.0435 -0.0048
   17CHTO   O24 7128   5.112   6.373   0.341 -0.7295 -0.2244 -0.0567
   17CHTO   H39 7129   5.139   6.456   0.375  0.0067 -0.4064 -0.2009
   17CHTO    O9 7130   4.962   6.755   0.668  0.2911 -0.1807 -0.0223
   17CHTO   C13 7131   5.060   6.836   0.577  0.5778 -0.1318  0.1405
   17CHTO   H26 7132   5.098   6.774   0.493  1.7775  0.5976  0.1317
   17CHTO   C11 7133   5.184   6.899   0.659  0.6145  0.5873  0.4078
   17CHTO   H24 7134   5.242   6.809   0.683 -2.7082 -1.6656  0.3686
   17CHTO    O8 7135   5.127   6.961   0.779  0.0430  1.3674 -0.2015
   17CHTO    H3 7136   5.193   6.984   0.841  0.6395  0.6148 -0.5456
   17CHTO    C9 7137   5.271   6.997   0.575 -0.2527 -0.8874  0.1824
   17CHTO   H22 7138   5.297   6.939   0.485  1.3294 -0.8266  0.5937
   17CHTO    N2 7139   5.402   7.029   0.636  0.6915 -0.3175 -0.6138
   17CHTO   H10 7140   5.425   7.134   0.620 -0.2456 -0.0875 -0.4910
   17CHTO   H11 7141   5.386   7.013   0.742 -0.2234  0.8618 -0.5499
   17CHTO    C7 7142   5.175   7.111   0.529 -0.2663  0.5196  0.3882
   17CHTO   H20 7143   5.238   7.164   0.454 -0.0835  0.7644  0.7144
   17CHTO    O4 7144   5.066   7.065   0.457 -0.0311 -0.4963 -0.0924
   17CHTO   C14 7145   4.990   6.954   0.497  0.3939  0.1750  0.0928
   17CHTO   H27 7146   4.943   6.908   0.407  0.0488  0.9875 -0.1491
   17CHTO   C18 7147   4.869   7.000   0.576 -0.8094  0.2248  0.0871
   17CHTO   O13 7148   4.776   7.079   0.511  0.0267 -0.0839 -0.1323
   17CHTO    H7 7149   4.719   7.127   0.569  1.3689 -2.5405  3.3908
   17CHTO    O2 7150   5.136   7.208   0.656 -0.1898 -0.8067 -0.1652
   17CHTO    C1 7151   5.096   7.342   0.638  0.5377  0.8570 -0.0844
   17CHTO   H14 7152   5.021   7.337   0.556 -1.3287 -0.5109  1.6296
   17CHTO    C2 7153   5.216   7.448   0.593  0.3147  0.0720  0.4793
   17CHTO   H15 7154   5.304   7.423   0.655  0.0458 -1.4726  0.2652
   17CHTO    O6 7155   5.245   7.415   0.453  0.3341 -0.4673  0.1479
   17CHTO    H1 7156   5.215   7.331   0.424  1.5822 -0.8176 -0.1463
   17CHTO    C3 7157   5.175   7.603   0.601  0.3986 -0.0116 -0.1689
   17CHTO   H16 7158   5.106   7.626   0.518 -0.1123  4.3797  1.3335
   17CHTO    N1 7159   5.296   7.684   0.592  0.3031 -0.1939  0.0033
   17CHTO    H8 7160   5.323   7.718   0.690  0.8326  0.1464 -0.2601
   17CHTO    H9 7161   5.275   7.767   0.525 -1.4966 -1.1882 -0.6940
   17CHTO    C4 7162   5.087   7.627   0.730 -0.2559 -0.5220 -0.1093
   17CHTO   H17 7163   5.151   7.624   0.817  0.4848 -0.0354 -0.6303
   17CHTO    O1 7164   4.981   7.533   0.735  0.0588  0.0907 -0.6755
   17CHTO    C5 7165   5.020   7.393   0.758  0.0147 -1.0957  0.1554
   17CHTO   H18 7166   5.097   7.386   0.835  0.7295  0.8222 -0.3402
   17CHTO   C16 7167   4.900   7.310   0.789  0.4232 -0.8352 -0.0319
   17CHTO   O11 7168   4.845   7.336   0.916  0.0784  0.0804 -0.4575
   17CHTO    H5 7169   4.871   7.257   0.958 -0.2010 -1.3234 -2.8726
   17CHTO    O3 7170   5.015   7.753   0.720 -0.3006  0.2826  0.2619
   17CHTO    C6 7171   4.981   7.833   0.832 -0.1249 -0.3779 -0.3316
   17CHTO   H19 7172   4.895   7.892   0.802  1.6340  1.8163 -1.1475
   17CHTO    C8 7173   4.948   7.746   0.961 -0.6301 -0.0347 -0.0537
   17CHTO   H21 7174   5.034   7.683   0.982 -1.1740 -0.8149 -0.1542
   17CHTO    O7 7175   4.830   7.677   0.930  0.1417  0.3857 -0.2102
   17CHTO    H2 7176   4.805   7.672   0.840  0.3307 -0.2303 -0.2299
   17CHTO   C12 7177   4.925   7.853   1.074 -0.5087  0.7892 -0.2700
   17CHTO   H25 7178   4.832   7.908   1.049 -1.6055  0.2102  2.4647
   17CHTO    N3 7179   4.891   7.783   1.207  0.4923  0.3239  0.3099
   17CHTO   H12 7180   4.886   7.866   1.275  1.7903  0.2680  0.4869
   17CHTO   H13 7181   4.968   7.714   1.239 -0.5928 -0.3365  1.5257
   17CHTO   C15 7182   5.039   7.965   1.086 -0.3414 -0.4336 -0.6396
   17CHTO   H28 7183   5.131   7.918   1.121  0.6629  0.7728 -1.6110
   17CHTO   O10 7184   5.004   8.085   1.173  0.5443  0.0952  0.4092
   17CHTO    H4 7185   4.935   8.073   1.236  0.9445 -1.5742  0.5724
   17CHTO    O5 7186   5.058   8.025   0.958 -0.1049  0.2615  0.2461
   17CHTO   C10 7187   5.095   7.933   0.855 -0.1983 -0.1041 -0.5066
   17CHTO   H23 7188   5.184   7.891   0.901 -0.0353  0.6851 -0.0993
   17CHTO   C17 7189   5.141   8.018   0.737  0.3406  0.2613 -0.8572
   17CHTO   O12 7190   5.024   8.078   0.683 -0.1423  0.2330 -0.7844
   17CHTO    H6 7191   5.044   8.144   0.619 -0.2487  2.0300  0.9713
   18CHTO  H203 7192   6.515   7.772   1.645 -0.4710 -0.9274  0.8475
   18CHTO   O82 7193   6.432   7.813   1.635  0.0328 -0.2635 -0.6598
   18CHTO  C123 7194   6.390   7.811   1.497  0.3433 -0.1437 -0.1571
   18CHTO  H227 7195   6.292   7.860   1.487 -0.3805 -1.3735  0.7447
   18CHTO   O77 7196   6.495   7.883   1.414  0.0850  0.7525 -0.6499
   18CHTO  C118 7197   6.442   7.906   1.285  0.2849 -0.3569  0.2860
   18CHTO  H222 7198   6.338   7.939   1.275  0.4741  0.1249 -0.0727
   18CHTO  C125 7199   6.527   8.025   1.227 -0.0138  0.6534  0.0419
   18CHTO   O84 7200   6.473   8.070   1.104  0.4060  0.3981  0.6501
   18CHTO  H205 7201   6.520   8.022   1.038 -0.1032 -0.8046  1.1510
   18CHTO  C114 7202   6.454   7.770   1.216 -0.6949 -0.5551 -0.1734
   18CHTO  H218 7203   6.557   7.735   1.225 -0.6018 -0.1677  0.2363
   18CHTO  C116 7204   6.363   7.663   1.285 -0.0322  0.3202  1.1205
   18CHTO  H220 7205   6.259   7.690   1.259  0.9087  1.3556 -1.6877
   18CHTO   O79 7206   6.389   7.538   1.223  0.1726 -0.0071  0.2295
   18CHTO  H201 7207   6.481   7.521   1.217  0.3267  0.4428  1.3390
   18CHTO  C120 7208   6.376   7.661   1.445 -0.5896  0.7647  0.1691
   18CHTO  H224 7209   6.467   7.601   1.466 -1.9910 -1.7763 -0.7784
   18CHTO   N21 7210   6.263   7.592   1.512 -0.2690 -0.0839 -0.4751
   18CHTO  H211 7211   6.176   7.594   1.448  0.2802 -2.0977 -1.3348
   18CHTO  H212 7212   6.291   7.489   1.528 -0.1811 -0.0696 -0.5354
   18CHTO   O75 7213   6.427   7.796   1.076  0.1979 -0.7260  0.2856
   18CHTO  C112 7214   6.530   7.747   0.981  0.6686  0.4270 -0.3109
   18CHTO  H216 7215   6.574   7.657   1.027 -0.6431 -0.7133 -1.2211
   18CHTO   O73 7216   6.627   7.854   0.970  0.7166  0.6274  0.0479
   18CHTO  C113 7217   6.737   7.822   0.886  0.8060 -0.0650  0.0428
   18CHTO  H217 7218   6.780   7.727   0.923 -0.7626 -0.3490  1.2026
   18CHTO  C124 7219   6.846   7.932   0.897 -0.1420 -0.3958 -0.3666
   18CHTO   O83 7220   6.798   8.058   0.876  0.2101  0.0434 -0.0427
   18CHTO  H204 7221   6.854   8.117   0.923  0.8227 -1.8128  1.6081
   18CHTO  C109 7222   6.694   7.806   0.738  0.0859  0.3556  0.5404
   18CHTO  H213 7223   6.644   7.900   0.711  1.8886  1.6525  1.6137
   18CHTO  C110 7224   6.587   7.692   0.729  0.2528 -0.3892  0.5376
   18CHTO  H214 7225   6.636   7.595   0.737  0.3068 -0.2898  1.3755
   18CHTO   O78 7226   6.528   7.690   0.594  0.0012 -0.0341 -0.1586
   18CHTO  H200 7227   6.506   7.774   0.559 -0.5989 -0.0859  0.0841
   18CHTO  C111 7228   6.475   7.714   0.837  0.1133 -0.2990 -0.1687
   18CHTO  H215 7229   6.413   7.797   0.800 -0.4641 -1.5431 -2.0524
   18CHTO   N19 7230   6.380   7.597   0.845  0.1924 -0.0747  0.0175
   18CHTO  H207 7231   6.337   7.584   0.944  0.4016  1.2577  0.2932
   18CHTO  H208 7232   6.448   7.514   0.826 -0.3990 -0.8827  1.3427
   18CHTO   O74 7233   6.806   7.791   0.651 -0.2934  0.0239  0.8688
   18CHTO  C115 7234   6.783   7.839   0.497 -0.5187  0.0972 -0.3904
   18CHTO  H219 7235   6.705   7.781   0.447  0.6599 -0.6250 -1.4242
   18CHTO   O76 7236   6.741   7.988   0.493  0.2750  0.0624 -0.2913
   18CHTO  C122 7237   6.749   8.052   0.366  0.2800  0.5542 -0.0189
   18CHTO  H226 7238   6.750   8.157   0.397 -0.3628  0.3088  0.8485
   18CHTO  C126 7239   6.608   8.027   0.293 -0.4705 -0.3113 -0.0049
   18CHTO   O85 7240   6.567   8.135   0.209  0.3525 -0.4949  0.2064
   18CHTO  H206 7241   6.501   8.097   0.155 -0.9102  2.3135 -0.2526
   18CHTO  C121 7242   6.876   8.029   0.277  0.4586  0.0630 -0.0881
   18CHTO  H225 7243   6.845   8.068   0.178  0.0601  1.1260  0.4539
   18CHTO   O81 7244   6.982   8.104   0.332  0.3707 -0.3048 -0.3821
   18CHTO  H202 7245   7.067   8.070   0.311  0.1739 -1.1207  0.1023
   18CHTO  C119 7246   6.904   7.876   0.268 -0.2060 -0.4743  0.3418
   18CHTO  H223 7247   6.815   7.827   0.230  0.1530 -0.7208 -0.1909
   18CHTO  C117 7248   6.917   7.816   0.412  0.7084  0.6385 -0.1208
   18CHTO  H221 7249   7.003   7.857   0.465  2.9530 -3.0707 -0.7282
   18CHTO   N20 7250   6.939   7.672   0.404 -0.4671  0.0443  0.2398
   18CHTO  H209 7251   6.841   7.627   0.408 -0.8626  1.0544  2.1948
   18CHTO  H210 7252   7.002   7.640   0.486 -0.3785  0.2401  0.2483
   18CHTO   O80 7253   7.012   7.833   0.157  0.1193  0.4512 -0.2250
   18CHTO  C103 7254   6.961   7.757   0.014 -0.3775 -0.3352 -0.2599
   18CHTO  H190 7255   7.051   7.746  -0.048  1.7813 -1.5401  2.9920
   18CHTO  C101 7256   6.896   7.607   0.037  0.1122 -0.7584  0.1866
   18CHTO  H188 7257   6.823   7.603   0.118 -1.2211  1.0093 -0.8648
   18CHTO   O68 7258   7.004   7.507   0.054  0.3327  0.5188 -0.5205
   18CHTO  H168 7259   7.054   7.536   0.128 -2.2768  2.1449  0.7028
   18CHTO   C99 7260   6.803   7.573  -0.094 -0.7195 -0.2486  0.0344
   18CHTO  H186 7261   6.864   7.560  -0.187 -0.0676  0.1187  0.4092
   18CHTO   N17 7262   6.723   7.449  -0.085  0.4502  0.7838 -0.4228
   18CHTO  H174 7263   6.786   7.362  -0.085  0.1779  0.5836 -0.7157
   18CHTO  H175 7264   6.664   7.459   0.005  0.0576  2.3125 -0.8286
   18CHTO   C97 7265   6.702   7.690  -0.129  0.3909  0.0036 -0.3147
   18CHTO  H184 7266   6.642   7.706  -0.038  1.2713 -0.1885  0.3135
   18CHTO   O64 7267   6.779   7.809  -0.162  0.4509  0.2689 -0.3761
   18CHTO  C104 7268   6.862   7.859  -0.056  0.3269  0.5863  0.2105
   18CHTO  H191 7269   6.792   7.893   0.020 -0.0721 -0.9181  0.5256
   18CHTO  C108 7270   6.934   7.984  -0.109 -0.1725  0.3967  0.1802
   18CHTO   O71 7271   7.033   7.957  -0.209 -0.2660  0.7346  0.1926
   18CHTO  H171 7272   7.118   7.979  -0.177 -0.3339  0.7420  0.3702
   18CHTO   O62 7273   6.618   7.679  -0.248 -0.5335  0.3061 -0.2021
   18CHTO   C91 7274   6.476   7.709  -0.231  0.1805 -0.2883 -0.5809
   18CHTO  H178 7275   6.447   7.675  -0.132  0.5219 -0.1824 -0.4422
   18CHTO   C92 7276   6.403   7.632  -0.336 -0.0265 -0.0200  0.3379
   18CHTO  H179 7277   6.432   7.672  -0.434 -2.4509  1.9779  0.3873
   18CHTO   O66 7278   6.425   7.491  -0.320  0.2349  0.2507 -0.2672
   18CHTO  H166 7279   6.461   7.467  -0.237  1.9473 -1.1316 -1.3736
   18CHTO   C93 7280   6.247   7.666  -0.326 -0.4176 -0.1218  0.5201
   18CHTO  H180 7281   6.210   7.652  -0.223  0.4090  0.0999  0.8508
   18CHTO   N16 7282   6.162   7.577  -0.418 -0.1918 -0.8803  0.0266
   18CHTO  H172 7283   6.061   7.614  -0.433 -0.0329 -0.5166 -0.1416
   18CHTO  H173 7284   6.153   7.484  -0.363 -3.9153 -1.1898 -0.9557
   18CHTO   C94 7285   6.225   7.815  -0.360 -0.3327  0.4578  0.3798
   18CHTO  H181 7286   6.266   7.844  -0.457 -1.2592  0.8166  0.0944
   18CHTO   O61 7287   6.298   7.890  -0.264  0.0102  0.0405 -0.3566
   18CHTO   C95 7288   6.437   7.864  -0.234 -0.2208 -0.4844 -0.1522
   18CHTO  H182 7289   6.493   7.922  -0.307 -1.9065  1.3631 -0.0380
   18CHTO  C106 7290   6.474   7.943  -0.104 -0.5084  0.1852 -0.1471
   18CHTO   O69 7291   6.392   7.910   0.011  0.4856  0.4816  0.2299
   18CHTO  H169 7292   6.415   7.950   0.093  1.6013  1.6858 -0.6406
   18CHTO   O63 7293   6.071   7.864  -0.341  0.0963  0.4006 -0.4655
   18CHTO   C96 7294   6.053   8.010  -0.378 -0.2290  0.0934  0.2098
   18CHTO  H183 7295   6.143   8.031  -0.435 -0.1653  0.5575  0.4765
   18CHTO   C98 7296   6.038   8.122  -0.267  0.0155  0.0542 -0.0112
   18CHTO  H185 7297   5.965   8.085  -0.194 -0.0181  2.6134  1.3200
   18CHTO   O67 7298   6.154   8.133  -0.195  0.5604 -0.0606  0.5171
   18CHTO  H167 7299   6.174   8.057  -0.145  1.8192 -0.5230 -0.6551
   18CHTO  C102 7300   6.008   8.262  -0.342  0.1497 -0.4037  0.0390
   18CHTO  H189 7301   6.097   8.284  -0.402 -0.2355  1.6373  0.1896
   18CHTO   N18 7302   5.992   8.381  -0.255 -0.2710 -0.2436 -0.1985
   18CHTO  H176 7303   5.928   8.455  -0.300  1.0698  0.7201 -0.5332
   18CHTO  H177 7304   6.089   8.422  -0.229 -0.6726  0.6103 -0.0541
   18CHTO  C105 7305   5.889   8.250  -0.440 -0.1189  0.3691  0.6093
   18CHTO  H192 7306   5.797   8.230  -0.386 -0.3612  0.0181  0.0690
   18CHTO   O65 7307   5.922   8.149  -0.536 -0.0555  0.1716 -0.2838
   18CHTO  C100 7308   5.933   8.011  -0.482 -0.5333 -0.6951  0.1213
   18CHTO  H187 7309   5.835   7.991  -0.437 -1.6250  2.0809 -0.8787
   18CHTO  C107 7310   5.959   7.906  -0.594 -0.3832  0.6416 -0.0476
   18CHTO   O70 7311   5.876   7.889  -0.712 -0.2674  0.5745 -0.7325
   18CHTO  H170 7312   5.818   7.963  -0.716  0.0493  0.7987 -1.2484
   18CHTO   O57 7313   5.875   8.395  -0.517 -0.4893  0.3063  0.4788
   18CHTO   C85 7314   5.765   8.429  -0.603 -0.5290  0.3511 -0.2365
   18CHTO  H157 7315   5.801   8.507  -0.674 -2.7593 -0.7981 -2.7457
   18CHTO   C83 7316   5.660   8.503  -0.512 -0.1360  0.9585 -0.2228
   18CHTO  H155 7317   5.703   8.595  -0.471  1.4646 -0.4699  1.4160
   18CHTO   O56 7318   5.624   8.426  -0.397 -1.2180  0.7167  0.5473
   18CHTO  H135 7319   5.577   8.351  -0.427 -1.1977  0.9750 -0.1396
   18CHTO   C81 7320   5.535   8.532  -0.603  0.4836 -0.2955  0.1642
   18CHTO  H153 7321   5.569   8.585  -0.692 -0.7462  2.3660  1.2167
   18CHTO   N14 7322   5.432   8.622  -0.541  0.4164 -0.6786  0.3970
   18CHTO  H141 7323   5.415   8.585  -0.442 -2.8155 -1.1893 -0.2888
   18CHTO  H142 7324   5.337   8.620  -0.590 -1.4581  1.8888  3.6765
   18CHTO   C79 7325   5.469   8.399  -0.646 -0.1882  0.6664 -0.1047
   18CHTO  H151 7326   5.383   8.425  -0.707 -1.5487 -3.2221  0.0215
   18CHTO   O52 7327   5.563   8.328  -0.733  0.2164  0.2554  0.3726
   18CHTO   C86 7328   5.695   8.313  -0.680  0.3451 -0.2768 -0.1821
   18CHTO  H158 7329   5.682   8.227  -0.612 -0.6766  0.0487  0.0306
   18CHTO   C90 7330   5.787   8.262  -0.799  0.1641 -0.2902 -0.5690
   18CHTO   O60 7331   5.751   8.134  -0.854 -0.1914  0.1680 -0.0609
   18CHTO  H138 7332   5.763   8.068  -0.789 -2.4694  1.0802  1.3432
   18CHTO   O50 7333   5.408   8.316  -0.539 -0.2290 -0.2771 -0.0832
   18CHTO   C73 7334   5.313   8.208  -0.517  0.6259 -0.3660 -0.8627
   18CHTO  H145 7335   5.299   8.141  -0.603 -1.3140  0.2054 -1.0244
   18CHTO   C74 7336   5.176   8.271  -0.483  0.5464 -0.4556  0.2998
   18CHTO  H146 7337   5.142   8.330  -0.569  0.3170  1.3495  1.6135
   18CHTO   O54 7338   5.080   8.164  -0.477  0.2563  0.0835 -0.6362
   18CHTO  H133 7339   4.996   8.197  -0.452 -0.1105 -0.2306 -1.4192
   18CHTO   C75 7340   5.185   8.356  -0.353  0.2775 -0.0409 -0.0117
   18CHTO  H147 7341   5.248   8.444  -0.373 -1.5019  1.6175  1.4605
   18CHTO   N13 7342   5.055   8.414  -0.314 -0.3411  0.0502 -0.2673
   18CHTO  H139 7343   4.995   8.443  -0.399 -0.9042  0.0902  0.1440
   18CHTO  H140 7344   5.000   8.336  -0.264  1.5982 -0.4648  1.1358
   18CHTO   C76 7345   5.255   8.277  -0.234  0.5243 -0.5201  0.1890
   18CHTO  H148 7346   5.181   8.205  -0.199  0.5105 -1.0726 -0.9528
   18CHTO   O49 7347   5.375   8.195  -0.272 -0.1490 -0.3158 -0.1524
   18CHTO   C77 7348   5.365   8.124  -0.395 -0.1854  0.0572  0.4606
   18CHTO  H149 7349   5.302   8.037  -0.373 -0.4561  0.5125  1.5139
   18CHTO   C88 7350   5.502   8.065  -0.431  0.3785 -0.1696 -0.6332
   18CHTO   O58 7351   5.570   7.995  -0.310 -0.2311 -0.3483  0.1381
   18CHTO  H136 7352   5.509   7.977  -0.241  0.3047  1.1474  1.0084
   18CHTO   O51 7353   5.294   8.381  -0.124  0.0160 -0.5211 -0.6678
   18CHTO   C78 7354   5.304   8.326   0.024  0.3589  0.7442 -0.3198
   18CHTO  H150 7355   5.295   8.215   0.019  1.1569  0.7327 -1.8760
   18CHTO   C80 7356   5.189   8.378   0.112 -0.3691 -0.0180 -0.1286
   18CHTO  H152 7357   5.181   8.489   0.101  2.9091  0.1705 -1.0145
   18CHTO   O55 7358   5.062   8.330   0.085  0.7507 -0.3953 -0.4563
   18CHTO  H134 7359   5.052   8.328  -0.008  2.9983 -0.8057 -0.7134
   18CHTO   C84 7360   5.219   8.341   0.273 -0.0327  0.3143  0.4751
   18CHTO  H156 7361   5.211   8.233   0.286 -1.3674  0.1629 -1.3054
   18CHTO   N15 7362   5.126   8.403   0.377 -0.3980 -0.1465  0.1534
   18CHTO  H143 7363   5.026   8.384   0.343 -0.8273  2.3664 -0.0936
   18CHTO  H144 7364   5.138   8.344   0.466 -2.3053 -0.2131  0.3802
   18CHTO   C87 7365   5.362   8.393   0.301  0.0935  0.2644 -0.8134
   18CHTO  H159 7366   5.361   8.502   0.293  3.2715  0.5727  1.8735
   18CHTO   O53 7367   5.455   8.322   0.216 -0.0013 -0.2966  0.0709
   18CHTO   C82 7368   5.440   8.367   0.079 -0.5205 -0.7158  0.3168
   18CHTO  H154 7369   5.458   8.474   0.077 -0.2894 -0.7558  0.1214
   18CHTO   C89 7370   5.563   8.295   0.005 -0.3017  0.0035 -0.1158
   18CHTO   O59 7371   5.686   8.327   0.075  0.5779 -0.1499  0.0355
   18CHTO  H137 7372   5.732   8.246   0.085  0.9267 -0.0180 -0.4793
   18CHTO   O45 7373   5.415   8.349   0.455  0.3170 -0.4542  0.4080
   18CHTO   C67 7374   5.552   8.386   0.486 -0.0426  0.5549 -0.6207
   18CHTO  H124 7375   5.617   8.368   0.401  1.7911 -3.3312  1.4733
   18CHTO   C65 7376   5.554   8.534   0.538 -0.0386  0.4186 -0.4821
   18CHTO  H122 7377   5.455   8.562   0.573  0.1014 -0.0711  0.3142
   18CHTO   O44 7378   5.568   8.611   0.422 -0.0331  0.1118  0.1845
   18CHTO  H102 7379   5.655   8.609   0.388 -0.9995  1.7651 -2.4702
   18CHTO   C63 7380   5.649   8.555   0.662 -0.0107  0.3483  0.6659
   18CHTO  H120 7381   5.592   8.520   0.748  0.1557 -1.2565  0.1371
   18CHTO   N11 7382   5.679   8.696   0.694  0.0427 -0.0651 -0.1297
   18CHTO  H108 7383   5.607   8.772   0.672  0.8732 -0.0620 -2.9340
   18CHTO  H109 7384   5.706   8.698   0.798 -1.3557 -0.3673  0.2669
   18CHTO   C61 7385   5.779   8.474   0.643  0.1002  0.4050  0.2492
   18CHTO  H118 7386   5.833   8.481   0.738  0.2768 -0.7249  0.2480
   18CHTO   O40 7387   5.750   8.332   0.613 -0.5931 -0.1894 -0.4683
   18CHTO   C68 7388   5.610   8.294   0.591 -0.5542 -0.2229  0.1800
   18CHTO  H125 7389   5.558   8.318   0.686  3.6263  0.6480  2.3489
   18CHTO   C72 7390   5.615   8.138   0.572 -0.2042  0.2625  0.1270
   18CHTO   O48 7391   5.482   8.080   0.581 -0.3450 -0.4583 -0.2493
   18CHTO  H105 7392   5.494   7.987   0.571  0.4614 -0.1393 -2.5691
   18CHTO   O38 7393   5.863   8.516   0.534  0.1501 -0.3400  0.3566
   18CHTO   C55 7394   5.997   8.464   0.514 -0.1120  0.4408  0.2052
   18CHTO  H112 7395   6.003   8.383   0.589 -2.4015  0.6662  0.6449
   18CHTO   C56 7396   6.107   8.570   0.529  0.4875  0.5642 -0.1803
   18CHTO  H113 7397   6.103   8.647   0.451 -2.0673  0.1549 -0.4873
   18CHTO   O42 7398   6.082   8.649   0.650 -1.2158 -0.0707 -0.0688
   18CHTO  H100 7399   6.157   8.656   0.706 -0.5933  0.1241 -0.9282
   18CHTO   C57 7400   6.248   8.502   0.529  0.6743 -0.7567  0.2352
   18CHTO  H114 7401   6.241   8.457   0.628 -1.8372 -1.3665 -0.2080
   18CHTO   N10 7402   6.369   8.591   0.536  0.0457  0.2403 -0.2173
   18CHTO  H106 7403   6.389   8.604   0.641  1.5656  0.5300 -0.5298
   18CHTO  H107 7404   6.361   8.689   0.490  2.7906  1.1194  1.0936
   18CHTO   C58 7405   6.264   8.398   0.422  0.2110  0.3918  0.5685
   18CHTO  H115 7406   6.309   8.445   0.332  1.6024 -2.4930 -0.2956
   18CHTO   O37 7407   6.152   8.331   0.359  0.2828 -0.1149 -0.0898
   18CHTO   C59 7408   6.024   8.398   0.372 -0.0656  0.1632  0.5131
   18CHTO  H116 7409   6.014   8.470   0.291  1.5242 -0.0040  0.1442
   18CHTO   C70 7410   5.919   8.293   0.334 -0.1798  0.5796  0.2031
   18CHTO   O46 7411   5.940   8.237   0.206 -0.5956  0.2348 -0.2281
   18CHTO  H103 7412   5.929   8.144   0.209 -3.2278  0.5040 -0.9552
   18CHTO   O39 7413   6.353   8.273   0.476  0.1077 -0.0303 -0.0186
   18CHTO   C60 7414   6.288   8.189   0.576  0.4977 -0.7333  0.1948
   18CHTO  H117 7415   6.233   8.247   0.650  2.5793  1.4229  0.0934
   18CHTO   C62 7416   6.200   8.082   0.510  0.5257 -0.5607 -0.7616
   18CHTO  H119 7417   6.118   8.118   0.444  0.7183  0.4700 -0.4448
   18CHTO   O43 7418   6.284   7.989   0.437  0.0757  0.2529  0.0609
   18CHTO  H101 7419   6.242   7.932   0.375  0.3550  2.0432 -1.8319
   18CHTO   C66 7420   6.108   8.011   0.623  0.3162 -0.3754  0.2248
   18CHTO  H123 7421   6.062   8.093   0.677  0.4148  1.0050 -1.7552
   18CHTO   N12 7422   5.998   7.928   0.571 -0.2323 -0.2376 -0.5310
   18CHTO  H110 7423   6.024   7.848   0.504  2.2729  1.3025 -1.4828
   18CHTO  H111 7424   5.939   7.890   0.653 -1.8896  0.8796 -1.1800
   18CHTO   C69 7425   6.197   7.934   0.724  0.3476 -0.3473 -0.0666
   18CHTO  H126 7426   6.237   7.850   0.664  0.9464 -0.6364  0.7304
   18CHTO   O41 7427   6.327   8.035   0.772 -0.2515  0.0309 -0.0575
   18CHTO   C64 7428   6.399   8.111   0.661 -0.1892 -0.2373  0.1653
   18CHTO  H121 7429   6.450   8.040   0.592  0.7218  0.7301 -0.1710
   18CHTO   C71 7430   6.515   8.202   0.717 -0.6314  0.4201 -0.3037
   18CHTO   O47 7431   6.471   8.303   0.812 -0.2585  0.2688  0.1239
   18CHTO  H104 7432   6.422   8.264   0.883  0.8821  0.9109  1.2666
   18CHTO   O34 7433   6.125   7.894   0.849  0.2299  0.4362  0.2253
   18CHTO   C49 7434   6.112   7.937   0.971  0.2104  0.1864 -0.2857
   18CHTO   H91 7435   6.206   7.946   1.026 -0.0900  1.8282 -0.0057
   18CHTO   C47 7436   6.019   7.839   1.046 -0.7080  0.7564 -0.0705
   18CHTO   H89 7437   6.020   7.872   1.152  3.3521  2.5464 -0.5893
   18CHTO   O33 7438   6.081   7.704   1.036  0.5190 -0.0383  0.3766
   18CHTO   H70 7439   6.077   7.670   1.123 -3.2574 -0.5722  0.0697
   18CHTO   C45 7440   5.869   7.845   0.977  0.6423 -0.4132 -0.0567
   18CHTO   H87 7441   5.877   7.821   0.870 -1.2881 -0.7027 -0.1522
   18CHTO    N8 7442   5.777   7.748   1.040  0.5679  0.6660  0.4712
   18CHTO   H75 7443   5.686   7.747   0.982 -0.1843  0.8589  1.6478
   18CHTO   H76 7444   5.755   7.791   1.136 -1.2518  0.1904  0.2879
   18CHTO   C43 7445   5.809   7.996   0.967 -0.5473 -0.2286 -0.8103
   18CHTO   H85 7446   5.729   7.988   0.893 -4.3758 -3.3102  3.3870
   18CHTO   O29 7447   5.906   8.094   0.930  0.0250 -0.1872  0.7798
   18CHTO   C50 7448   6.040   8.080   0.983 -0.6154 -0.0689 -0.3432
   18CHTO   H92 7449   6.106   8.147   0.926 -0.6873 -0.1287 -0.4977
   18CHTO   C54 7450   6.051   8.139   1.134  0.6180 -0.4085  0.4897
   18CHTO   O36 7451   6.180   8.172   1.170  0.2846  1.2748  0.0188
   18CHTO   H72 7452   6.218   8.120   1.238  0.4301 -0.1081 -1.1041
   18CHTO   O27 7453   5.744   8.036   1.088 -0.2361 -0.1388 -0.9232
   18CHTO   C37 7454   5.650   8.133   1.127  0.2215  0.3907 -0.5275
   18CHTO   H79 7455   5.622   8.096   1.226  1.6331 -0.2606 -0.3604
   18CHTO   C38 7456   5.720   8.276   1.125  0.4155 -0.0315  0.3348
   18CHTO   H80 7457   5.788   8.284   1.039  0.3008 -0.1852  0.2305
   18CHTO   O31 7458   5.805   8.280   1.243  0.3199 -0.3061 -0.2127
   18CHTO   H68 7459   5.873   8.343   1.228 -0.1891 -0.0245 -1.3698
   18CHTO   C39 7460   5.625   8.399   1.133  0.0564  0.0814 -0.1729
   18CHTO   H81 7461   5.574   8.396   1.229 -1.4432 -0.4442 -0.9592
   18CHTO    N7 7462   5.687   8.534   1.125  0.3517  0.8232 -0.4448
   18CHTO   H73 7463   5.748   8.556   1.211  0.8929 -1.3999 -0.2352
   18CHTO   H74 7464   5.608   8.607   1.130 -0.5766 -0.1736 -0.4850
   18CHTO   C40 7465   5.517   8.379   1.021 -0.3789 -0.8178  0.3012
   18CHTO   H82 7466   5.571   8.379   0.926  1.3887  2.5266  1.2145
   18CHTO   O26 7467   5.448   8.252   1.044  0.1591 -0.1964  0.6088
   18CHTO   C41 7468   5.526   8.133   1.028  0.8142 -0.0764 -0.5254
   18CHTO   H83 7469   5.564   8.137   0.925 -1.8157 -1.0277 -1.5764
   18CHTO   C52 7470   5.437   8.005   1.044 -0.0340 -0.7947  0.4360
   18CHTO   O35 7471   5.509   7.885   1.026  0.0045 -0.3284 -0.0737
   18CHTO   H71 7472   5.455   7.817   1.062  1.2629 -0.1005  2.3356
   18CHTO   O28 7473   5.426   8.492   0.999 -0.5321 -0.3524  0.2685
   18CHTO   C42 7474   5.281   8.495   1.020 -0.6212 -0.1552 -0.5513
   18CHTO   H84 7475   5.263   8.603   1.020 -0.8560 -0.1748  1.2109
   18CHTO   C44 7476   5.231   8.443   1.158 -0.0153  0.3674 -0.1495
   18CHTO   H86 7477   5.256   8.338   1.174 -1.6053  0.3095  2.2156
   18CHTO   O32 7478   5.302   8.515   1.263  0.5863  0.0271  0.0494
   18CHTO   H69 7479   5.282   8.466   1.341  3.1511  0.7561  1.2341
   18CHTO   C48 7480   5.070   8.465   1.166 -0.7459  0.8237 -0.2712
   18CHTO   H90 7481   5.053   8.573   1.174  0.6494  1.1425 -1.3644
   18CHTO    N9 7482   5.008   8.401   1.293 -0.4951 -0.1308  0.1188
   18CHTO   H77 7483   4.903   8.425   1.296 -0.5370 -0.2693 -0.1674
   18CHTO   H78 7484   5.065   8.442   1.376  1.7030  1.1001 -1.9095
   18CHTO   C51 7485   4.993   8.398   1.043 -0.7171 -0.1743  1.0150
   18CHTO   H93 7486   4.996   8.289   1.053  1.5499 -0.4719 -2.1146
   18CHTO   O30 7487   5.055   8.444   0.921  0.2201  0.2687 -0.2452
   18CHTO   C46 7488   5.213   8.431   0.900 -0.2898 -0.1593  0.0133
   18CHTO   H88 7489   5.242   8.326   0.891  1.1347  0.1271  1.1000
   18CHTO   C53 7490   5.247   8.502   0.768 -0.1861 -0.5105 -0.4112
   18CHTO   O72 7491   5.230   8.648   0.776  0.0780  0.2807  0.3036
   18CHTO  H199 7492   5.299   8.685   0.723  0.8638  0.0329  1.1372
   18CHTO   O22 7493   4.853   8.440   1.031 -0.2907  0.5328  0.9006
   18CHTO   C31 7494   4.763   8.428   0.910 -0.3914  0.0043  0.6370
   18CHTO   H59 7495   4.658   8.445   0.940 -1.1232 -2.7508 -0.1984
   18CHTO   C29 7496   4.798   8.527   0.792  0.0679 -0.0018  0.2419
   18CHTO   H57 7497   4.897   8.507   0.748  0.5977  0.4002  1.2237
   18CHTO   O21 7498   4.797   8.659   0.852 -0.3387  0.2367 -0.4234
   18CHTO   H37 7499   4.789   8.732   0.794  2.3010 -0.4295 -1.6688
   18CHTO   C27 7500   4.695   8.507   0.683 -0.2135  0.3861 -0.2622
   18CHTO   H55 7501   4.594   8.523   0.721 -0.1132 -0.5314  0.3972
   18CHTO    N5 7502   4.715   8.588   0.562 -0.1195  0.5455  0.1281
   18CHTO   H43 7503   4.673   8.686   0.576 -0.5257  0.6658 -1.7891
   18CHTO   H44 7504   4.678   8.538   0.474 -1.9750 -0.8544  1.6460
   18CHTO   C25 7505   4.701   8.355   0.635 -0.1183  0.3099 -0.7302
   18CHTO   H53 7506   4.806   8.329   0.614 -0.2105 -0.5323 -0.1706
   18CHTO   O17 7507   4.661   8.265   0.745  0.0675 -0.7762  0.4302
   18CHTO   C32 7508   4.754   8.281   0.852  0.3874  0.9770  0.7584
   18CHTO   H60 7509   4.853   8.242   0.828 -0.4865 -0.8441  0.0484
   18CHTO   C36 7510   4.688   8.178   0.946 -0.1775  0.0892 -0.6244
   18CHTO   O25 7511   4.767   8.151   1.064  0.0740  0.4356 -0.1613
   18CHTO   H40 7512   4.728   8.188   1.140 -0.9566 -2.6510  0.8718
   18CHTO   O15 7513   4.622   8.310   0.506  0.6466  0.3497 -0.3884
   18CHTO   C19 7514   4.625   8.215   0.394  0.2300  0.2888  0.5610
   18CHTO   H47 7515   4.533   8.156   0.401  0.3096 -0.0603 -1.1580
   18CHTO   C20 7516   4.617   8.276   0.258  0.5819 -0.6241  0.0362
   18CHTO   H48 7517   4.676   8.369   0.250 -1.2818  0.4752 -1.3272
   18CHTO   O19 7518   4.474   8.315   0.244 -0.6858  0.5571  0.0350
   18CHTO   H35 7519   4.437   8.371   0.310 -1.7702 -2.4410  2.0831
   18CHTO   C21 7520   4.652   8.185   0.132  0.2256  0.2772  0.8953
   18CHTO   H49 7521   4.572   8.111   0.121  0.2659  0.2735  0.6182
   18CHTO    N4 7522   4.663   8.260   0.005 -0.7893 -0.1870 -0.6447
   18CHTO   H41 7523   4.686   8.199  -0.081  2.6278 -0.1266  0.1564
   18CHTO   H42 7524   4.579   8.324  -0.016  0.1186  1.0637 -0.5907
   18CHTO   C22 7525   4.773   8.102   0.164  0.1241  0.8131  0.1051
   18CHTO   H50 7526   4.857   8.172   0.171  1.8955 -0.8100 -3.4315
   18CHTO   O14 7527   4.753   8.027   0.290 -0.1488 -0.1182  0.3234
   18CHTO   C23 7528   4.747   8.114   0.403  0.1362  0.0660 -0.3739
   18CHTO   H51 7529   4.845   8.165   0.399  1.2162 -1.7640  1.7573
   18CHTO   C34 7530   4.745   8.019   0.529 -0.2596  0.3377  0.5012
   18CHTO   O23 7531   4.634   7.929   0.545 -0.0883 -0.4149  0.4102
   18CHTO   H38 7532   4.648   7.856   0.488  0.2386 -0.4694  0.5603
   18CHTO   O16 7533   4.801   8.004   0.062 -0.0473 -0.0765 -0.0326
   18CHTO   C24 7534   4.964   7.990   0.021 -0.0598  0.6444 -0.0549
   18CHTO   H52 7535   5.016   8.085   0.017 -0.0773  0.5630 -2.8813
   18CHTO   C26 7536   4.959   7.936  -0.120  0.0746 -0.1613  0.7554
   18CHTO   H54 7537   4.898   7.843  -0.128  0.0892 -0.0228 -1.5528
   18CHTO   O20 7538   4.898   8.039  -0.206 -0.2310  0.0171 -0.4681
   18CHTO   H36 7539   4.885   8.011  -0.294 -1.1601  2.1478 -1.0355
   18CHTO   C30 7540   5.101   7.906  -0.174  0.1521 -0.1014  0.7345
   18CHTO   H58 7541   5.161   7.997  -0.185 -2.4392  1.2425 -3.1524
   18CHTO    N6 7542   5.095   7.846  -0.314 -0.3068 -0.3181 -0.4562
   18CHTO   H45 7543   5.038   7.915  -0.374 -1.0157 -0.2133  0.3147
   18CHTO   H46 7544   5.041   7.752  -0.320  0.2982 -0.6196 -1.1453
   18CHTO   C33 7545   5.169   7.807  -0.072  0.3626  0.0049  0.4255
   18CHTO   H61 7546   5.106   7.719  -0.052  0.3555  0.4159  2.3127
   18CHTO   O18 7547   5.178   7.882   0.051 -0.3848 -0.5082 -0.2975
   18CHTO   C28 7548   5.050   7.901   0.116  0.0878  0.3859  0.4347
   18CHTO   H56 7549   4.993   7.812   0.139 -0.7376  0.5816 -0.8365
   18CHTO   C35 7550   5.064   7.975   0.249 -0.4960  0.4737 -0.0110
   18CHTO   O24 7551   5.118   7.897   0.357 -0.0190  0.2587 -0.0318
   18CHTO   H39 7552   5.165   7.956   0.414  0.7304 -0.4455  0.0816
   18CHTO    O9 7553   5.299   7.765  -0.118 -0.4172  0.0175 -0.1645
   18CHTO   C13 7554   5.406   7.715   0.016  0.5249 -0.0996 -0.5169
   18CHTO   H26 7555   5.343   7.679   0.100 -0.8119  2.7598 -0.2123
   18CHTO   C11 7556   5.513   7.825   0.069 -0.1677  0.0467  0.1919
   18CHTO   H24 7557   5.457   7.904   0.122  1.9723  1.9712 -0.3024
   18CHTO    O8 7558   5.579   7.889  -0.041  0.6973  1.0057 -0.2112
   18CHTO    H3 7559   5.620   7.969  -0.013 -0.4569  0.4724  3.1606
   18CHTO    C9 7560   5.612   7.758   0.161  0.0030  0.0957 -0.4095
   18CHTO   H22 7561   5.551   7.712   0.240  0.9807 -0.7131 -0.1097
   18CHTO    N2 7562   5.706   7.847   0.238 -0.2777  0.2395 -0.2767
   18CHTO   H10 7563   5.669   7.946   0.263 -0.4238 -0.6741  3.3056
   18CHTO   H11 7564   5.791   7.856   0.172  0.0079  2.0271  0.3071
   18CHTO    C7 7565   5.682   7.641   0.083  0.1969  0.1558 -0.7436
   18CHTO   H20 7566   5.741   7.588   0.160  1.1192  0.0015 -1.5420
   18CHTO    O4 7567   5.589   7.542   0.037 -0.5345 -0.4923  0.4349
   18CHTO   C14 7568   5.474   7.583  -0.037  0.7230  0.0025  0.0320
   18CHTO   H27 7569   5.403   7.498  -0.029  0.9774 -0.4111 -1.9261
   18CHTO   C18 7570   5.514   7.592  -0.189  0.7006 -0.1695 -0.0003
   18CHTO   O13 7571   5.565   7.473  -0.261 -0.3928  0.6423  0.0900
   18CHTO    H7 7572   5.518   7.396  -0.235 -0.0428 -0.3803 -2.2545
   18CHTO    O2 7573   5.783   7.682  -0.047 -0.0759 -0.3704  0.3139
   18CHTO    C1 7574   5.917   7.617  -0.059  0.4029  0.9649  0.5679
   18CHTO   H14 7575   5.975   7.649  -0.148  0.7152 -0.7087  0.1648
   18CHTO    C2 7576   5.905   7.451  -0.051  0.2259 -0.2767  0.2028
   18CHTO   H15 7577   5.848   7.433   0.042  0.7717 -1.1029  0.3816
   18CHTO    O6 7578   5.845   7.401  -0.168  0.2210  0.2679  0.4488
   18CHTO    H1 7579   5.876   7.443  -0.246 -2.5436 -1.2639 -1.5876
   18CHTO    C3 7580   6.055   7.403  -0.043 -0.9026  0.0428 -0.3439
   18CHTO   H16 7581   6.109   7.443  -0.130  0.0853 -0.1737  0.1617
   18CHTO    N1 7582   6.064   7.250  -0.052 -0.2197  0.7629 -0.2123
   18CHTO    H8 7583   5.964   7.211  -0.040 -0.6971  2.2136  0.7250
   18CHTO    H9 7584   6.134   7.220   0.024 -0.5387  0.4361 -0.0460
   18CHTO    C4 7585   6.127   7.465   0.087  0.0816  0.2984  0.1559
   18CHTO   H17 7586   6.068   7.440   0.175  1.2718 -0.4296  0.7657
   18CHTO    O1 7587   6.134   7.606   0.073 -0.6837  0.3777  0.0694
   18CHTO    C5 7588   6.002   7.665   0.057  0.9184 -0.7307 -0.2026
   18CHTO   H18 7589   5.946   7.644   0.148 -0.7690  0.3093 -0.9655
   18CHTO   C16 7590   6.031   7.812   0.052 -0.7485  0.9806 -0.0702
   18CHTO   O11 7591   6.102   7.870   0.161  0.2338 -0.2014 -0.2756
   18CHTO    H5 7592   6.104   7.963   0.149 -2.2115  0.0240  0.7945
   18CHTO    O3 7593   6.261   7.418   0.097  0.4551 -0.4153 -0.2788
   18CHTO    C6 7594   6.307   7.389   0.229  0.0278  0.1851 -0.4255
   18CHTO   H19 7595   6.242   7.418   0.312  1.6687 -0.2576  1.0399
   18CHTO    C8 7596   6.333   7.232   0.243 -0.2768  0.3243  0.3688
   18CHTO   H21 7597   6.417   7.211   0.177  0.1037  0.8300  0.6902
   18CHTO    O7 7598   6.222   7.150   0.212  0.0679 -0.1899  0.5888
   18CHTO    H2 7599   6.202   7.167   0.122  2.3349  0.9592  0.2671
   18CHTO   C12 7600   6.390   7.204   0.385 -0.0541 -0.3685 -0.2633
   18CHTO   H25 7601   6.321   7.254   0.455  1.0520  2.4625 -1.1300
   18CHTO    N3 7602   6.397   7.056   0.423 -0.1118 -0.3582 -0.3305
   18CHTO   H12 7603   6.470   7.007   0.361  1.3717 -0.5788  1.5746
   18CHTO   H13 7604   6.423   7.048   0.527 -0.6266 -0.4526 -0.2047
   18CHTO   C15 7605   6.527   7.284   0.398  0.4716 -0.1534  1.0120
   18CHTO   H28 7606   6.589   7.250   0.315 -2.2077  0.8201 -1.4763
   18CHTO   O10 7607   6.593   7.272   0.540  0.4668 -0.0716  0.2298
   18CHTO    H4 7608   6.535   7.309   0.603 -0.7421  0.6084 -1.2434
   18CHTO    O5 7609   6.504   7.427   0.381  0.0705 -0.3699 -0.5338
   18CHTO   C10 7610   6.449   7.456   0.251  0.6792 -0.1603  0.3835
   18CHTO   H23 7611   6.516   7.423   0.171  0.1001 -1.2807  0.3561
   18CHTO   C17 7612   6.437   7.609   0.238  0.6285  0.1321 -0.0533
   18CHTO   O12 7613   6.568   7.668   0.211 -0.7763  0.1353 -0.2149
   18CHTO    H6 7614   6.555   7.758   0.187  0.7602  0.8902  1.7072
   19CHTO  H203 7615   4.820   9.586   2.106 -1.2414 -0.4784 -1.5955
   19CHTO   O82 7616   4.900   9.578   2.058 -0.1694 -0.1436  0.0838
   19CHTO  C123 7617   4.890   9.467   1.974  0.0571  0.1459  0.0445
   19CHTO  H227 7618   4.819   9.490   1.894  0.6304  1.8554  0.0033
   19CHTO   O77 7619   5.021   9.455   1.913  1.1680  0.6885  0.2718
   19CHTO  C118 7620   5.042   9.347   1.821 -0.5556 -0.1979  0.2478
   19CHTO  H222 7621   4.977   9.366   1.734  0.8763  0.7071 -0.6645
   19CHTO  C125 7622   5.194   9.362   1.774  0.0862  0.1131  0.1992
   19CHTO   O84 7623   5.216   9.296   1.650  0.2461 -0.0361 -0.0956
   19CHTO  H205 7624   5.138   9.303   1.599  0.0044 -0.5658  0.2031
   19CHTO  C114 7625   5.020   9.214   1.898 -0.8794 -0.0586 -0.2845
   19CHTO  H218 7626   5.097   9.203   1.974 -1.9417 -0.3793  0.7424
   19CHTO  C116 7627   4.883   9.203   1.972  0.4660 -0.2922  0.9953
   19CHTO  H220 7628   4.810   9.197   1.888  3.0471 -3.5078 -1.1643
   19CHTO   O79 7629   4.874   9.085   2.055 -0.1433  0.0412  0.0456
   19CHTO  H201 7630   4.931   9.019   2.019  0.1883 -0.2645  1.1041
   19CHTO  C120 7631   4.856   9.333   2.056 -0.4236 -0.0153  0.4208
   19CHTO  H224 7632   4.922   9.319   2.144 -0.1695 -0.6069  0.1379
   19CHTO   N21 7633   4.715   9.343   2.101  0.5238  0.5465 -0.5080
   19CHTO  H211 7634   4.684   9.435   2.149  1.3821  0.9724 -0.7839
   19CHTO  H212 7635   4.695   9.262   2.171  0.0674  1.1154  0.0328
   19CHTO   O75 7636   5.038   9.108   1.799 -0.1681 -0.2199 -0.0088
   19CHTO  C112 7637   5.147   8.981   1.843 -0.2100 -0.0901 -0.5104
   19CHTO  H216 7638   5.151   8.976   1.953 -1.9315  0.5033 -0.4052
   19CHTO   O73 7639   5.275   9.013   1.785 -0.3603 -0.5527  0.2835
   19CHTO  C113 7640   5.377   8.921   1.818 -0.3569  0.1194  0.0328
   19CHTO  H217 7641   5.387   8.917   1.928  0.3485 -2.4677 -0.0911
   19CHTO  C124 7642   5.506   8.982   1.755  0.3276  0.8393 -0.2724
   19CHTO   O83 7643   5.620   8.905   1.785 -0.6341  0.2866  0.0484
   19CHTO  H204 7644   5.648   8.939   1.868 -1.0207 -0.5154  0.5167
   19CHTO  C109 7645   5.349   8.785   1.756  0.6742 -0.2452  0.5028
   19CHTO  H213 7646   5.342   8.800   1.648  1.2107  3.7742  0.9213
   19CHTO  C110 7647   5.205   8.732   1.792 -0.0460  0.3899  0.0794
   19CHTO  H214 7648   5.208   8.690   1.892 -2.1206  1.8048  0.7729
   19CHTO   O78 7649   5.167   8.628   1.704 -0.3881 -0.2587 -0.7775
   19CHTO  H200 7650   5.097   8.576   1.739  0.5502  0.0620  1.6231
   19CHTO  C111 7651   5.098   8.843   1.787  1.1854  0.3095 -0.4596
   19CHTO  H215 7652   5.068   8.854   1.682 -2.6716 -1.2670  0.3844
   19CHTO   N19 7653   4.966   8.811   1.857  0.1384 -0.1595 -0.2386
   19CHTO  H207 7654   4.931   8.878   1.935 -1.4344 -2.6248  1.2123
   19CHTO  H208 7655   4.936   8.709   1.868 -2.7647  0.4882 -1.7115
   19CHTO   O74 7656   5.453   8.688   1.787 -0.0548 -0.2084 -0.4278
   19CHTO  C115 7657   5.478   8.580   1.674 -0.1540  0.1844 -0.4263
   19CHTO  H219 7658   5.384   8.555   1.624 -0.3951 -0.0707  0.1489
   19CHTO   O76 7659   5.575   8.632   1.557  0.8338 -0.1756 -0.3826
   19CHTO  C122 7660   5.708   8.612   1.600  0.7624  0.3709 -0.0767
   19CHTO  H226 7661   5.720   8.649   1.702 -1.4223  0.5344  0.1434
   19CHTO  C126 7662   5.797   8.705   1.508 -0.2930  0.1126 -0.1453
   19CHTO   O85 7663   5.931   8.722   1.560  0.1479  0.2830  0.1663
   19CHTO  H206 7664   6.001   8.683   1.510 -0.6545  1.4036 -1.8669
   19CHTO  C121 7665   5.739   8.458   1.601  0.1591  0.3108 -0.3940
   19CHTO  H225 7666   5.773   8.428   1.499 -0.0637 -0.4229 -0.2517
   19CHTO   O81 7667   5.849   8.426   1.688 -0.4332  0.8463  0.1533
   19CHTO  H202 7668   5.874   8.336   1.685  0.1698  1.0381 -3.2055
   19CHTO  C119 7669   5.610   8.372   1.646  0.6195 -0.1279 -0.4986
   19CHTO  H223 7670   5.554   8.359   1.553  1.6017 -0.3500 -1.0596
   19CHTO  C117 7671   5.528   8.448   1.749  0.1153 -1.1179  0.1273
   19CHTO  H221 7672   5.572   8.485   1.841 -2.2383  0.7698  0.5485
   19CHTO   N20 7673   5.409   8.376   1.798  0.1570 -0.1814 -0.5106
   19CHTO  H209 7674   5.327   8.435   1.838 -0.0415 -1.4435  0.9827
   19CHTO  H210 7675   5.429   8.289   1.857  2.6746  2.7374  3.1568
   19CHTO   O80 7676   5.639   8.213   1.680  0.0376  0.1544 -0.5606
   19CHTO  C103 7677   5.675   8.118   1.557 -0.8217  0.5371  0.2770
   19CHTO  H190 7678   5.690   8.174   1.465  2.4620  0.2979  0.6283
   19CHTO  C101 7679   5.806   8.035   1.568  0.1116  0.0611 -0.9530
   19CHTO  H188 7680   5.788   7.991   1.666  0.0561 -0.2325 -1.0971
   19CHTO   O68 7681   5.924   8.139   1.577  0.0344 -0.0134 -0.3775
   19CHTO  H168 7682   5.975   8.147   1.656  0.1277  1.0254 -0.5354
   19CHTO   C99 7683   5.824   7.930   1.455  0.0933 -0.3051  0.7311
   19CHTO  H186 7684   5.824   7.980   1.356  0.3435 -1.6161  0.0517
   19CHTO   N17 7685   5.948   7.848   1.455 -0.1600  0.6745  0.3819
   19CHTO  H174 7686   6.009   7.861   1.542 -1.4937 -0.6647  1.5464
   19CHTO  H175 7687   5.933   7.744   1.428  1.0841  0.2412  1.3358
   19CHTO   C97 7688   5.701   7.834   1.462  0.2445 -0.1028  0.2698
   19CHTO  H184 7689   5.701   7.785   1.561  0.8198 -1.9352 -0.6061
   19CHTO   O64 7690   5.585   7.917   1.441 -0.5039 -0.3527 -0.0289
   19CHTO  C104 7691   5.554   8.027   1.532 -0.1163 -0.2476 -0.8623
   19CHTO  H191 7692   5.518   7.985   1.627  0.7216 -1.7775 -1.2073
   19CHTO  C108 7693   5.435   8.117   1.488  0.2960 -0.5383 -0.1337
   19CHTO   O71 7694   5.321   8.031   1.467 -0.2611 -0.0454 -0.4001
   19CHTO  H171 7695   5.250   8.085   1.440  0.4319  1.5913  0.9751
   19CHTO   O62 7696   5.698   7.737   1.349 -0.3671 -0.0704 -0.7320
   19CHTO   C91 7697   5.625   7.615   1.361 -0.3018  0.1551  0.6522
   19CHTO  H178 7698   5.569   7.614   1.455  0.6335 -0.9860  1.2069
   19CHTO   C92 7699   5.734   7.502   1.342 -0.4364 -0.1073  0.3898
   19CHTO  H179 7700   5.798   7.536   1.260 -0.3221  0.8518  0.8718
   19CHTO   O66 7701   5.826   7.499   1.456 -0.2282 -0.1885 -0.3064
   19CHTO  H166 7702   5.909   7.467   1.425 -0.7124  0.0485 -1.9132
   19CHTO   C93 7703   5.666   7.358   1.327 -0.3132 -0.3088 -0.0351
   19CHTO  H180 7704   5.635   7.328   1.428 -0.5280 -0.1950 -0.0667
   19CHTO   N16 7705   5.766   7.264   1.272  0.0367  0.0206 -0.0489
   19CHTO  H172 7706   5.855   7.270   1.333 -1.4246  0.8815  2.0450
   19CHTO  H173 7707   5.771   7.281   1.165 -1.9923  0.3925 -0.1123
   19CHTO   C94 7708   5.540   7.355   1.231  0.4066 -0.7594 -0.7575
   19CHTO  H181 7709   5.565   7.369   1.126 -0.4753 -2.1076 -1.1698
   19CHTO   O61 7710   5.457   7.466   1.256  0.0222  0.0551  0.1197
   19CHTO   C95 7711   5.510   7.598   1.251  0.3881 -0.1389  0.2704
   19CHTO  H182 7712   5.539   7.606   1.147  0.3065  0.2494  0.2787
   19CHTO  C106 7713   5.387   7.694   1.266 -0.2468  0.2301  0.1639
   19CHTO   O69 7714   5.293   7.688   1.163 -0.0816 -0.2611  0.5152
   19CHTO  H169 7715   5.269   7.606   1.123  1.2098 -0.4055  0.0088
   19CHTO   O63 7716   5.462   7.234   1.248 -0.4189  0.2848 -0.2508
   19CHTO   C96 7717   5.409   7.176   1.118 -0.0183 -0.4093 -0.1244
   19CHTO  H183 7718   5.501   7.166   1.060  1.4943  2.6533  1.6134
   19CHTO   C98 7719   5.290   7.255   1.053  0.0845 -0.4008 -0.4758
   19CHTO  H185 7720   5.323   7.356   1.025 -1.4180  0.2136 -0.0510
   19CHTO   O67 7721   5.266   7.199   0.919  0.0798 -0.1242 -0.2451
   19CHTO  H167 7722   5.193   7.247   0.884 -0.3329 -0.2307  0.4351
   19CHTO  C102 7723   5.152   7.253   1.144 -1.1338 -0.6518  0.1052
   19CHTO  H189 7724   5.070   7.277   1.075 -1.7481  1.0698  1.3938
   19CHTO   N18 7725   5.149   7.351   1.251 -0.0091  0.0854 -0.4009
   19CHTO  H176 7726   5.244   7.383   1.289 -0.0474  1.8261 -1.7146
   19CHTO  H177 7727   5.088   7.437   1.226 -0.3218  0.4328  1.4907
   19CHTO  C105 7728   5.133   7.109   1.197  0.4209 -0.4235  0.2961
   19CHTO  H192 7729   5.164   7.102   1.301  1.0274 -1.0512  0.0800
   19CHTO   O65 7730   5.220   7.009   1.137 -0.3754 -1.1970 -0.0001
   19CHTO  C100 7731   5.365   7.029   1.154 -0.1997  0.0633 -0.4997
   19CHTO  H187 7732   5.394   7.007   1.258 -0.8980  1.1184 -0.0782
   19CHTO  C107 7733   5.435   6.918   1.070  0.5010  0.1474 -0.2668
   19CHTO   O70 7734   5.580   6.924   1.069 -0.1088  0.0512 -0.2963
   19CHTO  H170 7735   5.611   6.836   1.061 -0.9646 -0.2854  0.0687
   19CHTO   O57 7736   5.002   7.087   1.166  0.3662  0.2730  0.2685
   19CHTO   C85 7737   4.923   6.991   1.237  0.2737 -0.8456  0.3679
   19CHTO  H157 7738   4.989   6.955   1.319 -1.2343 -0.3376  1.8242
   19CHTO   C83 7739   4.900   6.872   1.134 -0.1439  0.1924 -0.0983
   19CHTO  H155 7740   5.001   6.831   1.128 -0.0670  0.1784  1.2638
   19CHTO   O56 7741   4.863   6.919   1.002 -0.3764  0.5796 -0.0800
   19CHTO  H135 7742   4.841   6.840   0.956  0.5311 -0.9245  2.0349
   19CHTO   C81 7743   4.815   6.762   1.203 -0.5639 -0.2264 -0.1910
   19CHTO  H153 7744   4.869   6.729   1.292  1.0713  0.3898 -0.9256
   19CHTO   N14 7745   4.802   6.646   1.117  0.1877 -0.0809  0.3665
   19CHTO  H141 7746   4.802   6.672   1.013 -0.6112 -0.4503  0.2728
   19CHTO  H142 7747   4.877   6.571   1.131  0.6151  0.2965  0.1195
   19CHTO   C79 7748   4.675   6.822   1.259 -0.8856 -0.0283  0.2240
   19CHTO  H151 7749   4.629   6.745   1.320  0.6026  0.1433  1.6069
   19CHTO   O52 7750   4.705   6.934   1.356  0.5602  0.8750  0.1925
   19CHTO   C86 7751   4.780   7.032   1.287 -0.4486 -0.7733  0.5601
   19CHTO  H158 7752   4.703   7.067   1.215  1.6628  0.2500 -1.2512
   19CHTO   C90 7753   4.798   7.152   1.384 -0.3812  0.1884  0.6231
   19CHTO   O60 7754   4.819   7.276   1.313 -0.0067  0.2809 -0.1219
   19CHTO  H138 7755   4.851   7.346   1.367  1.0358  0.6406 -1.1808
   19CHTO   O50 7756   4.579   6.860   1.155  0.1520  0.3584  0.7644
   19CHTO   C73 7757   4.449   6.876   1.098 -0.0967 -0.0601 -0.6983
   19CHTO  H145 7758   4.397   6.779   1.096 -1.2505  0.5177  0.6967
   19CHTO   C74 7759   4.460   6.936   0.952  0.0999  0.0002  0.8875
   19CHTO  H146 7760   4.514   6.860   0.895 -0.8095  0.4931 -0.6820
   19CHTO   O54 7761   4.324   6.953   0.896  0.5596  0.1212 -0.3060
   19CHTO  H133 7762   4.286   6.867   0.890 -0.5103  0.4037  1.9147
   19CHTO   C75 7763   4.541   7.069   0.955  0.7881  0.2954  0.1172
   19CHTO  H147 7764   4.643   7.046   0.989 -0.7673 -2.5003  3.2176
   19CHTO   N13 7765   4.557   7.136   0.822  0.5081  0.1323 -0.6134
   19CHTO  H139 7766   4.658   7.125   0.785  1.5994  1.9211  1.6411
   19CHTO  H140 7767   4.489   7.082   0.758 -1.8641  0.4704  1.5617
   19CHTO   C76 7768   4.459   7.170   1.066  0.3449  0.3411  0.4633
   19CHTO  H148 7769   4.362   7.199   1.025 -0.4193 -3.1279 -0.3042
   19CHTO   O49 7770   4.436   7.098   1.195  0.3266  0.3513 -0.1525
   19CHTO   C77 7771   4.365   6.977   1.180 -1.0196  0.1956  0.0211
   19CHTO  H149 7772   4.271   6.991   1.126 -2.3596  1.1148  2.5050
   19CHTO   C88 7773   4.332   6.935   1.327 -0.6334 -0.8233  0.1134
   19CHTO   O58 7774   4.234   7.040   1.392  0.1986  0.8045 -0.5964
   19CHTO  H136 7775   4.146   7.018   1.366 -0.1532  0.3882  0.8699
   19CHTO   O51 7776   4.545   7.293   1.103 -0.7587  0.2086 -0.5688
   19CHTO   C78 7777   4.467   7.430   1.106 -0.6361  0.4873  0.6181
   19CHTO  H150 7778   4.358   7.416   1.121 -0.5416  0.4502  1.2981
   19CHTO   C80 7779   4.494   7.506   0.975 -0.3795 -0.1769  0.3360
   19CHTO  H152 7780   4.603   7.495   0.956  0.2447  0.9403  3.0090
   19CHTO   O55 7781   4.436   7.432   0.870 -0.2251  0.0604  0.7779
   19CHTO  H134 7782   4.343   7.441   0.876  0.0050  2.1860  1.5779
   19CHTO   C84 7783   4.448   7.656   0.983  0.4426  0.3486 -0.3546
   19CHTO  H156 7784   4.340   7.666   0.979  0.6258  3.1270  0.4062
   19CHTO   N15 7785   4.489   7.743   0.860 -0.4076 -0.4417 -0.8376
   19CHTO  H143 7786   4.527   7.682   0.781  0.2884  0.1219 -0.9392
   19CHTO  H144 7787   4.407   7.800   0.821 -0.9514 -0.0971  0.7596
   19CHTO   C87 7788   4.483   7.726   1.121  0.5562  0.7370 -0.0388
   19CHTO  H159 7789   4.588   7.755   1.123  0.9345 -0.3697 -2.2037
   19CHTO   O53 7790   4.447   7.631   1.242  0.0498  0.4616  0.4068
   19CHTO   C82 7791   4.513   7.506   1.233  0.4364  0.5684 -0.0257
   19CHTO  H154 7792   4.621   7.514   1.220  0.5712 -1.7021 -0.5592
   19CHTO   C89 7793   4.499   7.436   1.361  0.2494  0.1389 -0.2572
   19CHTO   O59 7794   4.567   7.504   1.468  0.0827 -0.0986  0.3300
   19CHTO  H137 7795   4.661   7.505   1.463  0.0108  0.3666 -1.3193
   19CHTO   O45 7796   4.391   7.864   1.130 -0.2284  0.3758  0.4387
   19CHTO   C67 7797   4.382   7.923   1.264  0.0041  0.0025 -0.7153
   19CHTO  H124 7798   4.356   7.847   1.338 -2.9272 -0.1977 -1.8596
   19CHTO   C65 7799   4.514   8.004   1.297  0.5028 -0.6166 -0.2473
   19CHTO  H122 7800   4.557   8.040   1.204  0.1152  1.8406  0.4781
   19CHTO   O44 7801   4.608   7.921   1.373  0.0575  0.4101 -0.1428
   19CHTO  H102 7802   4.561   7.875   1.439  2.6308  1.1742  2.3154
   19CHTO   C63 7803   4.486   8.153   1.356  0.2907  0.0187 -0.2408
   19CHTO  H120 7804   4.452   8.219   1.276  0.7596  0.6053  0.0417
   19CHTO   N11 7805   4.613   8.220   1.410 -0.0343  0.3001 -0.3354
   19CHTO  H108 7806   4.701   8.179   1.367 -0.6587  0.0902 -1.4354
   19CHTO  H109 7807   4.607   8.327   1.404  0.7763  0.2152 -2.9674
   19CHTO   C61 7808   4.367   8.148   1.459 -0.4916 -0.2728 -0.0455
   19CHTO  H118 7809   4.348   8.253   1.487 -1.1764 -0.4451  0.1430
   19CHTO   O40 7810   4.249   8.101   1.386 -0.2577 -0.3069 -0.2809
   19CHTO   C68 7811   4.262   8.021   1.267  0.5482 -0.4388  0.1190
   19CHTO  H125 7812   4.266   8.090   1.180  1.6707  1.0040  1.2923
   19CHTO   C72 7813   4.128   7.945   1.253 -0.0363  0.4892 -0.2101
   19CHTO   O48 7814   4.080   7.907   1.122  0.6597  0.1660  0.1424
   19CHTO  H105 7815   3.986   7.916   1.125  0.4516  0.5900 -3.8442
   19CHTO   O38 7816   4.399   8.072   1.576  0.3368 -0.5233 -0.3894
   19CHTO   C55 7817   4.295   8.010   1.646 -0.2997 -0.1560  0.2160
   19CHTO  H112 7818   4.241   7.953   1.569  0.7136 -2.4495  1.1651
   19CHTO   C56 7819   4.206   8.100   1.733 -0.4066  0.4368 -0.4451
   19CHTO  H113 7820   4.274   8.150   1.803 -3.0302  2.5836  0.6463
   19CHTO   O42 7821   4.147   8.203   1.649 -0.2433  0.3190 -0.6236
   19CHTO  H100 7822   4.058   8.225   1.668 -0.6536 -0.1881 -1.9014
   19CHTO   C57 7823   4.092   8.013   1.799 -0.7429 -0.0650  0.9107
   19CHTO  H114 7824   4.019   7.982   1.724 -1.5965  0.1245  1.6488
   19CHTO   N10 7825   4.002   8.087   1.897  0.2800  0.2206  0.6087
   19CHTO  H106 7826   3.908   8.109   1.848  1.3519  3.5985 -0.0723
   19CHTO  H107 7827   3.982   8.028   1.985 -0.1415  0.6291  0.7872
   19CHTO   C58 7828   4.142   7.887   1.871 -0.3395 -0.2989 -0.0956
   19CHTO  H115 7829   4.182   7.909   1.972 -1.0410 -2.8173  0.7683
   19CHTO   O37 7830   4.245   7.819   1.795  0.2647 -0.1396  0.0909
   19CHTO   C59 7831   4.349   7.898   1.746 -0.1901  0.1516  0.5052
   19CHTO  H116 7832   4.404   7.946   1.827 -1.4098  0.6575  1.0360
   19CHTO   C70 7833   4.444   7.804   1.675 -0.7122 -0.3990 -0.2828
   19CHTO   O46 7834   4.518   7.733   1.771  0.4130 -0.1863  0.0736
   19CHTO  H103 7835   4.609   7.745   1.752 -0.2309  0.3603 -2.9004
   19CHTO   O39 7836   4.019   7.786   1.889  0.1821  0.0671 -0.3413
   19CHTO   C60 7837   4.019   7.657   1.823 -1.4097  0.6913 -0.4339
   19CHTO  H117 7838   4.083   7.650   1.735 -1.0133 -2.9816  0.0756
   19CHTO   C62 7839   4.057   7.545   1.923  0.0172  1.0544 -0.2836
   19CHTO  H119 7840   4.158   7.567   1.963 -0.2038 -0.5577  1.2041
   19CHTO   O43 7841   3.962   7.545   2.031  0.1952  0.0031  0.5549
   19CHTO  H101 7842   3.876   7.571   2.004 -0.2193 -0.6468  1.2108
   19CHTO   C66 7843   4.042   7.411   1.839 -0.0971 -0.2825  0.3337
   19CHTO  H123 7844   4.100   7.429   1.748 -0.6555  1.3656  0.2751
   19CHTO   N12 7845   4.073   7.293   1.918  0.3754  0.5653  0.1574
   19CHTO  H110 7846   4.017   7.282   2.010 -0.6221  1.7220 -0.3033
   19CHTO  H111 7847   4.179   7.290   1.939  1.2078  2.4412 -3.3174
   19CHTO   C69 7848   3.898   7.391   1.790  0.0270 -0.3283  0.3162
   19CHTO  H126 7849   3.831   7.377   1.877  0.1280  0.4142  0.5161
   19CHTO   O41 7850   3.861   7.479   1.712 -0.3190  0.0620 -0.2509
   19CHTO   C64 7851   3.872   7.635   1.769  0.0624 -0.1740 -0.7158
   19CHTO  H121 7852   3.789   7.649   1.842  0.4540 -0.1014 -0.2787
   19CHTO   C71 7853   3.832   7.720   1.649  0.4575  0.2594 -0.8997
   19CHTO   O47 7854   3.804   7.856   1.699  0.2289  0.0690  0.3628
   19CHTO  H104 7855   3.794   7.910   1.623 -2.5643  0.1075  0.6898
   19CHTO   O34 7856   3.891   7.250   1.688 -0.1459 -0.6321  0.4075
   19CHTO   C49 7857   3.900   7.223   1.530  1.3268  0.7187 -0.5159
   19CHTO   H91 7858   3.903   7.114   1.529 -2.4473  0.5337 -0.9667
   19CHTO   C47 7859   4.030   7.287   1.472 -0.3255 -0.1039  0.5813
   19CHTO   H89 7860   4.054   7.233   1.378  1.2150  2.7486 -0.7435
   19CHTO   O33 7861   4.139   7.245   1.558  0.2263 -0.3834  0.0736
   19CHTO   H70 7862   4.213   7.207   1.515  1.2199 -0.4992  1.8313
   19CHTO   C45 7863   4.016   7.444   1.455 -0.1807 -0.0135 -0.2182
   19CHTO   H87 7864   4.012   7.485   1.556 -0.3286 -1.0695  0.2144
   19CHTO    N8 7865   4.134   7.505   1.393 -0.0834  0.1954  0.1222
   19CHTO   H75 7866   4.128   7.498   1.286  2.8620  1.2442 -0.1358
   19CHTO   H76 7867   4.225   7.458   1.427  0.7422  0.7097 -1.3739
   19CHTO   C43 7868   3.884   7.491   1.381  1.1740 -0.6543  0.5677
   19CHTO   H85 7869   3.867   7.595   1.411 -0.4781 -1.9723  4.4220
   19CHTO   O29 7870   3.776   7.414   1.442 -0.1445  0.0061 -0.3383
   19CHTO   C50 7871   3.776   7.270   1.448 -0.2485  0.4065  0.7432
   19CHTO   H92 7872   3.690   7.238   1.508  0.1113 -0.0812  0.9972
   19CHTO   C54 7873   3.761   7.212   1.312 -0.0821 -0.3390 -0.0406
   19CHTO   O36 7874   3.811   7.079   1.303 -0.5822  0.2925 -0.6542
   19CHTO   H72 7875   3.753   7.016   1.339 -1.0640  0.4618 -1.1255
   19CHTO   O27 7876   3.895   7.471   1.240 -0.8462 -0.3595  0.6061
   19CHTO   C37 7877   3.895   7.461   1.099 -0.3304  0.0630 -0.0661
   19CHTO   H79 7878   3.832   7.376   1.070 -1.2468  0.1620  1.5409
   19CHTO   C38 7879   3.829   7.588   1.035 -0.3231 -0.3350 -1.0725
   19CHTO   H80 7880   3.885   7.676   1.072  2.5090 -2.7017  0.4188
   19CHTO   O31 7881   3.690   7.600   1.072  0.3822 -0.8234  0.1396
   19CHTO   H68 7882   3.650   7.519   1.097 -0.4861  0.2022  2.1989
   19CHTO   C39 7883   3.839   7.588   0.873  0.2287  0.9545 -0.5922
   19CHTO   H81 7884   3.787   7.502   0.830  1.3063 -0.5418  0.9882
   19CHTO    N7 7885   3.779   7.709   0.797 -0.7904 -0.0136  0.2080
   19CHTO   H73 7886   3.729   7.677   0.707 -0.2677  1.3612 -0.5850
   19CHTO   H74 7887   3.862   7.770   0.763 -1.5893  0.4346 -0.9526
   19CHTO   C40 7888   3.993   7.571   0.844  0.3276  0.0322 -0.6116
   19CHTO   H82 7889   4.054   7.655   0.879  2.2460 -1.5487 -0.0753
   19CHTO   O26 7890   4.042   7.447   0.897 -0.0441 -0.3757  0.0928
   19CHTO   C41 7891   4.034   7.438   1.040 -0.1740 -0.5449 -0.1324
   19CHTO   H83 7892   4.098   7.517   1.082 -2.1888  0.3695  1.2916
   19CHTO   C52 7893   4.099   7.310   1.082  0.0257  0.5045  0.1216
   19CHTO   O35 7894   4.018   7.189   1.055  0.1808 -0.2447 -0.0120
   19CHTO   H71 7895   4.012   7.128   1.126  0.1665  0.4947  0.6252
   19CHTO   O28 7896   4.019   7.549   0.703  0.2611 -0.6536 -0.1257
   19CHTO   C42 7897   4.146   7.597   0.651  0.2720 -1.1701 -0.0827
   19CHTO   H84 7898   4.212   7.616   0.736 -0.7821  0.5308  0.3669
   19CHTO   C44 7899   4.134   7.729   0.578  0.2400 -0.4068 -0.6598
   19CHTO   H86 7900   4.062   7.721   0.497 -0.8999  0.2215  0.2607
   19CHTO   O32 7901   4.075   7.831   0.668 -0.0102  0.7152 -0.2059
   19CHTO   H69 7902   4.023   7.888   0.615 -0.1262  0.0531 -0.8153
   19CHTO   C48 7903   4.269   7.786   0.518  0.3776 -0.0665 -0.5493
   19CHTO   H90 7904   4.327   7.812   0.606 -2.5868  2.4945  0.7380
   19CHTO    N9 7905   4.251   7.910   0.434 -0.0344  0.3074  0.3958
   19CHTO   H77 7906   4.164   7.959   0.474 -0.1888  0.5970 -0.2849
   19CHTO   H78 7907   4.236   7.892   0.328  1.9898 -2.2036  0.4569
   19CHTO   C51 7908   4.336   7.674   0.437  0.2437  0.6618  0.4016
   19CHTO   H93 7909   4.289   7.655   0.341  2.5582 -2.3592 -0.2272
   19CHTO   O30 7910   4.343   7.555   0.521  0.5929  0.2743 -0.0563
   19CHTO   C46 7911   4.222   7.502   0.556  0.0689  0.2473 -0.8403
   19CHTO   H88 7912   4.167   7.490   0.463 -0.1755 -1.3115 -0.5133
   19CHTO   C53 7913   4.242   7.360   0.626  0.1217 -0.8450  0.8553
   19CHTO   O72 7914   4.270   7.260   0.527  0.5248 -0.5559 -0.1577
   19CHTO  H199 7915   4.360   7.264   0.502  0.3881  1.1484 -0.4692
   19CHTO   O22 7916   4.474   7.706   0.416  0.3307  0.3629 -0.0992
   19CHTO   C31 7917   4.575   7.622   0.358  0.0997  0.8246 -0.2453
   19CHTO   H59 7918   4.536   7.518   0.354  0.9706  0.2094  4.7333
   19CHTO   C29 7919   4.606   7.666   0.216 -0.6670 -0.3626  0.0632
   19CHTO   H57 7920   4.651   7.765   0.232  3.0068 -2.1644  1.1713
   19CHTO   O21 7921   4.483   7.684   0.142  0.5121  0.5291  0.2482
   19CHTO   H37 7922   4.440   7.601   0.146  0.4517  0.5300 -0.4199
   19CHTO   C27 7923   4.713   7.565   0.144  0.7272  0.4225  0.0983
   19CHTO   H55 7924   4.666   7.467   0.130  0.2533  0.7883 -0.8646
   19CHTO    N5 7925   4.757   7.616   0.013 -0.3561  0.1307 -0.1340
   19CHTO   H43 7926   4.815   7.708   0.015  1.2392 -0.8413 -0.8524
   19CHTO   H44 7927   4.807   7.543  -0.049 -4.1170 -0.6116 -2.4008
   19CHTO   C25 7928   4.835   7.548   0.243  0.2025  0.2444 -0.2289
   19CHTO   H53 7929   4.886   7.645   0.245 -0.1271  0.4084  1.3717
   19CHTO   O17 7930   4.795   7.514   0.379  0.1986  0.2754  0.3410
   19CHTO   C32 7931   4.711   7.603   0.445  0.2644 -0.4598  0.3127
   19CHTO   H60 7932   4.764   7.698   0.445 -1.5890  0.6235  2.0743
   19CHTO   C36 7933   4.691   7.546   0.588  0.0549 -0.3437 -0.7033
   19CHTO   O25 7934   4.645   7.415   0.593  0.0404  0.8467  0.5047
   19CHTO   H40 7935   4.704   7.370   0.534 -1.3252  0.0215 -0.2549
   19CHTO   O15 7936   4.934   7.446   0.202 -0.0292  0.5599 -0.0537
   19CHTO   C19 7937   4.952   7.338   0.107  0.2750 -0.4007  0.0336
   19CHTO   H47 7938   4.882   7.366   0.027  1.0564 -1.1090 -0.9112
   19CHTO   C20 7939   5.102   7.325   0.047  0.8397 -0.4814 -0.8414
   19CHTO   H48 7940   5.178   7.324   0.127  0.2465  0.4953 -0.2640
   19CHTO   O19 7941   5.123   7.454  -0.021  0.2217  0.4994  0.2239
   19CHTO   H35 7942   5.211   7.458  -0.054  0.3336  0.4020  0.5033
   19CHTO   C21 7943   5.130   7.207  -0.056 -0.0900  0.0354 -0.0158
   19CHTO   H49 7944   5.086   7.239  -0.151  1.5245  1.2716 -0.3602
   19CHTO    N4 7945   5.270   7.182  -0.096  0.2863  0.3338 -0.3153
   19CHTO   H41 7946   5.338   7.230  -0.028  1.9232 -0.2638 -1.5051
   19CHTO   H42 7947   5.286   7.075  -0.089  2.2503  0.5992 -0.5188
   19CHTO   C22 7948   5.060   7.083   0.006  0.0221  0.1779 -0.7223
   19CHTO   H50 7949   5.124   7.032   0.078  1.9060  1.6627 -1.3281
   19CHTO   O14 7950   4.926   7.106   0.049 -0.7231  0.0963  0.4195
   19CHTO   C23 7951   4.909   7.197   0.153  0.6723 -0.2721  0.3463
   19CHTO   H51 7952   4.979   7.155   0.228  1.6274 -0.4035 -0.6020
   19CHTO   C34 7953   4.763   7.196   0.205 -0.3546 -0.1456 -0.1653
   19CHTO   O23 7954   4.721   7.062   0.225 -0.2320 -0.2618  0.6259
   19CHTO   H38 7955   4.636   7.059   0.266 -1.0840 -2.6901 -1.1872
   19CHTO   O16 7956   5.027   6.994  -0.103  0.2565  0.0045 -0.3541
   19CHTO   C24 7957   5.103   6.861  -0.119 -0.9117 -0.8960 -0.4379
   19CHTO   H52 7958   5.204   6.871  -0.079 -1.4492 -1.1841  0.9988
   19CHTO   C26 7959   5.108   6.828  -0.267  0.3395 -0.3758 -0.6394
   19CHTO   H54 7960   5.005   6.834  -0.308  0.6202  0.3259 -1.2657
   19CHTO   O20 7961   5.173   6.927  -0.344  0.3177 -0.3118 -0.5304
   19CHTO   H36 7962   5.202   6.901  -0.429  1.9107 -0.6391  0.0913
   19CHTO   C30 7963   5.171   6.685  -0.287 -0.5742  0.4946  0.3087
   19CHTO   H58 7964   5.277   6.676  -0.259 -0.5203 -1.3242 -0.4232
   19CHTO    N6 7965   5.158   6.659  -0.435  0.1198 -0.2069  0.4322
   19CHTO   H45 7966   5.076   6.595  -0.462  0.6305 -0.7613  0.1882
   19CHTO   H46 7967   5.248   6.624  -0.482 -0.1038 -0.4792  0.2068
   19CHTO   C33 7968   5.095   6.574  -0.200  0.7986 -0.4999 -0.0828
   19CHTO   H61 7969   4.990   6.565  -0.231  0.5706  0.0152  0.5244
   19CHTO   O18 7970   5.092   6.621  -0.065  0.1184  0.4476 -0.0898
   19CHTO   C28 7971   5.039   6.748  -0.041 -0.1635  0.2408 -0.9089
   19CHTO   H56 7972   4.933   6.744  -0.067 -0.1451  1.8111 -1.2593
   19CHTO   C35 7973   5.064   6.778   0.108 -0.0492 -0.4778  0.2803
   19CHTO   O24 7974   4.980   6.694   0.189  0.5153  0.4657 -0.0899
   19CHTO   H39 7975   5.007   6.604   0.193 -3.2207 -0.6883  2.5761
   19CHTO    O9 7976   5.153   6.446  -0.212 -0.8241  0.1197 -0.0872
   19CHTO   C13 7977   5.033   6.319  -0.204 -0.7646  0.7498 -0.1753
   19CHTO   H26 7978   4.950   6.343  -0.273 -1.6748 -1.4571  0.1115
   19CHTO   C11 7979   4.984   6.294  -0.055  0.0048  0.5435  0.7642
   19CHTO   H24 7980   4.933   6.388  -0.030  0.0616  0.3278  1.6965
   19CHTO    O8 7981   5.094   6.258   0.025  0.6547 -0.3571  0.2406
   19CHTO    H3 7982   5.152   6.326   0.054  0.4106  0.0349 -0.1802
   19CHTO    C9 7983   4.873   6.185  -0.071 -0.4096  0.8104 -0.8502
   19CHTO   H22 7984   4.815   6.223  -0.157  0.9782  0.3865 -2.0068
   19CHTO    N2 7985   4.784   6.176   0.042  0.2936  0.6434  0.5731
   19CHTO   H10 7986   4.699   6.114   0.018  1.4622  0.4914 -3.4824
   19CHTO   H11 7987   4.752   6.275   0.071 -0.5952  0.2808  0.8638
   19CHTO    C7 7988   4.944   6.045  -0.123 -0.2262  0.1639 -0.1711
   19CHTO   H20 7989   4.875   5.996  -0.195  0.4931  1.5625 -1.8528
   19CHTO    O4 7990   5.072   6.066  -0.186 -0.1331  0.6476  0.6446
   19CHTO   C14 7991   5.092   6.183  -0.267  0.6862 -0.3473 -0.3153
   19CHTO   H27 7992   5.036   6.163  -0.362  0.9449  1.0266 -0.7600
   19CHTO   C18 7993   5.238   6.196  -0.310  0.0636 -0.2071  0.2171
   19CHTO   O13 7994   5.275   6.073  -0.376 -0.3559 -0.1407 -0.3102
   19CHTO    H7 7995   5.348   6.035  -0.332 -1.0310 -0.7522  0.2859
   19CHTO    O2 7996   4.959   5.927  -0.015 -0.0026  0.1224 -0.4363
   19CHTO    C1 7997   4.942   5.790  -0.048 -0.0553 -0.6666  0.4880
   19CHTO   H14 7998   4.989   5.779  -0.148 -1.0974 -0.1491 -0.0547
   19CHTO    C2 7999   4.791   5.758  -0.061 -0.2312  0.3261  0.0652
   19CHTO   H15 8000   4.749   5.806   0.028  0.8674 -2.4057  2.1316
   19CHTO    O6 8001   4.739   5.822  -0.179  0.2919 -0.0438 -0.1147
   19CHTO    H1 8002   4.722   5.760  -0.248  0.4101 -1.1444  0.8270
   19CHTO    C3 8003   4.762   5.601  -0.066  0.2510  0.4728  0.0701
   19CHTO   H16 8004   4.798   5.553  -0.159 -1.9664  0.0395 -0.6010
   19CHTO    N1 8005   4.613   5.572  -0.068  0.1561 -0.4212 -0.2923
   19CHTO    H8 8006   4.574   5.630  -0.150 -0.5546  0.3752  0.5970
   19CHTO    H9 8007   4.597   5.469  -0.099  0.2033  0.0887 -2.0758
   19CHTO    C4 8008   4.841   5.533   0.048  0.3346 -0.2150  0.2526
   19CHTO   H17 8009   4.807   5.572   0.145 -1.7194 -2.3534  0.4226
   19CHTO    O1 8010   4.975   5.557   0.022  0.0331 -0.1320  0.0051
   19CHTO    C5 8011   5.013   5.691   0.044  0.9005  0.6726 -0.0559
   19CHTO   H18 8012   4.990   5.719   0.147 -1.8004 -1.0676 -0.1241
   19CHTO   C16 8013   5.167   5.691   0.021  0.4412  0.1415  0.8917
   19CHTO   O11 8014   5.238   5.632   0.122 -0.3329  0.1090 -0.1474
   19CHTO    H5 8015   5.317   5.609   0.076  0.3108  0.6174  0.6862
   19CHTO    O3 8016   4.831   5.387   0.050 -0.2914  0.4027  0.3499
   19CHTO    C6 8017   4.809   5.332   0.185 -0.2168  0.0884  0.0108
   19CHTO   H19 8018   4.774   5.409   0.254 -1.3641  1.8826 -2.4759
   19CHTO    C8 8019   4.696   5.224   0.167  0.2252 -0.1108 -0.3754
   19CHTO   H21 8020   4.735   5.146   0.101  1.3252  1.0306 -1.1001
   19CHTO    O7 8021   4.581   5.284   0.113  0.5962 -0.3798 -1.0901
   19CHTO    H2 8022   4.595   5.300   0.021  1.3578 -1.5811 -1.2052
   19CHTO   C12 8023   4.671   5.164   0.313 -0.5330  0.6525  0.5002
   19CHTO   H25 8024   4.634   5.255   0.365 -3.3970  1.8525 -3.3918
   19CHTO    N3 8025   4.566   5.065   0.320  0.4192  0.0417  0.1713
   19CHTO   H12 8026   4.469   5.103   0.294  0.1793 -1.1889 -0.7904
   19CHTO   H13 8027   4.575   5.017   0.416  3.7561 -2.3712 -1.2228
   19CHTO   C15 8028   4.809   5.118   0.380  0.1097 -0.3442  0.1771
   19CHTO   H28 8029   4.845   5.025   0.334 -1.4919 -1.0839  0.3848
   19CHTO   O10 8030   4.816   5.090   0.535 -0.0155  0.4501  0.3327
   19CHTO    H4 8031   4.794   5.170   0.579 -1.0394  0.0074  0.6522
   19CHTO    O5 8032   4.916   5.217   0.371  0.5831 -0.0184  0.3115
   19CHTO   C10 8033   4.942   5.271   0.239  0.4248  0.4463 -0.0752
   19CHTO   H23 8034   4.964   5.192   0.168  2.0564 -0.0306  0.9319
   19CHTO   C17 8035   5.066   5.364   0.245 -0.3959  0.8341 -1.0655
   19CHTO   O12 8036   5.187   5.296   0.276  0.7619 -0.2834 -0.0807
   19CHTO    H6 8037   5.257   5.359   0.286 -0.8805  1.6623 -0.4684
   20CHTO  H203 8038   4.589   1.095   1.806 -1.6325  1.8481 -0.3291
   20CHTO   O82 8039   4.667   1.147   1.802 -0.2682 -0.1249 -0.0328
   20CHTO  C123 8040   4.670   1.241   1.696 -0.1805 -0.3370 -0.1189
   20CHTO  H227 8041   4.574   1.295   1.696  0.1799  0.3101 -0.1569
   20CHTO   O77 8042   4.772   1.327   1.756  0.4828  0.6180 -0.6270
   20CHTO  C118 8043   4.800   1.445   1.684  0.0738 -0.1560 -0.9027
   20CHTO  H222 8044   4.712   1.510   1.674  0.4683  0.5919  0.2992
   20CHTO  C125 8045   4.898   1.530   1.774 -0.4439  1.2790  0.6127
   20CHTO   O84 8046   5.028   1.467   1.802  0.2124  0.5011 -0.3598
   20CHTO  H205 8047   5.067   1.502   1.880 -2.7546  0.7324  1.0739
   20CHTO  C114 8048   4.865   1.405   1.552  0.3270 -0.5915 -0.6047
   20CHTO  H218 8049   4.957   1.354   1.581  0.3615  0.3783  1.0282
   20CHTO  C116 8050   4.766   1.311   1.477  0.6252 -0.5990 -0.0982
   20CHTO  H220 8051   4.673   1.363   1.445 -0.4654 -1.7304  1.1805
   20CHTO   O79 8052   4.841   1.271   1.360  0.0894  0.1438 -0.0232
   20CHTO  H201 8053   4.782   1.226   1.302  1.6286 -2.8967  0.7154
   20CHTO  C120 8054   4.723   1.189   1.565 -0.3253 -0.4463 -0.0185
   20CHTO  H224 8055   4.814   1.130   1.591  0.6435  0.1752 -1.9537
   20CHTO   N21 8056   4.632   1.100   1.486  0.3948 -0.6905 -0.3252
   20CHTO  H211 8057   4.698   1.057   1.412  2.6125 -0.1739  1.2997
   20CHTO  H212 8058   4.581   1.024   1.543  0.9923 -0.9171 -0.0931
   20CHTO   O75 8059   4.889   1.532   1.491  0.2913  0.0784 -0.2344
   20CHTO  C112 8060   4.992   1.529   1.360  0.0361 -0.2937  0.1937
   20CHTO  H216 8061   4.956   1.477   1.270  0.0410  0.3066 -0.1570
   20CHTO   O73 8062   5.118   1.476   1.404 -0.0473  0.6296 -0.2103
   20CHTO  C113 8063   5.222   1.454   1.308 -0.1915  0.0865 -0.8504
   20CHTO  H217 8064   5.182   1.370   1.246 -0.9841  1.1781 -1.8291
   20CHTO  C124 8065   5.341   1.419   1.394 -0.6915 -0.4836  0.2762
   20CHTO   O83 8066   5.459   1.395   1.318  0.3985 -0.4176  0.1912
   20CHTO  H204 8067   5.531   1.398   1.377  1.2269  1.8310 -0.8770
   20CHTO  C109 8068   5.253   1.579   1.215  0.2545 -0.1881  0.0582
   20CHTO  H213 8069   5.325   1.642   1.269 -0.8486  1.3417 -0.2148
   20CHTO  C110 8070   5.123   1.668   1.190  0.6602 -0.4496 -0.1066
   20CHTO  H214 8071   5.071   1.626   1.104 -0.1586  1.1992 -0.4354
   20CHTO   O78 8072   5.169   1.791   1.150  0.2294  0.7023 -0.1035
   20CHTO  H200 8073   5.097   1.851   1.141 -2.0040 -1.7755  0.3599
   20CHTO  C111 8074   5.027   1.671   1.307 -0.1448 -0.5953  0.3110
   20CHTO  H215 8075   5.073   1.729   1.388  0.6408  0.8421 -1.1493
   20CHTO   N19 8076   4.893   1.733   1.279  0.0947  0.0565  0.3329
   20CHTO  H207 8077   4.816   1.662   1.249 -1.3934  1.0358  1.8039
   20CHTO  H208 8078   4.902   1.812   1.206 -3.4037 -0.7255 -1.0627
   20CHTO   O74 8079   5.323   1.540   1.091  0.2965 -0.0181 -0.3329
   20CHTO  C115 8080   5.437   1.640   1.023  0.1477  0.7670 -0.5100
   20CHTO  H219 8081   5.433   1.740   1.067 -1.2473  0.4008  0.2217
   20CHTO   O76 8082   5.576   1.591   1.037  0.1875  0.9582 -0.0560
   20CHTO  C122 8083   5.596   1.475   0.957  0.1987 -0.6401  0.1484
   20CHTO  H226 8084   5.516   1.403   0.976 -1.5189  1.2219  0.0523
   20CHTO  C126 8085   5.733   1.410   1.019 -0.2995  0.1787 -0.2454
   20CHTO   O85 8086   5.727   1.386   1.159 -0.1836  0.2574  0.1600
   20CHTO  H206 8087   5.688   1.302   1.172  0.2375  0.0093 -0.1993
   20CHTO  C121 8088   5.614   1.505   0.812 -0.5955 -0.2806 -0.2018
   20CHTO  H225 8089   5.723   1.526   0.798 -0.7660 -0.0181 -1.2286
   20CHTO   O81 8090   5.567   1.393   0.739  0.8769 -0.7801 -0.5248
   20CHTO  H202 8091   5.474   1.389   0.745  1.0311 -0.9259  2.0192
   20CHTO  C119 8092   5.532   1.638   0.778  0.2363 -0.1422 -0.2868
   20CHTO  H223 8093   5.599   1.721   0.801 -2.4847  1.5101  1.9362
   20CHTO  C117 8094   5.402   1.662   0.871 -0.6320  0.0365 -0.0123
   20CHTO  H221 8095   5.321   1.591   0.852  0.5241 -1.3794  0.2191
   20CHTO   N20 8096   5.343   1.795   0.837  0.3730  0.0273  0.1459
   20CHTO  H209 8097   5.241   1.785   0.870  1.0045 -1.6654  1.6651
   20CHTO  H210 8098   5.374   1.874   0.903 -1.9845 -1.2537  2.9095
   20CHTO   O80 8099   5.514   1.653   0.607  0.7386  0.2824 -0.8888
   20CHTO  C103 8100   5.650   1.675   0.518 -0.2488 -0.1412 -0.1908
   20CHTO  H190 8101   5.735   1.659   0.584  0.9535  0.1329 -1.6424
   20CHTO  C101 8102   5.670   1.577   0.399  0.2187  0.1153 -0.0932
   20CHTO  H188 8103   5.573   1.540   0.364  0.6275 -0.2688 -0.8242
   20CHTO   O68 8104   5.731   1.449   0.457 -0.1965  0.1612 -0.6839
   20CHTO  H168 8105   5.816   1.473   0.488 -0.3361  0.0856 -0.2475
   20CHTO   C99 8106   5.761   1.634   0.279  0.2252 -0.2998 -0.4868
   20CHTO  H186 8107   5.869   1.627   0.306  0.5656 -0.5073 -1.8926
   20CHTO   N17 8108   5.746   1.543   0.157  0.7022 -0.8740  0.2471
   20CHTO  H174 8109   5.712   1.602   0.074  0.2486  0.2625  1.2190
   20CHTO  H175 8110   5.673   1.470   0.191 -1.4491  1.3834  0.6189
   20CHTO   C97 8111   5.729   1.779   0.251 -0.2114 -0.2397  0.0935
   20CHTO  H184 8112   5.624   1.779   0.220 -0.1144  0.6259 -0.2427
   20CHTO   O64 8113   5.747   1.861   0.368  0.0227 -0.2124 -0.0142
   20CHTO  C104 8114   5.650   1.831   0.477  0.0219  0.0655 -0.2619
   20CHTO  H191 8115   5.548   1.860   0.453  0.4237  0.5210 -1.4781
   20CHTO  C108 8116   5.704   1.912   0.606  0.1345 -0.2202 -0.0576
   20CHTO   O71 8117   5.831   1.868   0.661  0.6852  0.6192  0.0663
   20CHTO  H171 8118   5.820   1.777   0.683 -1.9621  0.7962 -0.2664
   20CHTO   O62 8119   5.807   1.844   0.148  0.2228 -0.7541 -0.3721
   20CHTO   C91 8120   5.763   1.973   0.104 -0.3428 -0.4145  0.9211
   20CHTO  H178 8121   5.723   2.030   0.188 -1.6717 -0.7767  0.5555
   20CHTO   C92 8122   5.647   1.974  -0.006 -0.5793  0.4306 -0.0111
   20CHTO  H179 8123   5.683   1.915  -0.091 -1.2261 -1.3567  0.9311
   20CHTO   O66 8124   5.529   1.903   0.035 -0.1507  0.0321  0.1911
   20CHTO  H166 8125   5.487   1.874  -0.044  2.2334  0.1870 -1.1867
   20CHTO   C93 8126   5.615   2.123  -0.044 -0.4441 -0.4413 -0.1013
   20CHTO  H180 8127   5.562   2.162   0.044 -1.1805  0.9714 -1.1396
   20CHTO   N16 8128   5.518   2.138  -0.158 -0.3297 -0.0651 -0.0001
   20CHTO  H172 8129   5.509   2.244  -0.180 -2.9698 -0.0139  1.1954
   20CHTO  H173 8130   5.431   2.081  -0.130  0.1408 -0.9225 -0.2667
   20CHTO   C94 8131   5.745   2.210  -0.073  0.1361 -0.2353  0.5733
   20CHTO  H181 8132   5.788   2.182  -0.169 -2.5508  1.0844 -1.1024
   20CHTO   O61 8133   5.852   2.195   0.024 -0.4127  0.2953  0.1181
   20CHTO   C95 8134   5.890   2.062   0.051  0.0652  0.0018 -0.4425
   20CHTO  H182 8135   5.918   2.020  -0.045  0.1375  0.8559 -0.8044
   20CHTO  C106 8136   6.013   2.057   0.150  0.1748  0.6547 -0.1090
   20CHTO   O69 8137   6.133   2.121   0.107 -0.2437 -0.0901 -0.4774
   20CHTO  H169 8138   6.200   2.064   0.139 -0.6044 -0.0640  0.3622
   20CHTO   O63 8139   5.720   2.353  -0.072 -0.4746 -0.4722  0.2999
   20CHTO   C96 8140   5.691   2.427  -0.218 -0.0174 -0.4181 -0.1136
   20CHTO  H183 8141   5.605   2.373  -0.258 -0.6467 -0.5998  1.4402
   20CHTO   C98 8142   5.804   2.453  -0.322 -0.3709  0.5827 -0.1239
   20CHTO  H185 8143   5.885   2.507  -0.271  0.5862 -0.5611 -0.3924
   20CHTO   O67 8144   5.862   2.333  -0.366  1.1384  0.1022  0.3619
   20CHTO  H167 8145   5.836   2.315  -0.454  0.7467 -0.2802  0.5538
   20CHTO  C102 8146   5.744   2.540  -0.443 -0.0142  0.2423  0.1464
   20CHTO  H189 8147   5.670   2.477  -0.496  0.9343  0.1897 -1.1465
   20CHTO   N18 8148   5.841   2.586  -0.545 -0.9319 -0.6532  0.3060
   20CHTO  H176 8149   5.909   2.654  -0.497 -1.2832 -1.0900  1.4444
   20CHTO  H177 8150   5.885   2.506  -0.603 -0.3927  0.0481 -0.2442
   20CHTO  C105 8151   5.662   2.663  -0.395  0.8982 -0.1767 -0.2940
   20CHTO  H192 8152   5.733   2.738  -0.360  1.7433 -1.0079 -0.1966
   20CHTO   O65 8153   5.574   2.628  -0.288  0.9587  0.4384  0.2855
   20CHTO  C100 8154   5.628   2.562  -0.180 -0.2486 -0.4277  0.2710
   20CHTO  H187 8155   5.698   2.628  -0.127  1.4501 -0.6157 -1.6573
   20CHTO  C107 8156   5.504   2.529  -0.085  0.3172 -0.8653  0.2542
   20CHTO   O70 8157   5.478   2.641  -0.001  0.2688 -0.1941 -0.2421
   20CHTO  H170 8158   5.401   2.611   0.042  0.3311 -0.5716 -0.3879
   20CHTO   O57 8159   5.572   2.704  -0.519  0.4998 -0.1723  0.0437
   20CHTO   C85 8160   5.512   2.839  -0.523  0.5903  0.4088 -0.1649
   20CHTO  H157 8161   5.518   2.871  -0.417  3.5876 -1.3229  0.2520
   20CHTO   C83 8162   5.364   2.830  -0.566 -0.6907  0.2290  0.0092
   20CHTO  H155 8163   5.316   2.774  -0.486  0.0524 -1.3892 -0.6489
   20CHTO   O56 8164   5.368   2.746  -0.682 -0.2918  0.3205 -0.5281
   20CHTO  H135 8165   5.408   2.663  -0.665 -0.6150 -0.1408 -1.9046
   20CHTO   C81 8166   5.302   2.975  -0.578 -0.1094 -0.6011  0.5166
   20CHTO  H153 8167   5.307   3.019  -0.478  2.9678 -1.6187  0.8711
   20CHTO   N14 8168   5.158   2.985  -0.616  0.9398  0.0752 -0.2255
   20CHTO  H141 8169   5.115   2.890  -0.641  1.3249 -0.5242  1.3705
   20CHTO  H142 8170   5.108   3.027  -0.532 -0.1033 -0.9883 -0.2998
   20CHTO   C79 8171   5.386   3.061  -0.683  0.1974 -0.3911 -0.4462
   20CHTO  H151 8172   5.353   3.165  -0.675 -0.3279 -0.5800 -0.0725
   20CHTO   O52 8173   5.526   3.067  -0.644 -0.3719  0.2242 -0.5812
   20CHTO   C86 8174   5.595   2.939  -0.616 -0.4488  0.1601  0.0331
   20CHTO  H158 8175   5.617   2.892  -0.714  0.4995 -0.5345  0.5653
   20CHTO   C90 8176   5.740   2.954  -0.551 -0.4621  0.1130  0.0108
   20CHTO   O60 8177   5.736   3.053  -0.445 -0.0947  0.4736  0.1656
   20CHTO  H138 8178   5.791   3.026  -0.373  1.5766 -1.6937 -1.8532
   20CHTO   O50 8179   5.379   3.008  -0.817  0.4221 -0.1772 -0.2185
   20CHTO   C73 8180   5.419   2.954  -0.948  0.0336  0.6191 -0.7711
   20CHTO  H145 8181   5.408   2.845  -0.947  0.5258  0.5716  0.9575
   20CHTO   C74 8182   5.551   3.003  -0.997 -0.8378 -0.7320 -0.4061
   20CHTO  H146 8183   5.620   2.967  -0.919 -0.5176 -0.2066 -0.4493
   20CHTO   O54 8184   5.588   2.927  -1.115 -0.1259 -0.5335 -0.1354
   20CHTO  H133 8185   5.676   2.945  -1.143  0.6172  1.7834  3.3854
   20CHTO   C75 8186   5.553   3.161  -1.011  0.4736  0.1476 -0.2214
   20CHTO  H147 8187   5.536   3.196  -0.908 -1.4365  0.0910 -0.5055
   20CHTO   N13 8188   5.688   3.205  -1.056 -0.1496  0.1970  0.6945
   20CHTO  H139 8189   5.758   3.244  -0.984  1.6837 -2.1201  0.2453
   20CHTO  H140 8190   5.681   3.273  -1.140 -1.3592  2.0258  2.2372
   20CHTO   C76 8191   5.426   3.198  -1.098  0.7004  0.4184  0.2280
   20CHTO  H148 8192   5.456   3.164  -1.198 -0.0319  0.7571 -0.1060
   20CHTO   O49 8193   5.308   3.135  -1.034 -0.4608  0.4671  0.5044
   20CHTO   C77 8194   5.312   2.999  -1.042  0.4591  1.0520 -0.2370
   20CHTO  H149 8195   5.327   2.953  -1.140 -0.7597 -1.4044  0.7102
   20CHTO   C88 8196   5.175   2.951  -0.994 -0.0228  0.1834  0.2850
   20CHTO   O58 8197   5.181   2.805  -0.998  0.4740 -0.5361 -0.0805
   20CHTO  H136 8198   5.101   2.781  -1.041  0.4600 -0.5251 -0.0597
   20CHTO   O51 8199   5.395   3.378  -1.078  0.1043 -0.8662  0.1614
   20CHTO   C78 8200   5.293   3.413  -0.940  0.0283 -0.4040  0.0363
   20CHTO  H150 8201   5.299   3.327  -0.869  1.2450 -0.8197 -0.5405
   20CHTO   C80 8202   5.146   3.436  -0.977  0.6624  0.0910 -0.5014
   20CHTO  H152 8203   5.135   3.521  -1.047  1.5582  2.1617  1.8000
   20CHTO   O55 8204   5.101   3.324  -1.049  0.2509  0.0850 -0.5069
   20CHTO  H134 8205   5.142   3.328  -1.134  1.4537 -3.5778 -0.2093
   20CHTO   C84 8206   5.046   3.461  -0.851 -0.6249  0.2181  0.0954
   20CHTO  H156 8207   5.048   3.372  -0.790 -0.7901  0.7359  0.8569
   20CHTO   N15 8208   4.905   3.496  -0.888  0.4805  0.3192 -0.4367
   20CHTO  H143 8209   4.890   3.593  -0.932 -1.4506  1.1552  1.9471
   20CHTO  H144 8210   4.836   3.479  -0.809  0.0887  3.2619 -0.0694
   20CHTO   C87 8211   5.116   3.579  -0.776  0.6452  0.1271  0.0872
   20CHTO  H159 8212   5.117   3.667  -0.840 -3.2262  2.1310  2.5478
   20CHTO   O53 8213   5.281   3.549  -0.746 -0.8001  0.5688 -0.1867
   20CHTO   C82 8214   5.352   3.536  -0.869 -0.5586 -0.3138 -0.0473
   20CHTO  H154 8215   5.350   3.622  -0.937 -0.0874 -0.1334  0.1643
   20CHTO   C89 8216   5.494   3.508  -0.837  0.4683 -0.2692 -0.1257
   20CHTO   O59 8217   5.523   3.390  -0.764  0.0498  0.3364  0.4179
   20CHTO  H137 8218   5.529   3.406  -0.672 -3.6343 -0.0339  0.8049
   20CHTO   O45 8219   5.025   3.616  -0.646  0.1806 -0.2221 -0.1098
   20CHTO   C67 8220   5.069   3.538  -0.534  0.6850  0.6078  1.1011
   20CHTO  H124 8221   5.143   3.464  -0.566 -0.4814 -0.5781  1.0728
   20CHTO   C65 8222   5.143   3.627  -0.434  0.4891 -0.2482  0.0140
   20CHTO  H122 8223   5.140   3.725  -0.482  1.3841 -0.5698 -0.7094
   20CHTO   O44 8224   5.279   3.585  -0.420 -0.4176 -0.4845  0.4383
   20CHTO  H102 8225   5.334   3.630  -0.481 -0.3977  0.7567  1.3592
   20CHTO   C63 8226   5.061   3.653  -0.298 -0.0525 -0.6567  0.2533
   20CHTO  H120 8227   4.963   3.696  -0.316  0.7149  1.2685  0.5641
   20CHTO   N11 8228   5.123   3.750  -0.209  0.4294  0.4037  0.1607
   20CHTO  H108 8229   5.069   3.758  -0.117  0.8011  0.9928  0.3306
   20CHTO  H109 8230   5.220   3.709  -0.189 -0.8346 -1.9246  1.7253
   20CHTO   C61 8231   5.037   3.517  -0.224 -0.4387 -0.2805  0.2474
   20CHTO  H118 8232   4.954   3.537  -0.154 -1.3693 -0.6319 -0.7376
   20CHTO   O40 8233   4.990   3.411  -0.316 -0.1285  0.0775 -0.7451
   20CHTO   C68 8234   4.944   3.453  -0.461  0.2019  0.0698 -0.1561
   20CHTO  H125 8235   4.853   3.516  -0.457 -1.4856 -1.5827 -7.0226
   20CHTO   C72 8236   4.898   3.324  -0.539 -0.3919  0.5256 -0.6512
   20CHTO   O48 8237   4.801   3.239  -0.475  0.0599  0.6413  0.2360
   20CHTO  H105 8238   4.817   3.245  -0.383 -0.7102 -2.1342  0.5893
   20CHTO   O38 8239   5.147   3.456  -0.147 -0.0740  0.0592  0.4738
   20CHTO   C55 8240   5.131   3.349  -0.054 -0.1298  0.5845 -0.0859
   20CHTO  H112 8241   5.028   3.311  -0.056 -0.4077  1.3767 -0.9306
   20CHTO   C56 8242   5.166   3.420   0.087  0.0698  0.4399 -0.2165
   20CHTO  H113 8243   5.260   3.476   0.081 -0.2410  1.1054  0.9983
   20CHTO   O42 8244   5.067   3.520   0.125  0.0023  0.1976  0.5817
   20CHTO  H100 8245   5.104   3.601   0.095  0.0029 -0.1624 -0.4441
   20CHTO   C57 8246   5.183   3.315   0.201  1.1979 -0.3676  0.2002
   20CHTO  H114 8247   5.082   3.289   0.235  0.5596  0.6715 -0.8756
   20CHTO   N10 8248   5.250   3.370   0.322  0.2470  0.1297  0.0975
   20CHTO  H106 8249   5.337   3.422   0.286  0.4882  1.6684  2.7430
   20CHTO  H107 8250   5.188   3.443   0.371  0.1520  0.2309 -0.1730
   20CHTO   C58 8251   5.252   3.190   0.146  0.0770  0.6598  0.9994
   20CHTO  H115 8252   5.361   3.210   0.143  0.0748  0.5733 -4.2256
   20CHTO   O37 8253   5.206   3.141   0.014 -0.1898 -0.4096 -0.6764
   20CHTO   C59 8254   5.232   3.244  -0.083  0.3473  0.6856  0.1756
   20CHTO  H116 8255   5.329   3.290  -0.070 -0.4581  2.1598  1.1564
   20CHTO   C70 8256   5.210   3.184  -0.223 -0.5248 -0.0533  0.0753
   20CHTO   O46 8257   5.104   3.090  -0.227  0.0026 -0.9616 -0.5759
   20CHTO  H103 8258   5.093   3.059  -0.315 -0.4899  0.2706 -0.9518
   20CHTO   O39 8259   5.214   3.070   0.251  0.2067  0.0360  0.2176
   20CHTO   C60 8260   5.313   2.966   0.260 -0.8195 -0.0063  0.2353
   20CHTO  H117 8261   5.391   2.981   0.185 -0.2524 -2.2485  0.3564
   20CHTO   C62 8262   5.397   2.979   0.386  0.6549  0.4355 -0.2085
   20CHTO  H119 8263   5.456   3.073   0.387  0.3626  0.6261  1.3467
   20CHTO   O43 8264   5.320   2.989   0.506  0.1705 -0.5504 -0.6514
   20CHTO  H101 8265   5.266   3.065   0.513 -1.9366 -2.1454  0.8900
   20CHTO   C66 8266   5.503   2.855   0.386  0.0507 -1.3188 -0.4363
   20CHTO  H123 8267   5.554   2.842   0.290  1.8629 -0.9814  0.4504
   20CHTO   N12 8268   5.616   2.876   0.482  0.1372  0.0784 -0.0802
   20CHTO  H110 8269   5.651   2.786   0.530 -3.2439 -0.8116  0.9117
   20CHTO  H111 8270   5.701   2.928   0.441  0.5375 -1.4410 -1.2003
   20CHTO   C69 8271   5.428   2.723   0.393 -0.2954  0.3515  0.7224
   20CHTO  H126 8272   5.361   2.723   0.482 -0.6487 -0.5756  0.4616
   20CHTO   O41 8273   5.344   2.709   0.248  0.1304 -0.3295 -0.3361
   20CHTO   C64 8274   5.247   2.827   0.235  0.2472 -0.2969 -0.4262
   20CHTO  H121 8275   5.155   2.809   0.295  0.6706 -2.4139 -0.3784
   20CHTO   C71 8276   5.203   2.821   0.088 -0.0651 -0.6924  0.6026
   20CHTO   O47 8277   5.158   2.696   0.039 -0.6528 -0.1256 -0.2347
   20CHTO  H104 8278   5.232   2.638   0.037  1.4502  2.5016 -2.2229
   20CHTO   O34 8279   5.537   2.597   0.406  0.5004 -0.5356 -0.0507
   20CHTO   C49 8280   5.507   2.454   0.409  0.1307  0.3519  0.6486
   20CHTO   H91 8281   5.449   2.430   0.319  0.6305 -0.6674  0.5955
   20CHTO   C47 8282   5.422   2.411   0.538 -0.1416 -0.8595  0.0514
   20CHTO   H89 8283   5.317   2.430   0.508 -0.7672 -0.3507  2.4321
   20CHTO   O33 8284   5.444   2.494   0.654  0.3096  0.5828 -0.2541
   20CHTO   H70 8285   5.380   2.491   0.722  1.8616 -2.9302  1.1608
   20CHTO   C45 8286   5.447   2.257   0.573  0.3858 -0.8238 -0.3940
   20CHTO   H87 8287   5.543   2.264   0.627 -0.6154  0.5825  1.2477
   20CHTO    N8 8288   5.348   2.202   0.665 -0.2313  0.2826  0.3944
   20CHTO   H75 8289   5.377   2.103   0.697 -2.8339 -0.5865  0.2028
   20CHTO   H76 8290   5.332   2.269   0.748  0.3911  1.3602 -0.3520
   20CHTO   C43 8291   5.479   2.175   0.441  0.1282 -0.3746 -0.1888
   20CHTO   H85 8292   5.477   2.070   0.470 -1.5345 -0.3509 -0.1913
   20CHTO   O29 8293   5.607   2.216   0.391  0.1212  0.5039  0.2793
   20CHTO   C50 8294   5.629   2.359   0.394 -0.2700 -0.8464 -0.4997
   20CHTO   H92 8295   5.707   2.374   0.471  0.5329 -0.2826 -1.4171
   20CHTO   C54 8296   5.722   2.389   0.273  0.3645  0.3906  0.0749
   20CHTO   O36 8297   5.747   2.523   0.244 -0.7323 -0.3018 -0.3414
   20CHTO   H72 8298   5.795   2.565   0.313  0.3303 -1.7258 -0.2000
   20CHTO   O27 8299   5.385   2.181   0.330 -0.4409  0.1042 -0.7208
   20CHTO   C37 8300   5.257   2.156   0.266 -0.0918 -0.0308  0.0665
   20CHTO   H79 8301   5.169   2.187   0.325  0.6741  0.4367  0.9691
   20CHTO   C38 8302   5.242   2.238   0.139  0.2719 -0.8906  0.6043
   20CHTO   H80 8303   5.339   2.234   0.087 -0.1397 -3.5708 -0.0363
   20CHTO   O31 8304   5.218   2.377   0.184  0.3732 -0.1801  0.1626
   20CHTO   H68 8305   5.143   2.378   0.241  0.5948 -0.4855  0.4581
   20CHTO   C39 8306   5.130   2.169   0.047 -0.2137  0.2722  0.3187
   20CHTO   H81 8307   5.042   2.165   0.111  0.1821 -1.9183  0.7507
   20CHTO    N7 8308   5.105   2.235  -0.083  0.7233  0.0080  0.2343
   20CHTO   H73 8309   5.125   2.178  -0.172 -1.0280 -1.7467  0.9478
   20CHTO   H74 8310   5.149   2.334  -0.091 -0.1682  0.2223 -2.5633
   20CHTO   C40 8311   5.167   2.016   0.026 -0.1097 -0.8700  0.1545
   20CHTO   H82 8312   5.272   2.014  -0.001 -0.8194 -0.6413 -2.8258
   20CHTO   O26 8313   5.142   1.965   0.154  0.0427 -0.7171 -0.3502
   20CHTO   C41 8314   5.259   2.002   0.235  0.0001 -0.3838  0.0267
   20CHTO   H83 8315   5.357   1.973   0.194  0.1142 -3.0524  1.9909
   20CHTO   C52 8316   5.247   1.913   0.366  0.3771 -0.4408 -0.4947
   20CHTO   O35 8317   5.278   1.768   0.338 -0.0325  0.2372  0.0033
   20CHTO   H71 8318   5.206   1.727   0.294  0.2431 -0.4855  0.2118
   20CHTO   O28 8319   5.079   1.924  -0.055 -0.1589 -0.3309  0.2385
   20CHTO   C42 8320   5.136   1.801  -0.104  0.3537  0.1784  0.0379
   20CHTO   H84 8321   5.050   1.752  -0.150 -0.1660  0.4711  0.6860
   20CHTO   C44 8322   5.190   1.697   0.003  0.1170  0.5533  0.4565
   20CHTO   H86 8323   5.258   1.755   0.065  1.7750  0.3068 -1.0919
   20CHTO   O32 8324   5.075   1.651   0.083 -0.5432 -0.0990 -0.1227
   20CHTO   H69 8325   5.095   1.576   0.135 -1.1937 -0.6079 -0.6066
   20CHTO   C48 8326   5.258   1.567  -0.065 -0.2460 -0.0058 -0.4151
   20CHTO   H90 8327   5.178   1.515  -0.118  0.5008 -1.0599 -0.5284
   20CHTO    N9 8328   5.325   1.475   0.037 -0.2686 -0.3277  0.2891
   20CHTO   H77 8329   5.322   1.522   0.134 -2.0754  1.1100 -0.4372
   20CHTO   H78 8330   5.422   1.431   0.015 -0.7297 -0.4781 -1.4865
   20CHTO   C51 8331   5.364   1.608  -0.174  0.5681  0.1358 -0.0473
   20CHTO   H93 8332   5.442   1.663  -0.122  0.1702 -0.6797  1.4307
   20CHTO   O30 8333   5.287   1.688  -0.275  0.1116  0.2179 -0.1836
   20CHTO   C46 8334   5.238   1.829  -0.211  0.0740 -0.8243  0.1112
   20CHTO   H88 8335   5.328   1.874  -0.169  1.3325 -2.4976 -0.7111
   20CHTO   C53 8336   5.189   1.908  -0.332  0.4362  0.2360 -0.5371
   20CHTO   O72 8337   5.290   1.915  -0.424  0.1731  0.1160 -0.2446
   20CHTO  H199 8338   5.298   2.001  -0.461 -0.7118 -0.4515 -1.8037
   20CHTO   O22 8339   5.426   1.506  -0.254 -0.2473  0.1066 -0.2672
   20CHTO   C31 8340   5.562   1.503  -0.307  0.6925  0.1366  0.2600
   20CHTO   H59 8341   5.549   1.489  -0.416 -2.1726 -1.8704  0.7976
   20CHTO   C29 8342   5.634   1.638  -0.287 -0.6704  0.6647  0.3290
   20CHTO   H57 8343   5.629   1.656  -0.178 -3.6845 -1.0937  0.5620
   20CHTO   O21 8344   5.559   1.742  -0.352 -0.2797 -0.1549 -0.3811
   20CHTO   H37 8345   5.564   1.815  -0.293 -0.8071  0.1969 -0.7684
   20CHTO   C27 8346   5.786   1.630  -0.337 -0.4978 -0.2197  0.7394
   20CHTO   H55 8347   5.781   1.627  -0.446 -0.4158  1.6698  0.6756
   20CHTO    N5 8348   5.856   1.753  -0.293  0.2420  0.3688 -0.5912
   20CHTO   H43 8349   5.926   1.726  -0.215 -0.0511  0.3093 -0.3502
   20CHTO   H44 8350   5.919   1.786  -0.375  1.1268 -2.3448 -1.0583
   20CHTO   C25 8351   5.854   1.498  -0.288 -0.3663 -0.1138  0.5666
   20CHTO   H53 8352   5.870   1.498  -0.179  0.1549 -1.7139  0.5101
   20CHTO   O17 8353   5.766   1.382  -0.318  0.3240  0.5888 -0.0456
   20CHTO   C32 8354   5.641   1.378  -0.251  0.4763  0.3324 -0.3161
   20CHTO   H60 8355   5.658   1.394  -0.145  2.4573 -0.3181 -0.5092
   20CHTO   C36 8356   5.563   1.250  -0.268  0.1301  0.4085 -0.1170
   20CHTO   O25 8357   5.539   1.208  -0.405 -0.1784  0.2750  0.5299
   20CHTO   H40 8358   5.471   1.143  -0.399 -2.1564  2.3501  1.3039
   20CHTO   O15 8359   6.002   1.480  -0.348 -0.4671 -0.0681 -0.1410
   20CHTO   C19 8360   6.128   1.504  -0.409  0.1775 -0.0507  0.3013
   20CHTO   H47 8361   6.116   1.572  -0.495  0.0431 -0.1950  0.2052
   20CHTO   C20 8362   6.226   1.585  -0.324 -0.4065 -0.4942  0.3318
   20CHTO   H48 8363   6.249   1.539  -0.227 -0.4370  1.6450  1.3902
   20CHTO   O19 8364   6.152   1.704  -0.300 -0.1865 -0.3689 -0.6972
   20CHTO   H35 8365   6.078   1.693  -0.243  0.3449 -2.6319 -0.3937
   20CHTO   C21 8366   6.363   1.613  -0.400 -0.3253  0.2811 -0.4452
   20CHTO   H49 8367   6.347   1.677  -0.488  0.7205  0.8468 -0.2435
   20CHTO    N4 8368   6.461   1.677  -0.308 -0.5399  0.5245  0.0105
   20CHTO   H41 8369   6.497   1.771  -0.347  0.6481  0.2800  0.5062
   20CHTO   H42 8370   6.547   1.613  -0.301  0.3706  1.3903 -2.8685
   20CHTO   C22 8371   6.412   1.473  -0.450  0.4508 -0.6033  0.1357
   20CHTO   H50 8372   6.430   1.409  -0.363  0.2355 -1.3500 -0.3776
   20CHTO   O14 8373   6.309   1.419  -0.535 -0.2690 -0.2346 -0.3199
   20CHTO   C23 8374   6.195   1.372  -0.467  0.7257 -0.2149 -0.5946
   20CHTO   H51 8375   6.234   1.306  -0.388 -0.7919  2.1651  2.2546
   20CHTO   C34 8376   6.096   1.288  -0.553 -0.7650 -0.1889  0.3304
   20CHTO   O23 8377   6.054   1.361  -0.669  0.6085 -0.3812  0.1853
   20CHTO   H38 8378   6.124   1.404  -0.714  2.2695 -2.0431  1.0961
   20CHTO   O16 8379   6.526   1.482  -0.533  0.1569 -0.3638  0.9947
   20CHTO   C24 8380   6.577   1.329  -0.576  0.1883 -0.6757 -0.3526
   20CHTO   H52 8381   6.503   1.255  -0.545  1.1124 -1.0731  0.9145
   20CHTO   C26 8382   6.700   1.311  -0.492  0.4764  0.1881  0.5513
   20CHTO   H54 8383   6.752   1.409  -0.489  0.7408  0.0341  1.0755
   20CHTO   O20 8384   6.656   1.285  -0.361  0.3247 -0.2929 -0.1049
   20CHTO   H36 8385   6.668   1.358  -0.304  0.6719  1.9176 -2.8690
   20CHTO   C30 8386   6.790   1.188  -0.540  0.8495  0.2790 -0.4930
   20CHTO   H58 8387   6.799   1.105  -0.468  0.5404  0.7571  0.1038
   20CHTO    N6 8388   6.922   1.236  -0.562 -0.3923 -0.2381 -0.2940
   20CHTO   H45 8389   6.985   1.151  -0.584 -0.0793  0.2210 -1.2138
   20CHTO   H46 8390   6.956   1.283  -0.471  0.7188  1.3931 -1.5220
   20CHTO   C33 8391   6.727   1.126  -0.671 -0.7381  0.6728 -0.5484
   20CHTO   H61 8392   6.801   1.057  -0.716  0.9158  0.8598  1.8044
   20CHTO   O18 8393   6.689   1.224  -0.767 -0.1596 -0.4442 -0.4318
   20CHTO   C28 8394   6.600   1.326  -0.726 -0.0398 -0.5242 -0.0732
   20CHTO   H56 8395   6.647   1.418  -0.760  1.6517 -1.7039 -0.9709
   20CHTO   C35 8396   6.472   1.336  -0.806 -0.0026  0.1278 -0.2159
   20CHTO   O24 8397   6.397   1.215  -0.792 -0.0417  0.7709 -0.5264
   20CHTO   H39 8398   6.436   1.142  -0.835 -2.3422 -1.0558  0.4200
   20CHTO    O9 8399   6.609   1.046  -0.630  0.4567 -0.7728  0.2141
   20CHTO   C13 8400   6.653   0.898  -0.539 -0.3601 -0.0346 -0.0229
   20CHTO   H26 8401   6.754   0.908  -0.495  0.1614  0.9013 -1.4324
   20CHTO   C11 8402   6.648   0.777  -0.635  0.0366 -0.1693  0.1499
   20CHTO   H24 8403   6.738   0.775  -0.699 -0.3557  0.0208 -0.4080
   20CHTO    O8 8404   6.537   0.791  -0.722  0.3791  0.6897 -0.3416
   20CHTO    H3 8405   6.462   0.760  -0.674  0.5378  0.4837 -0.2272
   20CHTO    C9 8406   6.651   0.646  -0.545 -0.1699  0.0948 -0.5762
   20CHTO   H22 8407   6.730   0.664  -0.470 -1.0987  1.5534  0.0634
   20CHTO    N2 8408   6.688   0.523  -0.612  0.5389  0.1372  0.2500
   20CHTO   H10 8409   6.793   0.503  -0.594  0.5911  1.1716  1.1791
   20CHTO   H11 8410   6.675   0.535  -0.719 -0.0418 -2.0286  0.0517
   20CHTO    C7 8411   6.520   0.641  -0.466  0.0121  0.2256 -0.0517
   20CHTO   H20 8412   6.549   0.582  -0.376 -1.3688 -0.0420  0.2282
   20CHTO    O4 8413   6.466   0.762  -0.417 -0.4106 -0.6561  0.6394
   20CHTO   C14 8414   6.558   0.876  -0.410  0.6279  0.3986 -0.1756
   20CHTO   H27 8415   6.625   0.848  -0.326  1.0363 -1.8586 -1.2083
   20CHTO   C18 8416   6.474   1.000  -0.365 -0.7000 -0.0769 -0.1166
   20CHTO   O13 8417   6.423   0.990  -0.228  0.4072  0.2784 -0.0412
   20CHTO    H7 8418   6.494   0.991  -0.167  0.8962 -0.8892 -0.5810
   20CHTO    O2 8419   6.399   0.574  -0.552 -0.0901 -0.6444 -0.0917
   20CHTO    C1 8420   6.295   0.505  -0.482  0.4882 -0.0869 -0.3908
   20CHTO   H14 8421   6.268   0.559  -0.389  0.4049  2.6590 -1.9517
   20CHTO    C2 8422   6.339   0.359  -0.446  0.0918  0.0373  0.2011
   20CHTO   H15 8423   6.382   0.315  -0.537  1.6391 -0.2712  1.0694
   20CHTO    O6 8424   6.440   0.372  -0.343 -0.8784 -0.0432 -0.0608
   20CHTO    H1 8425   6.512   0.428  -0.363  0.7141 -1.5003  1.4538
   20CHTO    C3 8426   6.212   0.268  -0.400 -0.1161 -0.2840  0.0019
   20CHTO   H16 8427   6.190   0.294  -0.296  1.1617  1.1374 -0.0604
   20CHTO    N1 8428   6.259   0.122  -0.401  0.3582  0.0417 -0.1605
   20CHTO    H8 8429   6.172   0.059  -0.416  0.1842  0.5036 -1.1035
   20CHTO    H9 8430   6.318   0.105  -0.490 -0.0323  0.0373 -0.4195
   20CHTO    C4 8431   6.086   0.303  -0.486 -0.8024  0.3962 -1.0005
   20CHTO   H17 8432   6.095   0.259  -0.585  0.3705 -1.8520  0.0708
   20CHTO    O1 8433   6.065   0.441  -0.502 -0.1563 -0.4028 -0.2379
   20CHTO    C5 8434   6.173   0.501  -0.569  0.0854 -0.0271  0.0756
   20CHTO   H18 8435   6.203   0.436  -0.651  3.5651 -1.3898  2.3206
   20CHTO   C16 8436   6.125   0.638  -0.632 -0.1577 -0.2353 -0.3162
   20CHTO   O11 8437   6.224   0.676  -0.737 -0.2911  0.3583  0.2407
   20CHTO    H5 8438   6.195   0.628  -0.812 -1.2350 -0.6565  1.2329
   20CHTO    O3 8439   5.971   0.243  -0.425  0.0742  0.0640 -0.1469
   20CHTO    C6 8440   5.851   0.242  -0.500  0.2075 -0.3600  0.0188
   20CHTO   H19 8441   5.856   0.317  -0.580 -0.4757  0.6360  0.8970
   20CHTO    C8 8442   5.811   0.105  -0.567  0.7629 -0.8084 -0.8662
   20CHTO   H21 8443   5.805   0.031  -0.487 -0.4009  0.1944 -0.0013
   20CHTO    O7 8444   5.910   0.060  -0.658 -0.4236  0.6648  0.3991
   20CHTO    H2 8445   5.966   0.130  -0.686 -0.1201  0.6071  0.8565
   20CHTO   C12 8446   5.675   0.117  -0.632 -0.5389 -0.5030 -0.5797
   20CHTO   H25 8447   5.695   0.196  -0.707  0.8219 -0.6239 -0.3461
   20CHTO    N3 8448   5.631  -0.018  -0.681 -0.8243  0.5399  0.1199
   20CHTO   H12 8449   5.530  -0.038  -0.648 -1.3825  1.7617 -0.8046
   20CHTO   H13 8450   5.627  -0.011  -0.788  0.7060 -0.6433 -0.0313
   20CHTO   C15 8451   5.573   0.177  -0.527  0.1649  0.3080  0.6721
   20CHTO   H28 8452   5.546   0.110  -0.445 -0.9766  1.2725  1.1100
   20CHTO   O10 8453   5.430   0.223  -0.608 -0.2249 -0.2617 -0.7721
   20CHTO    H4 8454   5.450   0.288  -0.673  1.2292 -0.0545 -0.1466
   20CHTO    O5 8455   5.609   0.303  -0.467 -0.5185 -0.2073 -0.0168
   20CHTO   C10 8456   5.740   0.284  -0.398  0.1325 -0.0137  0.0027
   20CHTO   H23 8457   5.723   0.199  -0.332  0.7501 -0.6777 -0.6913
   20CHTO   C17 8458   5.762   0.410  -0.306  0.1833 -0.4724  0.3866
   20CHTO   O12 8459   5.794   0.524  -0.386  0.2777  0.3953 -0.1640
   20CHTO    H6 8460   5.718   0.568  -0.418 -1.6315 -2.6071  0.0574
   21GLOH   H03 8461   2.603   7.637   1.945 -0.3314 -1.3483 -0.6843
   21GLOH    O1 8462   2.695   7.660   1.966 -0.5844 -0.4001 -0.6067
   21GLOH    C1 8463   2.695   7.695   2.104  0.4411  1.1378 -0.5117
   21GLOH   H02 8464   2.614   7.744   2.158 -0.2690  0.3966 -0.8868
   21GLOH   H08 8465   2.777   7.766   2.115  0.9642  0.2802  1.3168
   21GLOH    C2 8466   2.739   7.574   2.190  0.2433  0.2109 -0.4753
   21GLOH   H04 8467   2.821   7.526   2.136  0.4729 -0.9460  0.8657
   21GLOH    O2 8468   2.790   7.608   2.331 -0.0373 -0.0790 -0.0419
   21GLOH   H05 8469   2.879   7.648   2.331 -0.1260  0.1271 -0.8540
   21GLOH    C3 8470   2.630   7.469   2.199 -0.3057 -0.5984  0.2908
   21GLOH   H06 8471   2.535   7.520   2.215 -0.8671 -1.5698  0.1252
   21GLOH   H07 8472   2.666   7.413   2.286 -1.9207  1.4005  2.2896
   21GLOH    O3 8473   2.604   7.392   2.081 -0.5982 -0.4654  0.3989
   21GLOH   H01 8474   2.567   7.450   2.012 -0.8899 -0.8798  0.2068
   22GLOH   H03 8475   2.460   8.261   0.809  1.5166  1.3756 -1.6710
   22GLOH    O1 8476   2.496   8.173   0.785  0.0454  0.1449  0.4678
   22GLOH    C1 8477   2.456   8.087   0.893  0.6428  0.3541 -0.0097
   22GLOH   H02 8478   2.474   7.981   0.873  2.0769  0.4327  0.8128
   22GLOH   H08 8479   2.350   8.101   0.919  1.0307  1.2143  1.1610
   22GLOH    C2 8480   2.521   8.128   1.022  0.8112 -0.1846 -0.7133
   22GLOH   H04 8481   2.466   8.208   1.074  1.1645 -0.8550  0.7200
   22GLOH    O2 8482   2.526   8.012   1.107  0.1916  0.1290 -0.0001
   22GLOH   H05 8483   2.580   7.950   1.055  0.5875 -0.1108  0.6936
   22GLOH    C3 8484   2.661   8.185   1.002  1.0878  0.4934 -0.3379
   22GLOH   H06 8485   2.657   8.266   0.930 -2.0129  1.4298  0.7963
   22GLOH   H07 8486   2.740   8.113   0.979  0.2281  0.1181 -2.1550
   22GLOH    O3 8487   2.702   8.240   1.124  0.4458 -0.0048 -0.0967
   22GLOH   H01 8488   2.690   8.172   1.192  1.5395 -0.3812 -0.2751
   23GLOH   H03 8489   2.651   5.861   0.184 -1.1961 -1.4483  0.5845
   23GLOH    O1 8490   2.726   5.816   0.141 -0.1470  0.8653 -0.0594
   23GLOH    C1 8491   2.850   5.881   0.157  0.5388 -0.0631  0.0924
   23GLOH   H02 8492   2.940   5.819   0.167  0.6472 -0.0994 -1.0211
   23GLOH   H08 8493   2.866   5.940   0.247 -2.9355  1.4903 -0.2423
   23GLOH    C2 8494   2.889   5.961   0.026 -0.4072 -0.3274  0.0594
   23GLOH   H04 8495   2.803   6.021  -0.004 -0.0954  1.6357  2.9370
   23GLOH    O2 8496   2.996   6.055   0.053 -0.2046 -0.7091  0.0192
   23GLOH   H05 8497   3.077   6.025   0.098 -1.1648 -0.2389  2.1229
   23GLOH    C3 8498   2.919   5.864  -0.096 -0.8006 -0.1372 -0.3158
   23GLOH   H06 8499   2.953   5.925  -0.179 -0.2695  0.0962  0.0707
   23GLOH   H07 8500   2.833   5.819  -0.146  0.3597 -0.0745 -2.3855
   23GLOH    O3 8501   3.017   5.773  -0.046  0.2803 -0.2137 -0.0197
   23GLOH   H01 8502   3.055   5.727  -0.124  0.5578 -0.1018  0.0475
   24GLOH   H03 8503   4.851   1.321   2.720 -0.1027  0.9491  0.1717
   24GLOH    O1 8504   4.765   1.354   2.687 -0.1975  0.6524  0.1199
   24GLOH    C1 8505   4.657   1.268   2.733  0.4447 -0.5099  0.1414
   24GLOH   H02 8506   4.668   1.169   2.690 -2.6072 -0.4883 -0.8088
   24GLOH   H08 8507   4.559   1.292   2.693  3.2690  2.8661 -5.3924
   24GLOH    C2 8508   4.649   1.257   2.888  0.0527 -0.0085 -0.4342
   24GLOH   H04 8509   4.661   1.349   2.947  1.9061  0.7963 -2.0236
   24GLOH    O2 8510   4.535   1.177   2.919  0.3625  0.0759 -0.0588
   24GLOH   H05 8511   4.477   1.244   2.958  0.8221  0.2911  0.2514
   24GLOH    C3 8512   4.767   1.175   2.932  0.1900 -0.1348 -0.3085
   24GLOH   H06 8513   4.753   1.085   2.872 -2.2433 -0.6144  0.9226
   24GLOH   H07 8514   4.749   1.147   3.035  0.6544  1.1685  0.1277
   24GLOH    O3 8515   4.887   1.246   2.902  0.6027  0.4211  0.4385
   24GLOH   H01 8516   4.939   1.266   2.982 -0.3739  2.6702  0.5558
   25GLOH   H03 8517   3.919   1.706   1.984  0.4282 -0.7197 -0.3377
   25GLOH    O1 8518   3.973   1.649   1.927 -0.0750 -1.0739 -0.4687
   25GLOH    C1 8519   4.034   1.730   1.818  0.6631 -0.3797  0.2029
   25GLOH   H02 8520   3.967   1.810   1.786  2.5130  0.4535 -1.7562
   25GLOH   H08 8521   4.050   1.664   1.732  0.0376  1.2491 -1.2016
   25GLOH    C2 8522   4.160   1.802   1.876 -1.0384 -0.0288  0.9238
   25GLOH   H04 8523   4.236   1.726   1.900 -0.0266  0.6709  0.0131
   25GLOH    O2 8524   4.219   1.872   1.763  0.5187  0.1526  0.8825
   25GLOH   H05 8525   4.178   1.959   1.746  1.1771  0.3664  0.3801
   25GLOH    C3 8526   4.136   1.901   1.988  0.5032 -0.0846 -0.2387
   25GLOH   H06 8527   4.058   1.969   1.952 -1.8839 -2.2324  0.6931
   25GLOH   H07 8528   4.223   1.964   2.002 -0.2075  0.3674  2.5381
   25GLOH    O3 8529   4.090   1.847   2.110  0.0405 -0.3035 -0.1233
   25GLOH   H01 8530   4.153   1.786   2.153  1.3458 -0.7959 -2.6540
   26GLOH   H03 8531   4.560   2.990   1.883  0.8571  0.2336 -0.1181
   26GLOH    O1 8532   4.577   3.083   1.908 -0.8872  0.4308  0.4292
   26GLOH    C1 8533   4.601   3.148   1.782 -0.7815  0.0293  0.0995
   26GLOH   H02 8534   4.514   3.143   1.717 -0.8594  0.9321  0.1227
   26GLOH   H08 8535   4.677   3.095   1.725 -2.1193 -2.5741  0.6885
   26GLOH    C2 8536   4.655   3.296   1.788  0.1803 -0.0922 -0.3908
   26GLOH   H04 8537   4.757   3.292   1.830  0.1746  0.7447 -0.2949
   26GLOH    O2 8538   4.653   3.356   1.664  0.3133 -0.2934  0.0034
   26GLOH   H05 8539   4.568   3.357   1.616  0.4586 -1.5378 -0.2879
   26GLOH    C3 8540   4.565   3.370   1.883  0.0978  0.1002 -0.6481
   26GLOH   H06 8541   4.464   3.363   1.844 -1.0510  1.0525  2.0435
   26GLOH   H07 8542   4.605   3.471   1.886 -2.3783  1.0951 -0.2204
   26GLOH    O3 8543   4.571   3.310   2.011  0.1463 -0.0612  0.6579
   26GLOH   H01 8544   4.576   3.214   1.996 -3.1760 -0.4156  1.5827
   27GLOH   H03 8545   4.493   3.545   2.234  2.6766 -0.0165  0.5872
   27GLOH    O1 8546   4.490   3.642   2.232 -0.3316 -0.0749 -0.9449
   27GLOH    C1 8547   4.538   3.703   2.356 -0.3699 -1.0326  0.6532
   27GLOH   H02 8548   4.597   3.626   2.406 -1.6643 -3.6781 -1.7414
   27GLOH   H08 8549   4.454   3.730   2.420 -0.2983 -0.3747  0.4802
   27GLOH    C2 8550   4.623   3.825   2.344 -0.3386 -0.0648 -0.5535
   27GLOH   H04 8551   4.582   3.900   2.275 -1.0848  0.9937  1.0220
   27GLOH    O2 8552   4.633   3.885   2.472  0.3256  0.0556 -1.0622
   27GLOH   H05 8553   4.659   3.977   2.461  1.1659  0.2042  1.7790
   27GLOH    C3 8554   4.757   3.791   2.274  1.2689  0.1084 -0.1505
   27GLOH   H06 8555   4.735   3.766   2.170 -0.1406 -0.1158  0.2009
   27GLOH   H07 8556   4.803   3.713   2.334 -1.8843 -1.3791  0.4010
   27GLOH    O3 8557   4.849   3.903   2.277  0.5340  0.1648 -0.0267
   27GLOH   H01 8558   4.886   3.931   2.192  1.3630 -1.0710 -0.0788
   28GLOH   H03 8559   2.679   1.540   1.366 -0.4656 -1.3325  0.0273
   28GLOH    O1 8560   2.698   1.561   1.273  0.3521  0.2520  0.5398
   28GLOH    C1 8561   2.719   1.709   1.268  0.8156  0.0511  0.2139
   28GLOH   H02 8562   2.746   1.752   1.364 -1.2238  3.5768 -0.6909
   28GLOH   H08 8563   2.620   1.752   1.256 -0.5529 -3.2942 -1.2384
   28GLOH    C2 8564   2.803   1.762   1.148  0.8522 -0.2360  0.4402
   28GLOH   H04 8565   2.735   1.758   1.061 -0.9533  0.4819  1.7862
   28GLOH    O2 8566   2.851   1.904   1.160 -0.0691 -0.2032  0.1064
   28GLOH   H05 8567   2.863   1.939   1.070  0.1570 -2.5408 -0.8303
   28GLOH    C3 8568   2.920   1.672   1.118  0.1240  1.2098 -0.9785
   28GLOH   H06 8569   2.989   1.686   1.201 -1.4704  1.2897  0.3714
   28GLOH   H07 8570   2.970   1.708   1.028  0.4329 -2.1859 -2.2527
   28GLOH    O3 8571   2.886   1.534   1.108 -0.5813  0.5281  0.4801
   28GLOH   H01 8572   2.803   1.516   1.157 -0.9549 -1.1053 -0.7150
   29GLOH   H03 8573   3.882   1.335   1.786 -0.2011  0.8436 -0.3293
   29GLOH    O1 8574   3.913   1.281   1.711  0.2324  0.5890  0.0379
   29GLOH    C1 8575   4.025   1.202   1.751 -1.0571  0.0363 -0.0794
   29GLOH   H02 8576   4.084   1.248   1.830 -1.7552 -1.4509  1.3618
   29GLOH   H08 8577   4.090   1.198   1.664 -1.9116 -1.7339 -0.6613
   29GLOH    C2 8578   4.001   1.048   1.771 -0.8776  0.0708 -0.1958
   29GLOH   H04 8579   3.914   1.051   1.838 -1.2204 -0.2313 -0.6255
   29GLOH    O2 8580   3.966   0.997   1.648 -0.3651 -0.0855  0.0651
   29GLOH   H05 8581   3.988   0.902   1.643  2.3982  0.4312  1.5746
   29GLOH    C3 8582   4.119   0.989   1.840 -0.1151  0.5891  0.2987
   29GLOH   H06 8583   4.201   1.027   1.778  1.6851 -1.6517  1.1987
   29GLOH   H07 8584   4.109   0.881   1.829  2.3430  0.3418  0.0667
   29GLOH    O3 8585   4.135   1.018   1.981 -0.5032  0.9755  0.1677
   29GLOH   H01 8586   4.078   0.958   2.033 -0.2450  1.2540  0.7734
   30GLOH   H03 8587   4.822   3.282   0.620  1.8990 -0.9311 -3.4884
   30GLOH    O1 8588   4.760   3.347   0.581  0.0154 -0.6250 -0.1829
   30GLOH    C1 8589   4.763   3.326   0.439  0.9399 -0.1238  0.3883
   30GLOH   H02 8590   4.842   3.258   0.406  1.7198  1.2859 -0.6913
   30GLOH   H08 8591   4.783   3.415   0.379 -0.7610 -0.8314 -1.2969
   30GLOH    C2 8592   4.637   3.260   0.389  0.3327 -0.4127  0.1506
   30GLOH   H04 8593   4.631   3.265   0.279  1.0627 -0.7285  0.0965
   30GLOH    O2 8594   4.630   3.122   0.428 -0.3485 -0.2758 -0.1457
   30GLOH   H05 8595   4.660   3.108   0.519  3.6325  0.1132 -1.3450
   30GLOH    C3 8596   4.520   3.331   0.446  0.1800 -0.1764  0.3220
   30GLOH   H06 8597   4.505   3.320   0.553 -1.7082  1.5479  0.2736
   30GLOH   H07 8598   4.430   3.288   0.404  0.4100 -0.0143 -0.3465
   30GLOH    O3 8599   4.514   3.473   0.415 -0.3487 -0.5938 -0.5917
   30GLOH   H01 8600   4.558   3.521   0.488 -0.7345 -2.4807  0.9395
   31GLOH   H03 8601   3.634   2.094   2.422 -3.4158 -1.6733 -0.5694
   31GLOH    O1 8602   3.621   2.125   2.330 -0.1867  0.8231 -0.2621
   31GLOH    C1 8603   3.538   2.240   2.330 -0.4519 -0.1152  0.1879
   31GLOH   H02 8604   3.445   2.222   2.385 -1.0812 -0.5681 -1.0047
   31GLOH   H08 8605   3.505   2.256   2.227  0.0327  1.4419  0.2757
   31GLOH    C2 8606   3.619   2.360   2.388 -0.5984  0.2119  0.0286
   31GLOH   H04 8607   3.709   2.365   2.325  0.3654  0.0068  1.3656
   31GLOH    O2 8608   3.544   2.476   2.350  0.0735 -0.5738 -0.0519
   31GLOH   H05 8609   3.570   2.514   2.264  0.6558  1.2887  0.9480
   31GLOH    C3 8610   3.631   2.331   2.536 -0.5179 -0.9790  0.0556
   31GLOH   H06 8611   3.537   2.296   2.578  0.1616 -1.6011  1.0808
   31GLOH   H07 8612   3.656   2.428   2.579 -0.8884 -1.5423  1.5739
   31GLOH    O3 8613   3.733   2.229   2.558  0.1270 -0.1279 -0.0367
   31GLOH   H01 8614   3.763   2.230   2.651 -0.0542  0.5837  0.0205
   32GLOH   H03 8615   3.008   9.075   0.983  1.6380 -2.4064 -2.2345
   32GLOH    O1 8616   2.985   8.994   1.032 -0.5570 -0.1960  0.5847
   32GLOH    C1 8617   2.868   9.036   1.100 -0.0034  0.2774  0.3232
   32GLOH   H02 8618   2.816   8.951   1.143  1.4156 -1.3803 -1.1643
   32GLOH   H08 8619   2.798   9.081   1.030 -1.1268  0.6250  1.6306
   32GLOH    C2 8620   2.904   9.128   1.221  0.8366  0.6170 -0.3566
   32GLOH   H04 8621   2.973   9.084   1.295 -0.6236 -0.2381  0.5362
   32GLOH    O2 8622   2.952   9.257   1.176  0.0664 -0.7461 -1.2768
   32GLOH   H05 8623   2.971   9.260   1.081  1.3232 -0.7487 -1.0358
   32GLOH    C3 8624   2.770   9.152   1.308  0.1063  0.1682  0.0213
   32GLOH   H06 8625   2.798   9.222   1.386  1.0263  2.2767 -2.1254
   32GLOH   H07 8626   2.741   9.060   1.358  0.9267  0.2103  0.5763
   32GLOH    O3 8627   2.655   9.196   1.240 -0.3695 -0.0373  0.0634
   32GLOH   H01 8628   2.665   9.289   1.213 -0.2025 -0.2117 -0.4759
   33GLOH   H03 8629   2.673   7.767   0.526  0.2126 -0.9630 -0.8938
   33GLOH    O1 8630   2.734   7.756   0.601 -0.3559 -0.0642 -0.2902
   33GLOH    C1 8631   2.675   7.769   0.733  0.4798  0.1314  0.2116
   33GLOH   H02 8632   2.714   7.689   0.796  2.6208  0.0839 -1.1340
   33GLOH   H08 8633   2.567   7.766   0.720  0.3393 -0.5203  1.4873
   33GLOH    C2 8634   2.719   7.895   0.811  0.0725  0.1786 -0.2655
   33GLOH   H04 8635   2.663   7.980   0.767  0.8612  1.0426  0.3787
   33GLOH    O2 8636   2.697   7.886   0.955  0.1029  0.3196  0.1002
   33GLOH   H05 8637   2.764   7.824   0.988 -0.4334 -0.0543  0.5029
   33GLOH    C3 8638   2.866   7.938   0.801 -0.0520  0.4243  0.7111
   33GLOH   H06 8639   2.929   7.859   0.842  1.1485  1.4398  0.8575
   33GLOH   H07 8640   2.887   8.029   0.858 -3.4606  1.2409  0.7493
   33GLOH    O3 8641   2.911   7.945   0.667  0.2193  0.0248  0.0449
   33GLOH   H01 8642   2.884   7.859   0.628  1.1771 -0.6237  0.7720
   34GLOH   H03 8643   3.454   4.055   1.121  2.5810  0.1776 -0.5166
   34GLOH    O1 8644   3.455   4.085   1.214  0.3962 -0.3461 -0.3035
   34GLOH    C1 8645   3.314   4.123   1.242  0.1147  0.7277  0.0540
   34GLOH   H02 8646   3.309   4.218   1.295  0.0865  1.2360 -0.8385
   34GLOH   H08 8647   3.267   4.043   1.298 -0.3109  1.0826  0.2062
   34GLOH    C2 8648   3.207   4.122   1.125  0.6709 -0.6651 -0.2221
   34GLOH   H04 8649   3.159   4.023   1.128 -1.3950  0.3207  0.7490
   34GLOH    O2 8650   3.106   4.220   1.158  0.0415  0.6074 -0.1322
   34GLOH   H05 8651   3.041   4.234   1.088  0.7770  1.3145 -0.6844
   34GLOH    C3 8652   3.270   4.144   0.985  0.9220 -0.5939 -0.8504
   34GLOH   H06 8653   3.322   4.239   0.979  2.9117 -1.4583  1.5757
   34GLOH   H07 8654   3.185   4.134   0.917  0.3797 -2.5848  0.0637
   34GLOH    O3 8655   3.363   4.039   0.955 -0.1472 -0.1285  0.0742
   34GLOH   H01 8656   3.443   4.067   0.907 -0.0933 -0.4869 -0.0478
   35GLOH   H03 8657   2.482   6.425   0.911 -0.7146 -0.3818  0.3091
   35GLOH    O1 8658   2.474   6.351   0.848  0.5659  0.1425 -0.4919
   35GLOH    C1 8659   2.494   6.226   0.915 -0.5356  1.0374 -0.2656
   35GLOH   H02 8660   2.472   6.142   0.849  1.4203  2.0279 -2.2947
   35GLOH   H08 8661   2.436   6.214   1.006 -2.0527 -0.3924 -1.3930
   35GLOH    C2 8662   2.640   6.202   0.950 -0.4197  0.4119  0.0593
   35GLOH   H04 8663   2.659   6.269   1.035  0.8271 -0.6451  0.6392
   35GLOH    O2 8664   2.658   6.067   0.998 -0.2391  0.3901  0.0848
   35GLOH   H05 8665   2.687   6.071   1.091  1.7242  2.5919 -0.5861
   35GLOH    C3 8666   2.749   6.230   0.837 -0.2495  0.0426 -0.4498
   35GLOH   H06 8667   2.704   6.191   0.745  1.6179 -0.4944 -1.1624
   35GLOH   H07 8668   2.841   6.176   0.858 -0.1544  0.0554 -0.8332
   35GLOH    O3 8669   2.781   6.371   0.829 -0.1522  0.0603  0.1045
   35GLOH   H01 8670   2.776   6.409   0.919 -0.4607 -2.4121  1.1738
   36GLOH   H03 8671   2.940   6.562   2.397 -1.4138 -1.0250 -0.1059
   36GLOH    O1 8672   2.931   6.557   2.300  0.2238  0.8061 -0.3768
   36GLOH    C1 8673   2.983   6.682   2.251 -0.1854 -0.6174  0.4194
   36GLOH   H02 8674   3.050   6.664   2.167 -0.1100 -0.9841  0.5555
   36GLOH   H08 8675   3.032   6.741   2.329 -2.1383  2.3180 -0.5124
   36GLOH    C2 8676   2.862   6.766   2.199  0.0708  0.1362 -0.1304
   36GLOH   H04 8677   2.805   6.799   2.287 -1.6336 -2.6575 -0.1227
   36GLOH    O2 8678   2.908   6.882   2.129  0.4893 -0.6710  0.0650
   36GLOH   H05 8679   2.981   6.918   2.182 -1.1575  1.4920  0.9427
   36GLOH    C3 8680   2.767   6.683   2.108 -0.8442 -0.4081 -0.1899
   36GLOH   H06 8681   2.807   6.671   2.008 -1.4859  0.2078 -0.5260
   36GLOH   H07 8682   2.680   6.746   2.092 -0.3798 -0.4511 -2.9946
   36GLOH    O3 8683   2.729   6.552   2.164  0.0647  0.3755  0.0806
   36GLOH   H01 8684   2.794   6.528   2.232  0.9495 -0.4089 -1.0164
   37GLOH   H03 8685   4.843   2.757   0.454 -1.3830  2.0449 -1.8942
   37GLOH    O1 8686   4.764   2.757   0.512 -0.4634  0.5174 -0.5780
   37GLOH    C1 8687   4.778   2.851   0.615 -0.2704 -0.2176 -0.5675
   37GLOH   H02 8688   4.773   2.951   0.572 -0.0800 -0.4969 -1.2322
   37GLOH   H08 8689   4.880   2.851   0.653 -0.0610  1.3666 -1.0668
   37GLOH    C2 8690   4.680   2.844   0.734  0.1468 -0.2193  0.7944
   37GLOH   H04 8691   4.582   2.819   0.691  1.2820 -0.9697 -1.4457
   37GLOH    O2 8692   4.728   2.741   0.811 -0.0893 -0.2053 -0.0879
   37GLOH   H05 8693   4.799   2.777   0.867  1.1238 -0.4024 -1.4788
   37GLOH    C3 8694   4.662   2.978   0.794 -0.4496 -0.8490 -0.0943
   37GLOH   H06 8695   4.753   3.018   0.837  0.5445 -1.9052 -1.2016
   37GLOH   H07 8696   4.589   2.977   0.876 -1.7491  0.6850 -1.2003
   37GLOH    O3 8697   4.614   3.086   0.709 -0.4230  0.5100 -0.2386
   37GLOH   H01 8698   4.519   3.078   0.729  0.1226 -5.2511  1.1941
   38GLOH   H03 8699   2.223   6.993   1.011  1.0851  0.0723 -4.9484
   38GLOH    O1 8700   2.302   6.940   1.032  0.0793  0.4116  0.3417
   38GLOH    C1 8701   2.332   6.874   0.911 -0.1041 -0.7979 -0.0366
   38GLOH   H02 8702   2.397   6.788   0.928  1.2061  0.0284 -0.7840
   38GLOH   H08 8703   2.385   6.932   0.835  0.0076 -1.0172 -0.1289
   38GLOH    C2 8704   2.209   6.813   0.845  0.0455 -0.1724  0.9278
   38GLOH   H04 8705   2.158   6.761   0.928 -0.8039 -1.1866 -0.2020
   38GLOH    O2 8706   2.116   6.914   0.796  0.1179  0.2521 -0.0262
   38GLOH   H05 8707   2.122   6.909   0.699  1.4753  0.8605  0.0178
   38GLOH    C3 8708   2.254   6.714   0.738 -0.3563 -0.4574  0.3547
   38GLOH   H06 8709   2.168   6.652   0.711 -1.2078  1.1492 -0.6834
   38GLOH   H07 8710   2.327   6.645   0.781  1.5196  1.3412  0.1024
   38GLOH    O3 8711   2.320   6.779   0.624 -0.3315 -0.4867 -1.2587
   38GLOH   H01 8712   2.403   6.733   0.604 -0.4198 -0.1238 -2.5101
   39GLOH   H03 8713   3.238   1.259   2.404  1.6263 -2.0608  0.4596
   39GLOH    O1 8714   3.322   1.271   2.355  0.5590  0.1378 -0.8894
   39GLOH    C1 8715   3.284   1.288   2.215 -0.3851  0.2373  0.0254
   39GLOH   H02 8716   3.239   1.198   2.173  0.7757  0.8165 -2.5608
   39GLOH   H08 8717   3.372   1.312   2.155 -0.9690 -1.3158 -1.4858
   39GLOH    C2 8718   3.197   1.407   2.178 -0.2082  0.7903  0.5584
   39GLOH   H04 8719   3.185   1.420   2.070 -1.1056 -0.7146  0.4646
   39GLOH    O2 8720   3.063   1.395   2.226 -0.5736  0.1610 -0.2112
   39GLOH   H05 8721   3.038   1.305   2.202  0.2324  0.2381 -1.3756
   39GLOH    C3 8722   3.260   1.539   2.222  0.5812 -0.3168 -0.1791
   39GLOH   H06 8723   3.271   1.523   2.329 -0.2441 -0.0932 -0.0611
   39GLOH   H07 8724   3.181   1.612   2.210  1.0009  0.6931  2.9144
   39GLOH    O3 8725   3.385   1.575   2.164 -0.4442  0.1942 -0.8397
   39GLOH   H01 8726   3.425   1.638   2.227 -0.7660 -0.3291 -0.1037
   40GLOH   H03 8727   3.837   9.461   0.760  0.1129  0.8897 -0.3487
   40GLOH    O1 8728   3.824   9.369   0.731  0.0892  0.7473  0.1120
   40GLOH    C1 8729   3.949   9.315   0.710 -0.5573  0.4850  0.8769
   40GLOH   H02 8730   4.008   9.310   0.801  2.7974  1.8324 -1.1058
   40GLOH   H08 8731   4.006   9.374   0.639  0.3175  0.1909  1.3274
   40GLOH    C2 8732   3.933   9.176   0.650  0.1416 -0.6065  0.6525
   40GLOH   H04 8733   3.873   9.110   0.714  2.6256 -1.0175  2.6428
   40GLOH    O2 8734   3.872   9.188   0.524  0.4209 -0.0651  0.2171
   40GLOH   H05 8735   3.879   9.280   0.495 -0.1242  0.0606  0.4806
   40GLOH    C3 8736   4.068   9.104   0.654  0.4183  0.2796 -0.2620
   40GLOH   H06 8737   4.128   9.161   0.584 -0.8493  0.8094 -0.9345
   40GLOH   H07 8738   4.074   9.003   0.613 -1.6777 -1.1643  2.7673
   40GLOH    O3 8739   4.137   9.087   0.781 -0.0388 -0.7844  0.3682
   40GLOH   H01 8740   4.216   9.036   0.755  0.9787  2.2062 -2.7654
   41GLOH   H03 8741   3.477   9.836   2.654  0.9376  1.6895 -3.0004
   41GLOH    O1 8742   3.384   9.855   2.631 -0.0368  0.6613 -0.1271
   41GLOH    C1 8743   3.345   9.749   2.539 -0.2389 -0.3924 -0.3513
   41GLOH   H02 8744   3.409   9.743   2.451  0.9267  0.1425  0.4646
   41GLOH   H08 8745   3.243   9.767   2.503 -0.4602 -0.2642  0.3256
   41GLOH    C2 8746   3.354   9.614   2.607  0.6017  0.4378  0.0769
   41GLOH   H04 8747   3.333   9.548   2.521  1.9366  2.0139 -1.4776
   41GLOH    O2 8748   3.486   9.593   2.664  0.7138  0.6459  0.2419
   41GLOH   H05 8749   3.500   9.503   2.700 -0.5176 -0.1110 -1.1380
   41GLOH    C3 8750   3.246   9.589   2.715  0.0992  0.0949  1.0898
   41GLOH   H06 8751   3.148   9.618   2.678 -1.0483 -2.0570  2.3426
   41GLOH   H07 8752   3.275   9.655   2.797  2.3611 -2.0807  2.1054
   41GLOH    O3 8753   3.230   9.454   2.757 -0.1546  0.8175  0.2521
   41GLOH   H01 8754   3.209   9.403   2.677  3.8294  1.0402 -1.0500
   42GLOH   H03 8755   3.616   4.499   1.291  1.8372 -2.4687  0.4834
   42GLOH    O1 8756   3.672   4.552   1.230 -0.3433 -0.1703  0.3646
   42GLOH    C1 8757   3.645   4.690   1.240  0.2103 -0.3151 -0.1758
   42GLOH   H02 8758   3.715   4.740   1.308  2.1737 -4.5329  1.0937
   42GLOH   H08 8759   3.547   4.698   1.286  0.2374  1.6705 -0.4010
   42GLOH    C2 8760   3.656   4.762   1.107 -0.0506  0.4760  0.0794
   42GLOH   H04 8761   3.598   4.708   1.031  0.5447  2.6028 -1.9354
   42GLOH    O2 8762   3.599   4.895   1.111 -1.0127 -0.2813  0.8590
   42GLOH   H05 8763   3.550   4.913   1.030 -1.9444  0.0288  1.4875
   42GLOH    C3 8764   3.805   4.763   1.084 -0.0413 -0.0447  0.0378
   42GLOH   H06 8765   3.848   4.664   1.094  2.8666  0.8993 -2.1484
   42GLOH   H07 8766   3.842   4.828   1.163 -2.8944  1.7473 -0.0330
   42GLOH    O3 8767   3.834   4.806   0.948 -0.4085 -0.2747  0.5838
   42GLOH   H01 8768   3.827   4.733   0.883  1.5355 -1.3638  1.5438
   43GLOH   H03 8769   4.044   9.342   0.308 -1.2568  0.1469  1.3352
   43GLOH    O1 8770   4.024   9.262   0.257 -0.2923  1.0541 -0.4923
   43GLOH    C1 8771   3.906   9.275   0.178  0.9547  0.0828  0.3380
   43GLOH   H02 8772   3.848   9.364   0.201 -0.0989 -0.0175 -1.7775
   43GLOH   H08 8773   3.842   9.188   0.183  0.3149  0.5347  0.0568
   43GLOH    C2 8774   3.946   9.294   0.026  0.3916  0.8707  0.8594
   43GLOH   H04 8775   4.020   9.375   0.011  0.3640  0.6742 -0.3853
   43GLOH    O2 8776   4.009   9.190  -0.045 -0.4967 -0.0373  0.4042
   43GLOH   H05 8777   3.955   9.109  -0.040 -1.4119  0.6316  1.4201
   43GLOH    C3 8778   3.820   9.352  -0.044  0.7016 -0.7300  0.1341
   43GLOH   H06 8779   3.738   9.297   0.001 -0.0049 -0.8113 -1.2554
   43GLOH   H07 8780   3.815   9.329  -0.150 -0.0292  0.3787 -0.0841
   43GLOH    O3 8781   3.801   9.493  -0.021  0.2104  0.3176  0.0911
   43GLOH   H01 8782   3.792   9.525  -0.112  0.6941  0.2689  0.0246
   44GLOH   H03 8783   2.897   4.946   0.283 -0.7840  1.7014 -1.2582
   44GLOH    O1 8784   2.971   4.998   0.319  0.0378 -0.2344 -0.0754
   44GLOH    C1 8785   2.995   5.120   0.246 -0.1926  0.0836  0.1781
   44GLOH   H02 8786   3.068   5.165   0.314  0.0903 -0.0019 -0.0660
   44GLOH   H08 8787   2.910   5.188   0.250  0.2751  1.1006 -4.0454
   44GLOH    C2 8788   3.051   5.108   0.105 -1.0353 -0.1016  1.0967
   44GLOH   H04 8789   3.001   5.026   0.050  2.2480  0.8785 -3.7199
   44GLOH    O2 8790   3.038   5.239   0.047 -0.1722  0.2270 -0.2944
   44GLOH   H05 8791   3.127   5.254   0.011 -0.1259 -0.1763 -0.3512
   44GLOH    C3 8792   3.194   5.056   0.098  0.0229  0.4746 -0.8674
   44GLOH   H06 8793   3.254   5.127   0.154 -1.3587  0.1218  1.1434
   44GLOH   H07 8794   3.230   5.046  -0.004  2.5653  0.0756  0.0256
   44GLOH    O3 8795   3.211   4.923   0.150  0.7280 -0.3151 -0.1600
   44GLOH   H01 8796   3.164   4.866   0.087  2.0306  0.2560 -1.6605
   45GLOH   H03 8797   4.164   0.737   0.173 -0.4350  1.4759  1.1486
   45GLOH    O1 8798   4.082   0.697   0.136  0.2528  0.8357  0.2964
   45GLOH    C1 8799   4.098   0.561   0.088  0.0987  0.6496  0.1338
   45GLOH   H02 8800   4.153   0.503   0.162 -1.8768  1.5211  2.3285
   45GLOH   H08 8801   4.155   0.576  -0.004  0.2253  0.5917  0.2024
   45GLOH    C2 8802   3.964   0.491   0.048 -0.7472 -0.1269 -0.5105
   45GLOH   H04 8803   3.934   0.549  -0.041 -1.5276 -0.0080 -0.1758
   45GLOH    O2 8804   3.992   0.356   0.011 -0.5371  0.2582 -0.2433
   45GLOH   H05 8805   3.979   0.291   0.081 -0.5594 -0.6750 -1.1022
   45GLOH    C3 8806   3.869   0.511   0.163  0.6742  0.3392  0.8900
   45GLOH   H06 8807   3.916   0.467   0.252 -0.5280 -2.7260  0.0749
   45GLOH   H07 8808   3.784   0.450   0.132  2.8179 -0.7992 -3.0531
   45GLOH    O3 8809   3.824   0.646   0.172  0.2991  0.0446 -0.6125
   45GLOH   H01 8810   3.910   0.693   0.163  2.2632 -3.4150 -0.9195
   46GLOH   H03 8811   2.992   7.817   1.314 -0.6528  0.2603 -0.0361
   46GLOH    O1 8812   2.982   7.856   1.226  0.2984  0.1373 -0.1953
   46GLOH    C1 8813   2.875   7.959   1.222  0.2137 -0.8365 -0.4290
   46GLOH   H02 8814   2.786   7.909   1.185  0.2597 -0.5900 -0.8763
   46GLOH   H08 8815   2.901   8.026   1.140 -2.6209 -0.2230 -0.8925
   46GLOH    C2 8816   2.845   8.031   1.356 -0.0832 -0.6747 -0.6471
   46GLOH   H04 8817   2.931   8.095   1.383  0.6628 -1.4825 -1.0845
   46GLOH    O2 8818   2.729   8.114   1.344  0.1958 -0.1056  0.1445
   46GLOH   H05 8819   2.661   8.090   1.409 -0.4338  1.5362  0.1323
   46GLOH    C3 8820   2.834   7.943   1.480 -0.6216 -0.3599  0.0954
   46GLOH   H06 8821   2.747   7.878   1.471 -1.0390  0.2966 -0.7696
   46GLOH   H07 8822   2.822   8.005   1.569  1.6408  1.5004 -0.8348
   46GLOH    O3 8823   2.957   7.872   1.502 -0.1089 -0.2881 -0.4708
   46GLOH   H01 8824   2.922   7.784   1.525 -0.0172 -0.4454 -0.9448
   47GLOH   H03 8825   2.976   6.503   2.591  0.2976 -0.0425 -1.2221
   47GLOH    O1 8826   2.938   6.589   2.564 -0.1218  0.0015 -0.5133
   47GLOH    C1 8827   2.831   6.628   2.654 -0.9515  0.3902  0.0100
   47GLOH   H02 8828   2.750   6.554   2.653 -1.5091  1.0123 -1.4437
   47GLOH   H08 8829   2.800   6.723   2.610  2.5130  1.3420 -0.5274
   47GLOH    C2 8830   2.863   6.642   2.806 -0.7741 -0.0162  1.0366
   47GLOH   H04 8831   2.767   6.662   2.856 -1.5496  2.3646 -1.3044
   47GLOH    O2 8832   2.904   6.514   2.853  0.2643  0.5508  0.0691
   47GLOH   H05 8833   2.950   6.456   2.789 -0.6804  0.2341 -0.3341
   47GLOH    C3 8834   2.977   6.745   2.842 -0.1096  0.1732 -0.7232
   47GLOH   H06 8835   3.067   6.702   2.799 -0.7895  0.2271 -2.2203
   47GLOH   H07 8836   2.999   6.760   2.948  0.7154  0.5361 -0.9421
   47GLOH    O3 8837   2.944   6.866   2.787  0.3039 -0.1901  0.1754
   47GLOH   H01 8838   2.869   6.904   2.836  0.1836  0.3357 -0.4092
   48GLOH   H03 8839   2.974   7.157   1.639 -4.5281  0.6510 -0.6063
   48GLOH    O1 8840   2.962   7.115   1.727 -0.5507 -0.5243 -0.5093
   48GLOH    C1 8841   2.818   7.112   1.743  0.0758 -0.0609 -0.1859
   48GLOH   H02 8842   2.797   7.053   1.832 -1.2332  0.8892  0.1434
   48GLOH   H08 8843   2.768   7.060   1.661 -0.9789  0.4904  0.1094
   48GLOH    C2 8844   2.751   7.249   1.744 -0.2182  0.2096  0.1949
   48GLOH   H04 8845   2.775   7.295   1.647 -2.4075  0.5381 -0.2065
   48GLOH    O2 8846   2.604   7.246   1.755  0.7633 -0.0538  0.0876
   48GLOH   H05 8847   2.566   7.323   1.709  2.2063  0.8217  0.3024
   48GLOH    C3 8848   2.816   7.338   1.853 -0.3099 -0.2378  0.2668
   48GLOH   H06 8849   2.784   7.441   1.838 -0.9346 -0.6151 -1.0300
   48GLOH   H07 8850   2.918   7.350   1.817 -1.6137 -1.0283 -3.9744
   48GLOH    O3 8851   2.811   7.284   1.991 -0.7819 -0.0132 -0.0451
   48GLOH   H01 8852   2.734   7.325   2.033  0.3864  0.5654  1.5560
   49GLOH   H03 8853   3.367   3.809   1.161 -1.0692  2.2225 -0.9438
   49GLOH    O1 8854   3.462   3.823   1.146 -0.7833  0.5044 -0.7433
   49GLOH    C1 8855   3.521   3.718   1.076 -0.1417  0.2813 -0.2334
   49GLOH   H02 8856   3.621   3.745   1.040  0.1951  0.3841  0.7810
   49GLOH   H08 8857   3.464   3.700   0.985 -1.1410 -0.1460  0.4764
   49GLOH    C2 8858   3.530   3.583   1.149 -0.6030 -0.5657 -0.3288
   49GLOH   H04 8859   3.433   3.566   1.197 -1.8388  0.5493 -2.3886
   49GLOH    O2 8860   3.554   3.466   1.070 -0.0138  0.6030 -0.4206
   49GLOH   H05 8861   3.480   3.446   1.010  1.2092 -1.9370 -1.1350
   49GLOH    C3 8862   3.632   3.594   1.267 -0.1786  0.5083 -0.3097
   49GLOH   H06 8863   3.587   3.671   1.329  1.5449  1.1760  0.1598
   49GLOH   H07 8864   3.727   3.636   1.232  1.3999 -0.6016  2.4870
   49GLOH    O3 8865   3.643   3.490   1.366 -0.2589  0.3748 -0.4363
   49GLOH   H01 8866   3.696   3.522   1.441 -0.1759 -0.4344 -0.1484
   50GLOH   H03 8867   3.389   4.033   0.601 -0.5175 -2.2786  1.2730
   50GLOH    O1 8868   3.293   4.034   0.619 -0.6735 -0.1601  0.4313
   50GLOH    C1 8869   3.242   4.144   0.542  0.2310  0.3833  0.3374
   50GLOH   H02 8870   3.136   4.126   0.526  0.4437 -0.9460  0.3533
   50GLOH   H08 8871   3.289   4.144   0.443  2.0162 -0.8921  1.1648
   50GLOH    C2 8872   3.266   4.274   0.621  0.3738 -0.2472 -0.2561
   50GLOH   H04 8873   3.228   4.259   0.723  1.0670  1.0268  0.1949
   50GLOH    O2 8874   3.412   4.295   0.626 -0.4777 -0.1638 -0.4554
   50GLOH   H05 8875   3.462   4.241   0.563  0.1157 -0.5851  0.3592
   50GLOH    C3 8876   3.200   4.398   0.551 -0.1132  0.5630  0.2439
   50GLOH   H06 8877   3.227   4.398   0.446  0.1074 -0.8953  0.2937
   50GLOH   H07 8878   3.234   4.492   0.594 -0.0454  0.7912 -0.3106
   50GLOH    O3 8879   3.060   4.386   0.581  0.2368  0.6737  0.3230
   50GLOH   H01 8880   3.014   4.445   0.519  0.2469  0.7678  0.4056
   51GLOH   H03 8881   2.756   6.208   2.190  1.9623 -1.1064 -0.4395
   51GLOH    O1 8882   2.713   6.139   2.134 -0.4731  0.1920 -0.2575
   51GLOH    C1 8883   2.678   6.030   2.217 -0.0930 -0.2476  0.0746
   51GLOH   H02 8884   2.666   6.064   2.320 -1.3477  0.1160 -0.1825
   51GLOH   H08 8885   2.747   5.947   2.201  0.8061  0.9417 -2.5418
   51GLOH    C2 8886   2.540   5.983   2.164  0.2159 -0.2986 -0.8773
   51GLOH   H04 8887   2.548   5.986   2.054 -3.4265 -0.5541 -1.1944
   51GLOH    O2 8888   2.522   5.844   2.208  0.0829 -0.1509 -0.0935
   51GLOH   H05 8889   2.503   5.846   2.303  0.9906 -0.8470  0.1141
   51GLOH    C3 8890   2.425   6.072   2.213 -0.3846  0.6018  0.1890
   51GLOH   H06 8891   2.331   6.049   2.162 -1.3034  2.4523  1.0173
   51GLOH   H07 8892   2.452   6.174   2.190  1.0536 -0.5423 -3.4525
   51GLOH    O3 8893   2.407   6.056   2.356  0.0648  0.5771  0.1410
   51GLOH   H01 8894   2.430   5.968   2.391 -0.1167 -0.0454 -1.2551
   52GLOH   H03 8895   4.523   1.695   1.052 -0.4085  0.4518 -2.0266
   52GLOH    O1 8896   4.567   1.614   1.021  0.1727  0.2896 -0.8111
   52GLOH    C1 8897   4.465   1.539   0.964 -0.0822 -0.1458  0.2624
   52GLOH   H02 8898   4.508   1.453   0.911  0.3689  0.6799 -0.7343
   52GLOH   H08 8899   4.412   1.590   0.884 -0.6788 -0.5101  0.4265
   52GLOH    C2 8900   4.357   1.490   1.052  0.4626  0.0329  0.0646
   52GLOH   H04 8901   4.285   1.573   1.047 -1.1531 -1.2019  1.9234
   52GLOH    O2 8902   4.293   1.380   0.988  0.4841 -0.1644 -0.4569
   52GLOH   H05 8903   4.212   1.369   1.040  0.6932  1.0019  0.1384
   52GLOH    C3 8904   4.394   1.466   1.206  0.0281 -0.2606  0.1393
   52GLOH   H06 8905   4.438   1.560   1.240 -4.0777  2.0577 -0.6462
   52GLOH   H07 8906   4.469   1.388   1.206  0.5080  0.1993 -0.8543
   52GLOH    O3 8907   4.281   1.447   1.294 -0.0330 -0.4950 -0.0198
   52GLOH   H01 8908   4.304   1.427   1.386  0.0785  3.5030  0.9132
   53GLOH   H03 8909   2.600   8.792   1.124  1.6983  0.9773 -0.4857
   53GLOH    O1 8910   2.637   8.703   1.111  0.1367  0.1948  0.3042
   53GLOH    C1 8911   2.585   8.658   0.980 -0.3704 -0.0459 -0.5304
   53GLOH   H02 8912   2.520   8.732   0.932 -1.6807  0.5114  2.0194
   53GLOH   H08 8913   2.529   8.566   0.993 -0.5916 -0.1483 -2.1871
   53GLOH    C2 8914   2.708   8.625   0.887  0.2521 -0.5146 -1.0572
   53GLOH   H04 8915   2.771   8.565   0.954  0.5094 -0.2743 -1.0853
   53GLOH    O2 8916   2.672   8.545   0.774 -0.2137 -0.2950 -0.9545
   53GLOH   H05 8917   2.710   8.587   0.694  1.9250 -0.7964 -0.2245
   53GLOH    C3 8918   2.787   8.746   0.841 -0.7042 -0.4542  0.1174
   53GLOH   H06 8919   2.871   8.703   0.787 -1.1535  0.1275 -1.0462
   53GLOH   H07 8920   2.824   8.797   0.930  0.9375  0.3397 -0.9940
   53GLOH    O3 8921   2.706   8.833   0.760  0.4418 -0.1039 -0.2413
   53GLOH   H01 8922   2.756   8.916   0.745 -0.9805  1.2243  2.1309
   54GLOH   H03 8923   4.968   3.200   0.779  1.6245 -0.4606 -1.0975
   54GLOH    O1 8924   4.940   3.227   0.690 -0.1986  0.3782 -0.3073
   54GLOH    C1 8925   5.052   3.284   0.618  0.1802 -0.9249  0.4817
   54GLOH   H02 8926   5.034   3.257   0.514  0.9987  0.0529  0.0899
   54GLOH   H08 8927   5.136   3.222   0.649 -0.6301 -2.2841  0.0609
   54GLOH    C2 8928   5.076   3.434   0.629 -0.0964 -0.0096  0.6004
   54GLOH   H04 8929   5.168   3.457   0.573  1.2407 -4.6533  0.7151
   54GLOH    O2 8930   4.967   3.510   0.576 -0.1569 -0.4672 -0.2802
   54GLOH   H05 8931   4.888   3.461   0.602  1.0986 -1.1373  2.4301
   54GLOH    C3 8932   5.091   3.470   0.780  1.1142  0.4416 -0.1731
   54GLOH   H06 8933   4.991   3.474   0.825  1.6916 -2.5472  1.5161
   54GLOH   H07 8934   5.102   3.579   0.781 -2.3597  0.8611 -0.6278
   54GLOH    O3 8935   5.192   3.395   0.853  0.1699  0.3000 -0.3438
   54GLOH   H01 8936   5.201   3.442   0.938  1.0979  0.5489 -0.5737
   55GLOH   H03 8937   2.775   7.672   0.046  0.4615  0.3876 -0.1440
   55GLOH    O1 8938   2.747   7.741   0.109  0.1916  0.4433 -0.3259
   55GLOH    C1 8939   2.725   7.861   0.039  0.4234  0.0108  0.4571
   55GLOH   H02 8940   2.808   7.876  -0.030 -1.7910  2.3896 -1.8454
   55GLOH   H08 8941   2.711   7.945   0.108  1.9750 -0.0545  0.8685
   55GLOH    C2 8942   2.594   7.859  -0.033  0.8333 -0.3106 -0.0741
   55GLOH   H04 8943   2.588   7.769  -0.096  0.1958  0.6562 -1.4064
   55GLOH    O2 8944   2.483   7.848   0.066 -0.0375  0.0882  0.0302
   55GLOH   H05 8945   2.484   7.751   0.079  1.2288 -0.0815 -1.1614
   55GLOH    C3 8946   2.584   7.982  -0.119 -0.0677 -0.4605  0.1387
   55GLOH   H06 8947   2.588   8.069  -0.053  1.7005 -1.4846  1.4128
   55GLOH   H07 8948   2.489   7.985  -0.172  0.7288 -1.2452 -1.3660
   55GLOH    O3 8949   2.700   7.986  -0.210 -0.6864 -0.2623 -0.3700
   55GLOH   H01 8950   2.709   8.082  -0.223  0.0970 -0.4403 -1.1491
   56GLOH   H03 8951   4.198   2.897   2.184  1.1745 -0.9270 -0.1902
   56GLOH    O1 8952   4.146   2.822   2.151 -0.2789 -0.0277 -0.0047
   56GLOH    C1 8953   4.205   2.753   2.041 -0.3683 -0.2876 -0.4807
   56GLOH   H02 8954   4.301   2.798   2.017 -1.3302  2.2097  0.2618
   56GLOH   H08 8955   4.151   2.758   1.946 -1.3150  0.6117  0.1086
   56GLOH    C2 8956   4.217   2.600   2.070 -0.3508  0.4300 -0.4244
   56GLOH   H04 8957   4.116   2.557   2.065 -0.4360  0.7392 -1.7346
   56GLOH    O2 8958   4.295   2.541   1.966 -1.0207 -0.4625  0.2898
   56GLOH   H05 8959   4.322   2.450   1.989 -2.2329 -0.8474  0.2726
   56GLOH    C3 8960   4.281   2.583   2.205 -0.0323  0.7304 -0.2494
   56GLOH   H06 8961   4.282   2.475   2.221  0.4272  0.5419 -1.4843
   56GLOH   H07 8962   4.223   2.626   2.287 -0.3274 -0.8038  0.3625
   56GLOH    O3 8963   4.413   2.635   2.206 -0.2931 -0.4946 -0.3112
   56GLOH   H01 8964   4.439   2.699   2.136 -0.2449  1.1007  1.1297
   57GLOH   H03 8965   2.926   6.354   2.241 -0.6394 -0.1338  0.7471
   57GLOH    O1 8966   2.837   6.315   2.252 -0.6917 -0.3174 -0.3459
   57GLOH    C1 8967   2.805   6.297   2.393 -0.9898 -0.0805  0.1462
   57GLOH   H02 8968   2.705   6.252   2.398 -1.1127  0.0012 -1.1932
   57GLOH   H08 8969   2.811   6.392   2.445 -0.3168 -0.8612  1.5159
   57GLOH    C2 8970   2.897   6.194   2.460 -0.0906 -0.1939 -0.3392
   57GLOH   H04 8971   2.873   6.094   2.419 -0.0033 -0.5400  0.4520
   57GLOH    O2 8972   3.035   6.236   2.459  0.1301 -0.3484  0.4434
   57GLOH   H05 8973   3.063   6.234   2.366 -0.0085  2.2304  0.3042
   57GLOH    C3 8974   2.853   6.180   2.609 -0.1615 -0.6614  0.6498
   57GLOH   H06 8975   2.839   6.276   2.658  1.2400 -0.5790  0.9307
   57GLOH   H07 8976   2.940   6.142   2.663  0.6593  0.5673  0.2134
   57GLOH    O3 8977   2.740   6.097   2.627 -0.0791  0.5563  0.5449
   57GLOH   H01 8978   2.682   6.134   2.696 -0.0817  2.4730 -0.4452
   58GLOH   H03 8979   3.237   7.246   0.092  0.1399  1.0225 -0.6223
   58GLOH    O1 8980   3.161   7.192   0.063  0.3185  0.7113 -0.5092
   58GLOH    C1 8981   3.042   7.229   0.145 -0.7013  0.0697 -0.7092
   58GLOH   H02 8982   2.944   7.199   0.110 -0.7011 -0.5339 -0.2083
   58GLOH   H08 8983   3.035   7.338   0.148 -0.0250  0.1451 -1.6798
   58GLOH    C2 8984   3.058   7.182   0.288  0.1454  0.0296 -0.3245
   58GLOH   H04 8985   3.155   7.212   0.331 -0.0914  1.3850 -0.6877
   58GLOH    O2 8986   2.951   7.236   0.372 -0.1112  0.1928 -0.0791
   58GLOH   H05 8987   2.990   7.315   0.412  1.2240 -0.1191 -0.7604
   58GLOH    C3 8988   3.048   7.029   0.287 -0.4237 -0.0343  0.5011
   58GLOH   H06 8989   2.952   7.002   0.245  1.4411 -4.8017 -1.0424
   58GLOH   H07 8990   3.052   6.993   0.390 -1.8968 -0.1912  0.5066
   58GLOH    O3 8991   3.151   6.954   0.213 -0.0397 -0.0334 -0.1974
   58GLOH   H01 8992   3.182   7.011   0.140  2.2904  0.6334  1.2989
   59GLOH   H03 8993   4.002   4.258   2.696  0.0547 -0.1307  1.6409
   59GLOH    O1 8994   3.916   4.303   2.686  0.4022  0.0706 -0.7375
   59GLOH    C1 8995   3.929   4.451   2.692  0.7659 -1.2079 -0.9855
   59GLOH   H02 8996   3.962   4.470   2.794 -1.9295 -3.7986  0.4475
   59GLOH   H08 8997   3.835   4.505   2.686  1.0326 -0.1898  2.7851
   59GLOH    C2 8998   4.034   4.498   2.589 -0.0313 -0.1804  0.0093
   59GLOH   H04 8999   4.074   4.592   2.630 -0.6250  0.3517 -0.6142
   59GLOH    O2 9000   4.142   4.398   2.571  0.0814  0.8522  0.1187
   59GLOH   H05 9001   4.218   4.439   2.616 -0.1262  0.1364  1.1360
   59GLOH    C3 9002   3.972   4.529   2.453  0.0561  0.0818 -0.5667
   59GLOH   H06 9003   3.902   4.452   2.421  1.0637  0.0593 -2.8662
   59GLOH   H07 9004   4.050   4.535   2.376 -0.7033 -0.8232 -1.4184
   59GLOH    O3 9005   3.896   4.649   2.454 -0.3659 -0.3709  0.1893
   59GLOH   H01 9006   3.865   4.665   2.363 -1.7274 -0.0771  0.6891
   60GLOH   H03 9007   2.556   5.194   0.571 -1.8192 -0.7841 -0.0282
   60GLOH    O1 9008   2.549   5.179   0.667 -0.3840 -0.1480  0.1897
   60GLOH    C1 9009   2.428   5.101   0.683  0.4291  0.3263 -0.2577
   60GLOH   H02 9010   2.413   5.036   0.597 -1.0306  1.0904 -0.6005
   60GLOH   H08 9011   2.337   5.161   0.690  0.9207  0.9231  1.2016
   60GLOH    C2 9012   2.440   5.016   0.811  0.1660 -0.4240  0.1890
   60GLOH   H04 9013   2.517   4.941   0.791  1.1603  0.4099  0.8461
   60GLOH    O2 9014   2.484   5.078   0.937 -0.5077 -0.7980 -0.2579
   60GLOH   H05 9015   2.508   5.016   1.007  0.2958 -0.3012 -0.0861
   60GLOH    C3 9016   2.302   4.943   0.828  0.5909  0.1755  0.7877
   60GLOH   H06 9017   2.221   5.017   0.830  0.8692  0.6048 -1.6964
   60GLOH   H07 9018   2.299   4.898   0.927 -1.0587  0.5874  0.9421
   60GLOH    O3 9019   2.282   4.855   0.718 -0.1810  0.3685  0.3767
   60GLOH   H01 9020   2.344   4.779   0.716  1.0323  1.3076  1.3101
   61GLOH   H03 9021   3.305   5.427   0.650  0.0646 -0.2209 -0.1900
   61GLOH    O1 9022   3.374   5.360   0.662  0.2345 -0.0123  0.0184
   61GLOH    C1 9023   3.362   5.277   0.553  0.1737 -0.2592  0.9436
   61GLOH   H02 9024   3.353   5.331   0.459 -3.1435 -1.4125  0.5384
   61GLOH   H08 9025   3.273   5.214   0.562  1.0345 -1.6251  0.1500
   61GLOH    C2 9026   3.485   5.185   0.549 -0.7270  0.8117  0.5021
   61GLOH   H04 9027   3.493   5.133   0.646 -2.4968  0.7722  0.6510
   61GLOH    O2 9028   3.470   5.091   0.448  0.2408  0.5793 -0.1236
   61GLOH   H05 9029   3.388   5.038   0.448  0.3094  0.4554  1.6642
   61GLOH    C3 9030   3.610   5.272   0.521 -0.6416  0.0181 -0.1089
   61GLOH   H06 9031   3.702   5.217   0.540  0.9979  2.3413 -1.1713
   61GLOH   H07 9032   3.604   5.356   0.589  0.7222 -2.2600  2.9633
   61GLOH    O3 9033   3.607   5.320   0.387  0.0546  0.2058 -0.4516
   61GLOH   H01 9034   3.543   5.256   0.351  0.7367  0.2498 -1.7930
   62GLOH   H03 9035   4.285   4.252   0.222  0.8934 -1.0859  0.5730
   62GLOH    O1 9036   4.281   4.178   0.159 -0.1384 -0.4629 -0.1074
   62GLOH    C1 9037   4.320   4.054   0.234  0.6725 -0.9180  0.1778
   62GLOH   H02 9038   4.425   4.049   0.264  0.3163 -2.3272  1.2444
   62GLOH   H08 9039   4.325   3.971   0.163  1.2279 -1.1943  0.5344
   62GLOH    C2 9040   4.212   4.008   0.330 -0.1242  0.3207 -0.0525
   62GLOH   H04 9041   4.209   4.087   0.406 -0.1798  2.0692 -1.8084
   62GLOH    O2 9042   4.086   3.992   0.258 -0.3626  0.0437 -0.0021
   62GLOH   H05 9043   4.029   4.059   0.300 -1.4990 -1.4868  0.9452
   62GLOH    C3 9044   4.246   3.873   0.396  0.1130 -0.3733 -0.2713
   62GLOH   H06 9045   4.243   3.799   0.315 -1.6175  0.0525 -0.6092
   62GLOH   H07 9046   4.158   3.846   0.455 -0.1149  1.6295  0.3354
   62GLOH    O3 9047   4.364   3.872   0.479  0.2213 -0.0405 -0.3688
   62GLOH   H01 9048   4.360   3.800   0.545  1.4593  1.4139  1.3219
   63GLOH   H03 9049   4.851   3.598   1.036 -1.5389 -1.2307 -0.2348
   63GLOH    O1 9050   4.904   3.528   1.076  0.2881  0.3851  0.2504
   63GLOH    C1 9051   4.821   3.478   1.181  0.2619 -0.1267  1.0419
   63GLOH   H02 9052   4.865   3.391   1.229  0.0265 -0.3020  0.9391
   63GLOH   H08 9053   4.725   3.442   1.143  1.5643 -0.6404 -1.8619
   63GLOH    C2 9054   4.788   3.578   1.292  0.0058  0.0398  0.4328
   63GLOH   H04 9055   4.882   3.621   1.329 -0.9895  1.6814  1.1147
   63GLOH    O2 9056   4.702   3.687   1.247 -0.1519 -0.1154  0.1051
   63GLOH   H05 9057   4.747   3.712   1.165  2.0042 -2.7333  0.4071
   63GLOH    C3 9058   4.725   3.506   1.411  0.3892  0.8306 -0.0667
   63GLOH   H06 9059   4.644   3.439   1.384  2.2726 -1.3902 -0.3536
   63GLOH   H07 9060   4.690   3.579   1.484  2.8410  1.7659  0.2401
   63GLOH    O3 9061   4.820   3.419   1.476 -0.3436 -0.4146  0.1649
   63GLOH   H01 9062   4.776   3.389   1.557 -1.2430 -0.4624 -0.3300
   64GLOH   H03 9063   4.579   3.086   2.620  0.1578 -0.0556  0.3160
   64GLOH    O1 9064   4.573   3.183   2.622 -0.5284 -0.0617 -1.0073
   64GLOH    C1 9065   4.688   3.220   2.703 -0.1600  0.1321  0.7430
   64GLOH   H02 9066   4.779   3.223   2.644  0.6552 -0.3580  1.9464
   64GLOH   H08 9067   4.705   3.139   2.775 -0.1724 -0.5229  0.0147
   64GLOH    C2 9068   4.680   3.352   2.793  0.0638  0.3129  0.2951
   64GLOH   H04 9069   4.595   3.337   2.861 -0.6719 -2.8689 -1.2457
   64GLOH    O2 9070   4.804   3.372   2.873  0.1651  0.4291  0.3940
   64GLOH   H05 9071   4.813   3.463   2.907  0.7930  0.1348  1.0236
   64GLOH    C3 9072   4.648   3.469   2.700  0.3168 -0.9597 -0.2513
   64GLOH   H06 9073   4.572   3.434   2.630  1.7249 -1.1274 -1.7431
   64GLOH   H07 9074   4.727   3.508   2.636 -2.2840  1.7302 -2.0066
   64GLOH    O3 9075   4.604   3.582   2.778  0.5278  0.0588 -0.0773
   64GLOH   H01 9076   4.669   3.608   2.847  1.1419 -0.8311 -0.3007
   65GLOH   H03 9077   2.215   8.249   2.243 -0.1694  0.6757 -0.5358
   65GLOH    O1 9078   2.268   8.198   2.179  0.2914 -0.0747  0.4096
   65GLOH    C1 9079   2.248   8.211   2.043 -0.1365 -0.3236  0.5978
   65GLOH   H02 9080   2.145   8.187   2.017  0.0257 -1.9106  1.4031
   65GLOH   H08 9081   2.312   8.143   1.986  0.6725  0.5907  0.3977
   65GLOH    C2 9082   2.265   8.358   1.995 -0.3436 -0.1342 -0.7499
   65GLOH   H04 9083   2.364   8.392   2.030 -0.5542  1.5290 -1.6813
   65GLOH    O2 9084   2.254   8.376   1.853 -0.2925 -0.2630  0.4970
   65GLOH   H05 9085   2.325   8.442   1.848 -0.7251  0.1757  0.1264
   65GLOH    C3 9086   2.137   8.432   2.048 -0.2972 -0.0720  0.0911
   65GLOH   H06 9087   2.050   8.394   1.995 -0.5279  0.5014  0.0561
   65GLOH   H07 9088   2.142   8.535   2.013 -0.9499  0.7185  2.2545
   65GLOH    O3 9089   2.111   8.446   2.188  0.0458 -0.0262  0.1296
   65GLOH   H01 9090   2.196   8.467   2.231 -1.1117  0.9409  2.0104
   66GLOH   H03 9091   3.501   7.898   1.373  0.3885  0.6999  0.4235
   66GLOH    O1 9092   3.488   7.857   1.461  0.1391  0.3395  0.2193
   66GLOH    C1 9093   3.480   7.714   1.461  0.5675  0.4838  0.6937
   66GLOH   H02 9094   3.579   7.676   1.435  0.5070  0.7270  0.1173
   66GLOH   H08 9095   3.415   7.679   1.381  1.0417 -0.6804  0.8021
   66GLOH    C2 9096   3.432   7.656   1.592  0.2317 -0.5385  0.4931
   66GLOH   H04 9097   3.474   7.712   1.677  1.3331 -2.7339  1.4632
   66GLOH    O2 9098   3.289   7.680   1.604 -0.7542 -0.3605  0.3292
   66GLOH   H05 9099   3.258   7.759   1.558  0.6803  0.7654  1.2674
   66GLOH    C3 9100   3.480   7.509   1.596 -0.1340 -0.2997 -0.2923
   66GLOH   H06 9101   3.470   7.465   1.695  1.0678 -0.5464 -0.2696
   66GLOH   H07 9102   3.589   7.512   1.595 -0.1055 -0.6840  0.7210
   66GLOH    O3 9103   3.429   7.425   1.488 -0.2278  0.4827 -0.6575
   66GLOH   H01 9104   3.332   7.433   1.494 -0.2774 -0.2293 -0.4255
   67GLOH   H03 9105   4.069   3.178   0.436  0.5595 -0.5643 -1.7767
   67GLOH    O1 9106   4.139   3.117   0.468  0.2166  0.2045  0.5553
   67GLOH    C1 9107   4.174   3.152   0.601 -0.2629  0.6604 -0.0854
   67GLOH   H02 9108   4.094   3.140   0.675 -2.3782  4.8315 -1.5272
   67GLOH   H08 9109   4.206   3.257   0.602  1.8851  0.0279  0.6676
   67GLOH    C2 9110   4.295   3.061   0.642 -0.3374  1.0938 -0.1065
   67GLOH   H04 9111   4.369   3.062   0.561  3.2814 -0.1896  3.0729
   67GLOH    O2 9112   4.369   3.117   0.752  0.4927 -0.1434  0.3702
   67GLOH   H05 9113   4.329   3.097   0.838 -0.3720 -0.1246 -0.0257
   67GLOH    C3 9114   4.249   2.913   0.661  0.5870  0.2237  0.0799
   67GLOH   H06 9115   4.339   2.853   0.674  0.5916  0.4787  1.2690
   67GLOH   H07 9116   4.202   2.871   0.572 -0.2681 -0.7352  0.9789
   67GLOH    O3 9117   4.153   2.889   0.767 -0.2129  0.5087  0.6616
   67GLOH   H01 9118   4.199   2.835   0.833 -1.6737 -0.3168  1.0355
   68GLOH   H03 9119   3.003   6.576   0.381  0.4101 -1.4794 -1.3901
   68GLOH    O1 9120   2.933   6.517   0.415  0.3831 -0.1852  0.9578
   68GLOH    C1 9121   2.985   6.382   0.423 -0.5469  0.8462  0.3667
   68GLOH   H02 9122   3.087   6.371   0.461 -0.6868 -1.5016  0.1468
   68GLOH   H08 9123   3.000   6.351   0.320 -0.2646 -0.1241  0.6926
   68GLOH    C2 9124   2.893   6.266   0.481 -0.0245  0.1382 -0.1470
   68GLOH   H04 9125   2.891   6.261   0.591  1.5940  1.5152 -0.0349
   68GLOH    O2 9126   2.761   6.294   0.444  0.2492 -0.6231  0.6131
   68GLOH   H05 9127   2.757   6.321   0.351 -1.5480 -0.8398  0.6001
   68GLOH    C3 9128   2.928   6.131   0.417 -0.1754  0.0294 -0.2218
   68GLOH   H06 9129   2.923   6.140   0.308 -1.0079  3.4604  0.0389
   68GLOH   H07 9130   2.850   6.061   0.447  0.9833 -0.9431  0.6003
   68GLOH    O3 9131   3.059   6.086   0.463 -0.4654 -0.1160 -0.0166
   68GLOH   H01 9132   3.107   6.040   0.391  1.4007 -0.1693  1.2149
   69GLOH   H03 9133   3.430   2.498   2.467  0.4067 -1.7584  0.7960
   69GLOH    O1 9134   3.378   2.530   2.542  0.6089 -0.2151  0.2997
   69GLOH    C1 9135   3.445   2.622   2.630 -0.0729  0.4268  0.5058
   69GLOH   H02 9136   3.548   2.621   2.596  0.0902  0.0422  1.0153
   69GLOH   H08 9137   3.460   2.576   2.727 -1.3624 -0.1177  0.4681
   69GLOH    C2 9138   3.383   2.760   2.636  0.1456  0.5311 -0.3677
   69GLOH   H04 9139   3.286   2.747   2.686 -0.5435 -3.0660 -2.5121
   69GLOH    O2 9140   3.474   2.842   2.714  0.5453 -0.1508 -0.5694
   69GLOH   H05 9141   3.551   2.866   2.659  0.0163  0.4824 -1.0449
   69GLOH    C3 9142   3.355   2.821   2.495 -0.3303 -0.6864  0.3000
   69GLOH   H06 9143   3.441   2.808   2.429 -2.0462 -0.7776 -1.9924
   69GLOH   H07 9144   3.355   2.928   2.513  0.6440 -0.9132  1.6450
   69GLOH    O3 9145   3.230   2.781   2.435  0.1709  0.1415  0.7165
   69GLOH   H01 9146   3.159   2.765   2.499 -0.6145 -0.7633 -0.3521
   70GLOH   H03 9147   3.047   6.407   1.743  0.7861  0.4098 -0.8914
   70GLOH    O1 9148   3.094   6.463   1.808 -0.4694  0.4060  0.0375
   70GLOH    C1 9149   3.143   6.595   1.766  0.7938 -0.6834  0.5171
   70GLOH   H02 9150   3.095   6.619   1.671  1.3326 -1.0396  0.1564
   70GLOH   H08 9151   3.249   6.588   1.744  0.2098 -0.0029 -2.8224
   70GLOH    C2 9152   3.134   6.710   1.863  0.1093 -0.2957 -0.0272
   70GLOH   H04 9153   3.028   6.705   1.891 -0.5850 -0.3204 -2.5370
   70GLOH    O2 9154   3.215   6.695   1.977 -0.4958 -0.0959 -0.2537
   70GLOH   H05 9155   3.195   6.766   2.041 -4.4706 -1.9029  0.6510
   70GLOH    C3 9156   3.148   6.845   1.791 -0.6824  0.9421 -0.6748
   70GLOH   H06 9157   3.230   6.842   1.720 -0.6581 -0.8329 -0.6180
   70GLOH   H07 9158   3.169   6.922   1.865  0.4680 -0.1578  0.1772
   70GLOH    O3 9159   3.027   6.873   1.714  0.4020 -0.9919 -0.9549
   70GLOH   H01 9160   3.003   6.967   1.716 -2.3067 -1.6170 -2.2023
   71GLOH   H03 9161   3.174   1.131   1.091 -0.6676  0.2789 -0.8051
   71GLOH    O1 9162   3.224   1.084   1.022 -0.2474 -0.6397  0.1137
   71GLOH    C1 9163   3.187   0.953   0.978  0.0632 -0.0977  0.4775
   71GLOH   H02 9164   3.080   0.945   0.997  0.0693  0.3243  0.7108
   71GLOH   H08 9165   3.237   0.876   1.036  0.5372 -0.5285 -0.4976
   71GLOH    C2 9166   3.217   0.917   0.829  0.0935  0.9293 -0.4937
   71GLOH   H04 9167   3.324   0.931   0.810 -0.2722  1.5902 -2.1340
   71GLOH    O2 9168   3.194   0.782   0.789 -0.4276 -0.5878 -0.3241
   71GLOH   H05 9169   3.217   0.726   0.865  1.4035 -2.6292 -2.3224
   71GLOH    C3 9170   3.129   1.004   0.737 -0.0909  0.5711  0.0591
   71GLOH   H06 9171   3.025   0.982   0.763  0.6335  0.1895  2.8015
   71GLOH   H07 9172   3.147   0.974   0.634  2.8523  0.3183  0.6011
   71GLOH    O3 9173   3.162   1.143   0.757 -0.2937  0.3259  0.5758
   71GLOH   H01 9174   3.194   1.167   0.845  2.6993  1.7461 -0.8190
   72GLOH   H03 9175   4.018   8.294   0.764 -1.3509 -1.8670  0.7343
   72GLOH    O1 9176   3.938   8.350   0.762 -0.1077 -0.0703  0.2098
   72GLOH    C1 9177   3.815   8.281   0.788  0.4267 -0.1853  0.1492
   72GLOH   H02 9178   3.817   8.244   0.891 -2.0136  0.6235  0.5100
   72GLOH   H08 9179   3.803   8.191   0.728  2.1153 -1.1063  1.1228
   72GLOH    C2 9180   3.690   8.363   0.763  0.2753 -1.2443 -0.4398
   72GLOH   H04 9181   3.689   8.400   0.660 -0.1013  2.1812  0.7219
   72GLOH    O2 9182   3.576   8.285   0.790  0.1161 -0.3312  0.2735
   72GLOH   H05 9183   3.501   8.346   0.778 -0.3213 -1.3195 -2.4757
   72GLOH    C3 9184   3.690   8.482   0.866  0.7770 -1.0356  0.1434
   72GLOH   H06 9185   3.650   8.439   0.958 -1.8923 -1.8300 -1.3356
   72GLOH   H07 9186   3.617   8.553   0.828 -3.0720 -4.1266  1.4809
   72GLOH    O3 9187   3.820   8.536   0.869 -0.7497  0.5791 -0.1410
   72GLOH   H01 9188   3.876   8.467   0.828 -0.2861  1.5923 -1.2096
   73GLOH   H03 9189   4.105   8.422   1.358  0.2336 -1.7004  1.9158
   73GLOH    O1 9190   4.022   8.437   1.406 -0.9024 -0.0798 -0.4716
   73GLOH    C1 9191   3.937   8.327   1.391  0.4023  0.1871 -0.2786
   73GLOH   H02 9192   3.890   8.297   1.485  1.3462 -1.3125 -0.2565
   73GLOH   H08 9193   3.993   8.236   1.368  2.6661  1.9130 -1.7538
   73GLOH    C2 9194   3.843   8.343   1.271 -0.1191  0.1828  0.8376
   73GLOH   H04 9195   3.768   8.264   1.261  2.0786 -1.5861 -2.6395
   73GLOH    O2 9196   3.759   8.461   1.277  0.3629 -0.2885 -0.5404
   73GLOH   H05 9197   3.825   8.532   1.274 -0.1165  0.2289  0.7482
   73GLOH    C3 9198   3.923   8.351   1.142 -0.1394 -0.1847 -0.1908
   73GLOH   H06 9199   3.995   8.432   1.156 -0.2944  0.0853 -0.9430
   73GLOH   H07 9200   3.848   8.377   1.067  2.8966  3.0613 -2.2765
   73GLOH    O3 9201   3.986   8.228   1.103  0.3275 -0.1311 -0.2362
   73GLOH   H01 9202   3.913   8.163   1.103  0.6959 -0.5642  1.5646
   74GLOH   H03 9203   4.481   2.199   0.662 -0.1936 -0.5182 -0.1993
   74GLOH    O1 9204   4.460   2.156   0.747 -0.2209 -0.2407 -0.0623
   74GLOH    C1 9205   4.537   2.215   0.861 -0.0946  0.8481  0.9736
   74GLOH   H02 9206   4.498   2.174   0.955 -0.2365 -1.0743  0.1019
   74GLOH   H08 9207   4.533   2.324   0.864  1.4359  0.9077  5.1627
   74GLOH    C2 9208   4.689   2.179   0.861  0.0861 -0.4307 -1.1122
   74GLOH   H04 9209   4.687   2.070   0.879  0.9764 -0.2208  0.3360
   74GLOH    O2 9210   4.761   2.193   0.732 -0.1521 -0.1931  0.7071
   74GLOH   H05 9211   4.850   2.156   0.743 -0.6659 -1.5600  0.4004
   74GLOH    C3 9212   4.757   2.254   0.975  0.0675  0.0701  0.0717
   74GLOH   H06 9213   4.865   2.240   0.973  0.2660  1.4730  0.2841
   74GLOH   H07 9214   4.737   2.203   1.069 -0.7945  1.4905  0.6642
   74GLOH    O3 9215   4.740   2.395   0.978  0.2253 -0.1800 -0.3358
   74GLOH   H01 9216   4.734   2.424   0.885 -0.6144  1.7375  0.2993
   75GLOH   H03 9217   3.113   5.388   1.254 -2.1593  1.7921 -2.1676
   75GLOH    O1 9218   3.035   5.349   1.297  0.2083 -0.3311  0.3796
   75GLOH    C1 9219   3.006   5.408   1.424 -0.3135  0.5098 -0.3737
   75GLOH   H02 9220   2.920   5.359   1.470  1.5188 -1.5307  0.9715
   75GLOH   H08 9221   2.997   5.516   1.411  2.7935  0.8859  0.3343
   75GLOH    C2 9222   3.126   5.374   1.516  0.8585  0.1292 -0.4332
   75GLOH   H04 9223   3.147   5.267   1.529 -2.4951 -0.6053 -0.5084
   75GLOH    O2 9224   3.252   5.431   1.469  1.0509  0.0797 -0.5806
   75GLOH   H05 9225   3.285   5.373   1.398  1.7695  3.3737 -3.0864
   75GLOH    C3 9226   3.098   5.426   1.656  0.2692 -0.3225 -0.5113
   75GLOH   H06 9227   3.192   5.445   1.708  0.6326 -1.0877 -0.8773
   75GLOH   H07 9228   3.048   5.342   1.705 -1.5217  2.1386  2.0289
   75GLOH    O3 9229   3.026   5.549   1.659 -0.2173  0.2270  0.4375
   75GLOH   H01 9230   2.957   5.543   1.727 -0.8381  0.7626 -0.1392
   76GLOH   H03 9231   3.599   2.435   0.655  0.9012  0.3460 -1.1587
   76GLOH    O1 9232   3.651   2.472   0.729 -0.2547  0.1434 -0.2457
   76GLOH    C1 9233   3.570   2.448   0.842 -0.0638 -0.0474 -0.8750
   76GLOH   H02 9234   3.502   2.531   0.860 -0.3590 -0.1371 -1.5714
   76GLOH   H08 9235   3.632   2.454   0.932  0.1950  3.5158 -1.2209
   76GLOH    C2 9236   3.493   2.313   0.833  0.8745 -1.0226  0.6551
   76GLOH   H04 9237   3.565   2.230   0.848  3.4778  0.9649 -0.4592
   76GLOH    O2 9238   3.398   2.302   0.940 -0.2658 -0.3930 -0.0825
   76GLOH   H05 9239   3.354   2.388   0.948 -1.9966 -1.2847  0.1416
   76GLOH    C3 9240   3.433   2.292   0.688  0.1602  0.4275 -0.1708
   76GLOH   H06 9241   3.368   2.377   0.664 -0.5113  0.4965  1.7896
   76GLOH   H07 9242   3.364   2.208   0.684 -1.4114  1.6794 -0.2825
   76GLOH    O3 9243   3.536   2.285   0.588  0.1039  0.1826  0.2565
   76GLOH   H01 9244   3.490   2.292   0.502 -0.2008  0.8271  0.4712
   77GLOH   H03 9245   3.731   8.026   1.241  0.9799 -1.2516  1.0776
   77GLOH    O1 9246   3.798   8.050   1.174  0.1640  0.0323  0.7016
   77GLOH    C1 9247   3.738   8.004   1.045  0.2564 -0.7043  0.2066
   77GLOH   H02 9248   3.728   7.895   1.036  1.3085 -0.8030  0.1697
   77GLOH   H08 9249   3.796   8.046   0.963 -0.2452 -2.1276 -0.9058
   77GLOH    C2 9250   3.595   8.051   1.030  0.1967  0.6225  0.1081
   77GLOH   H04 9251   3.601   8.160   1.046 -2.3329  0.8165 -0.0677
   77GLOH    O2 9252   3.547   8.032   0.896 -0.4139 -0.2195  0.8517
   77GLOH   H05 9253   3.539   8.120   0.853  1.2546 -0.6161 -0.3285
   77GLOH    C3 9254   3.505   7.977   1.128  0.0871 -0.3898 -0.7897
   77GLOH   H06 9255   3.526   7.874   1.099  0.4078 -0.1208 -1.5263
   77GLOH   H07 9256   3.402   7.996   1.098 -0.8961 -1.8365  1.5409
   77GLOH    O3 9257   3.545   8.008   1.262 -1.2936 -0.2168  0.2429
   77GLOH   H01 9258   3.495   8.090   1.279 -1.3438 -0.3645  0.8232
   78GLOH   H03 9259   4.166   4.145   0.029  0.9172  0.8146  0.0527
   78GLOH    O1 9260   4.119   4.123  -0.054  0.9415  0.7420  0.0586
   78GLOH    C1 9261   4.044   4.000  -0.045  0.8456 -0.2979  0.1181
   78GLOH   H02 9262   3.969   4.015   0.033  0.3501  0.4644 -0.4868
   78GLOH   H08 9263   4.107   3.915  -0.020  1.0069 -0.4620 -0.8375
   78GLOH    C2 9264   3.967   3.967  -0.175  0.2100 -0.6931 -0.4363
   78GLOH   H04 9265   3.889   4.039  -0.202 -0.3850 -0.0656  2.7715
   78GLOH    O2 9266   4.062   3.959  -0.291 -0.0033 -0.1916  0.0430
   78GLOH   H05 9267   4.096   4.045  -0.322  1.5965 -0.8251  0.0170
   78GLOH    C3 9268   3.887   3.837  -0.151 -0.3289  0.6960  0.2528
   78GLOH   H06 9269   3.949   3.780  -0.082  0.4668  2.1121  0.7282
   78GLOH   H07 9270   3.876   3.777  -0.241 -0.2317 -1.6527  1.7572
   78GLOH    O3 9271   3.760   3.858  -0.090 -0.7235  0.3130 -0.8435
   78GLOH   H01 9272   3.706   3.903  -0.158 -0.7985 -0.7727 -1.5147
   79GLOH   H03 9273   3.691   0.600   1.758 -1.3187  1.1971 -0.1312
   79GLOH    O1 9274   3.662   0.533   1.692  0.3094 -0.0186  0.3515
   79GLOH    C1 9275   3.750   0.413   1.675  0.2435 -0.2293 -0.0194
   79GLOH   H02 9276   3.764   0.360   1.769 -0.0260  1.4638  1.0056
   79GLOH   H08 9277   3.846   0.454   1.643 -0.4332  1.9130  0.5807
   79GLOH    C2 9278   3.710   0.314   1.563  0.0775  0.0464 -0.2497
   79GLOH   H04 9279   3.715   0.360   1.463 -0.3512  2.6751  0.8837
   79GLOH    O2 9280   3.795   0.200   1.566  0.5805  0.1649  0.0237
   79GLOH   H05 9281   3.866   0.225   1.628  1.2958 -0.4645 -0.5281
   79GLOH    C3 9282   3.568   0.272   1.563  0.1707 -0.0816  0.3204
   79GLOH   H06 9283   3.512   0.364   1.583  0.7046  0.2494  0.3176
   79GLOH   H07 9284   3.558   0.210   1.652  0.9004 -0.6418  0.0107
   79GLOH    O3 9285   3.523   0.204   1.451  0.2700 -0.1522  0.2938
   79GLOH   H01 9286   3.598   0.192   1.391  0.0254  2.1517 -0.5007
   80GLOH   H03 9287   3.623   8.209   2.116 -1.3662  0.7060  1.4210
   80GLOH    O1 9288   3.687   8.197   2.188 -0.1324  0.3519  0.2928
   80GLOH    C1 9289   3.819   8.237   2.150  0.0388  0.4239  0.2319
   80GLOH   H02 9290   3.819   8.294   2.057  0.0906  2.0423  1.2098
   80GLOH   H08 9291   3.886   8.152   2.144 -0.2820  0.0391  1.8548
   80GLOH    C2 9292   3.864   8.332   2.265  0.1053  0.0029 -0.3086
   80GLOH   H04 9293   3.862   8.276   2.360 -2.7000 -0.4717 -0.6021
   80GLOH    O2 9294   3.996   8.386   2.235 -0.1749 -0.6792  0.4475
   80GLOH   H05 9295   4.030   8.440   2.309  2.5034 -2.2564  0.4521
   80GLOH    C3 9296   3.761   8.444   2.302  0.7594  0.4168  0.1420
   80GLOH   H06 9297   3.685   8.413   2.373  1.6374  0.5237  1.1484
   80GLOH   H07 9298   3.705   8.459   2.210 -1.2365  3.2517  1.7671
   80GLOH    O3 9299   3.817   8.564   2.353  0.0058 -0.5565  0.5338
   80GLOH   H01 9300   3.860   8.540   2.437 -3.0273 -1.2081  1.9518
   81GLOH   H03 9301   3.666   3.991   2.483 -0.1949 -0.5567 -0.2504
   81GLOH    O1 9302   3.633   3.955   2.567  0.4989  0.3672  0.4231
   81GLOH    C1 9303   3.547   4.057   2.615  0.3203  0.5248 -0.4014
   81GLOH   H02 9304   3.517   4.025   2.714  0.9239  0.6989 -0.1596
   81GLOH   H08 9305   3.456   4.079   2.559 -1.4145 -0.9371  1.7671
   81GLOH    C2 9306   3.606   4.203   2.642  0.4667 -0.5492 -0.0087
   81GLOH   H04 9307   3.526   4.260   2.691  1.7976  0.6676  0.7874
   81GLOH    O2 9308   3.701   4.190   2.750  0.3158 -0.1683 -0.1846
   81GLOH   H05 9309   3.790   4.222   2.726 -0.3886  0.9128 -1.3981
   81GLOH    C3 9310   3.660   4.278   2.521 -0.2172 -0.6082  0.1246
   81GLOH   H06 9311   3.736   4.211   2.481  2.1337  1.0506  1.7089
   81GLOH   H07 9312   3.700   4.374   2.553  0.7953 -1.3724  1.1612
   81GLOH    O3 9313   3.550   4.293   2.433  0.3113 -0.5834  0.9639
   81GLOH   H01 9314   3.480   4.349   2.472  1.3970  1.6086 -0.1373
   82GLOH   H03 9315   3.651   9.990   2.362 -0.8575 -0.7648 -2.0194
   82GLOH    O1 9316   3.737   9.946   2.349 -0.0625  0.1161  0.0165
   82GLOH    C1 9317   3.744   9.817   2.418 -0.1784 -0.1135 -0.0017
   82GLOH   H02 9318   3.829   9.757   2.386  0.8053  1.3338 -0.1212
   82GLOH   H08 9319   3.656   9.760   2.387 -0.2669  0.0212  0.0021
   82GLOH    C2 9320   3.763   9.833   2.574 -0.7873  0.9153  0.5158
   82GLOH   H04 9321   3.833   9.917   2.587 -0.5350  0.8684 -0.4917
   82GLOH    O2 9322   3.644   9.860   2.645  0.2990  0.0175 -0.3468
   82GLOH   H05 9323   3.648   9.867   2.742  1.5692  4.1105 -0.5839
   82GLOH    C3 9324   3.832   9.709   2.636  0.5051 -0.0297  0.3163
   82GLOH   H06 9325   3.858   9.717   2.742  0.3138 -1.7724  0.5199
   82GLOH   H07 9326   3.927   9.705   2.583 -0.4385  0.1791 -1.4278
   82GLOH    O3 9327   3.763   9.585   2.608 -0.0264 -0.2970 -0.0710
   82GLOH   H01 9328   3.676   9.611   2.573  0.5932 -0.2125 -1.5804
   83GLOH   H03 9329   4.081   0.707   0.625 -1.0008  1.4742  0.2152
   83GLOH    O1 9330   4.007   0.646   0.606 -0.2179  0.6235 -0.1421
   83GLOH    C1 9331   3.938   0.705   0.499 -0.5557 -0.4902  0.0915
   83GLOH   H02 9332   3.952   0.646   0.408  1.0692 -0.0293  0.0320
   83GLOH   H08 9333   3.988   0.798   0.473 -0.8615  0.3479  2.4102
   83GLOH    C2 9334   3.792   0.733   0.533  1.2089 -0.1514  0.1911
   83GLOH   H04 9335   3.762   0.794   0.447 -0.2569  0.4191  1.0773
   83GLOH    O2 9336   3.719   0.610   0.543 -0.2414 -0.4414  0.0290
   83GLOH   H05 9337   3.770   0.541   0.496  0.4203 -1.7163  2.5167
   83GLOH    C3 9338   3.786   0.817   0.666  0.1047  0.1045  0.8931
   83GLOH   H06 9339   3.845   0.754   0.733  0.6732 -1.8011 -1.3658
   83GLOH   H07 9340   3.680   0.822   0.690  0.1077  0.6810  0.7971
   83GLOH    O3 9341   3.832   0.946   0.653 -0.1690  0.4121  0.7192
   83GLOH   H01 9342   3.860   0.976   0.741  0.2140  0.2907  0.6371
   84GLOH   H03 9343   3.605   2.225   2.813  0.0987 -0.4684  0.4168
   84GLOH    O1 9344   3.701   2.234   2.801 -0.0031  0.1997  0.0947
   84GLOH    C1 9345   3.745   2.300   2.922 -0.0526  0.2644 -0.1336
   84GLOH   H02 9346   3.814   2.233   2.973 -1.1048 -2.1264 -1.7603
   84GLOH   H08 9347   3.667   2.315   2.997  0.4021 -0.7072  0.5448
   84GLOH    C2 9348   3.814   2.433   2.882 -0.8688  0.1044  0.0420
   84GLOH   H04 9349   3.750   2.490   2.813  0.4177  2.7209  0.9520
   84GLOH    O2 9350   3.838   2.513   3.001  0.5892 -0.1208 -0.1453
   84GLOH   H05 9351   3.924   2.556   2.983  0.6764  0.4154  1.4816
   84GLOH    C3 9352   3.951   2.406   2.809 -0.4212  0.1018  0.0074
   84GLOH   H06 9353   3.928   2.337   2.727  0.1297 -2.0097  1.5750
   84GLOH   H07 9354   4.018   2.341   2.866 -2.4616 -3.0002 -1.0042
   84GLOH    O3 9355   4.021   2.524   2.752  0.4139 -0.2649  0.7944
   84GLOH   H01 9356   4.085   2.557   2.818 -1.1147  0.9346  1.7248
   85GLOH   H03 9357   4.564   1.305   0.712  1.2438  0.8595 -1.5582
   85GLOH    O1 9358   4.640   1.302   0.773 -0.1173 -0.2340  0.1243
   85GLOH    C1 9359   4.750   1.348   0.688  0.0267 -0.3891 -0.0831
   85GLOH   H02 9360   4.769   1.290   0.598 -1.1072  0.3216 -0.7915
   85GLOH   H08 9361   4.839   1.374   0.747  0.3323  2.6388 -1.7674
   85GLOH    C2 9362   4.707   1.484   0.622 -0.6648  0.3348  0.2370
   85GLOH   H04 9363   4.658   1.551   0.695  0.6079  1.7399 -0.1709
   85GLOH    O2 9364   4.815   1.558   0.559  0.2872  0.4772  0.1818
   85GLOH   H05 9365   4.812   1.646   0.601  1.2687  1.4242 -1.6863
   85GLOH    C3 9366   4.622   1.455   0.498 -0.0275  0.8227 -0.8530
   85GLOH   H06 9367   4.662   1.375   0.436 -1.0011 -0.4795  0.1684
   85GLOH   H07 9368   4.603   1.544   0.438 -0.0998  0.2246 -1.7095
   85GLOH    O3 9369   4.492   1.412   0.545 -0.1170 -1.0024 -0.2342
   85GLOH   H01 9370   4.453   1.361   0.472  0.7827 -0.3414 -1.1854
   86GLOH   H03 9371   3.855   4.327   1.438 -1.4526  0.3836  1.3116
   86GLOH    O1 9372   3.894   4.415   1.425 -0.0821 -0.4335 -0.3030
   86GLOH    C1 9373   3.850   4.503   1.532 -0.1916 -0.1853  0.0439
   86GLOH   H02 9374   3.742   4.499   1.546 -0.2798 -1.1774 -0.8192
   86GLOH   H08 9375   3.876   4.607   1.511  0.9934 -0.0718  2.0559
   86GLOH    C2 9376   3.916   4.459   1.662  0.1164  0.0025  0.0581
   86GLOH   H04 9377   3.908   4.350   1.669  0.4206  0.0644  1.3546
   86GLOH    O2 9378   4.057   4.478   1.654  0.4686  0.1487  0.6495
   86GLOH   H05 9379   4.095   4.440   1.573 -0.4746  0.2826  0.1312
   86GLOH    C3 9380   3.850   4.542   1.779  0.2265  0.4226 -0.0834
   86GLOH   H06 9381   3.874   4.645   1.750  2.8992  0.1219  0.8730
   86GLOH   H07 9382   3.902   4.536   1.875  1.4130  3.2718 -0.4924
   86GLOH    O3 9383   3.709   4.525   1.792  0.0569  0.5317  0.3960
   86GLOH   H01 9384   3.689   4.439   1.834  0.7601 -0.0388 -0.4188
   87GLOH   H03 9385   4.918   3.946   2.428  1.2942 -0.0040  0.2208
   87GLOH    O1 9386   4.909   3.982   2.518 -0.7639 -0.2311  0.1135
   87GLOH    C1 9387   4.916   4.125   2.506  0.5618  0.0654  0.1602
   87GLOH   H02 9388   4.952   4.146   2.405  0.9777 -1.6927 -0.0810
   87GLOH   H08 9389   4.996   4.164   2.569  0.4401  0.3032  0.1656
   87GLOH    C2 9390   4.779   4.201   2.537 -0.6338  0.1262 -0.6209
   87GLOH   H04 9391   4.794   4.309   2.520 -2.4922  0.3582 -0.8491
   87GLOH    O2 9392   4.666   4.140   2.458 -0.2333  0.5553 -0.4398
   87GLOH   H05 9393   4.584   4.187   2.480 -1.9682 -2.7298  0.4596
   87GLOH    C3 9394   4.735   4.192   2.681 -0.6920  0.2696 -0.0836
   87GLOH   H06 9395   4.819   4.223   2.744  0.3394 -1.3166 -0.6549
   87GLOH   H07 9396   4.710   4.090   2.708 -1.2951  1.0447  2.4037
   87GLOH    O3 9397   4.629   4.281   2.703 -0.3442  0.2094  0.2000
   87GLOH   H01 9398   4.557   4.224   2.736  1.1004 -0.8490  1.6332
   88GLOH   H03 9399   5.334   3.126   1.065  0.9592 -1.2547 -0.1468
   88GLOH    O1 9400   5.250   3.090   1.100  0.3562  0.6377  0.3989
   88GLOH    C1 9401   5.221   3.147   1.231  0.0260 -0.3290  0.3308
   88GLOH   H02 9402   5.224   3.255   1.245  0.1558  0.0989 -2.7035
   88GLOH   H08 9403   5.293   3.102   1.300  1.1138 -0.3351 -0.7986
   88GLOH    C2 9404   5.081   3.111   1.271  0.2688  0.9246 -0.5192
   88GLOH   H04 9405   5.016   3.156   1.194 -1.7082 -1.3269 -0.2405
   88GLOH    O2 9406   5.059   2.968   1.265 -0.3221  1.1284 -0.0906
   88GLOH   H05 9407   5.099   2.928   1.186  0.3770 -1.2704  1.4359
   88GLOH    C3 9408   5.047   3.170   1.414 -0.3446  1.1310 -0.2695
   88GLOH   H06 9409   5.089   3.099   1.485 -0.8822 -0.7288 -1.7939
   88GLOH   H07 9410   4.940   3.155   1.427  0.3441 -2.4720  2.0386
   88GLOH    O3 9411   5.077   3.308   1.438 -0.3462  0.1646  0.2046
   88GLOH   H01 9412   4.990   3.351   1.449 -0.6623 -0.5836  0.6484
   89GLOH   H03 9413   2.841   6.429   1.142 -0.9475  1.6480  1.0315
   89GLOH    O1 9414   2.787   6.464   1.069 -0.6816 -0.0768 -0.0209
   89GLOH    C1 9415   2.782   6.609   1.079  0.4064  0.0625 -0.3291
   89GLOH   H02 9416   2.803   6.641   0.977 -1.6133  1.1575 -0.4198
   89GLOH   H08 9417   2.857   6.643   1.151 -1.7633  2.3047  0.9514
   89GLOH    C2 9418   2.654   6.666   1.128 -0.1364 -0.5378 -0.2390
   89GLOH   H04 9419   2.664   6.656   1.238  0.8154  2.7137  0.0077
   89GLOH    O2 9420   2.640   6.807   1.103 -0.0568 -0.1676 -0.0459
   89GLOH   H05 9421   2.715   6.829   1.044 -0.0977 -0.7435 -0.3114
   89GLOH    C3 9422   2.532   6.592   1.088  0.3924 -0.3521 -0.0686
   89GLOH   H06 9423   2.452   6.657   1.122 -0.7721 -2.3199  1.0611
   89GLOH   H07 9424   2.516   6.498   1.141  0.8049  0.4455  1.4756
   89GLOH    O3 9425   2.515   6.583   0.942  0.4657  0.3215  0.2528
   89GLOH   H01 9426   2.558   6.660   0.899  1.0368  1.3512  2.6256
   90GLOH   H03 9427   2.374   7.384   1.648  0.6695  3.9209  1.0655
   90GLOH    O1 9428   2.455   7.393   1.595  0.0850 -0.2401 -0.6605
   90GLOH    C1 9429   2.462   7.302   1.481  1.1143  0.4114 -0.7860
   90GLOH   H02 9430   2.460   7.198   1.515 -1.0949  1.5399  2.8660
   90GLOH   H08 9431   2.562   7.306   1.440  2.1503 -0.5168  1.5490
   90GLOH    C2 9432   2.351   7.320   1.376 -0.4184  0.6150 -1.0243
   90GLOH   H04 9433   2.375   7.246   1.298 -0.7359  0.0251 -0.5637
   90GLOH    O2 9434   2.217   7.299   1.431  0.0724 -0.1851 -0.6125
   90GLOH   H05 9435   2.215   7.224   1.492 -2.1009  0.2846 -0.0711
   90GLOH    C3 9436   2.384   7.452   1.305  0.6455 -0.6817  0.1722
   90GLOH   H06 9437   2.392   7.538   1.372 -0.5414  0.2400 -0.8377
   90GLOH   H07 9438   2.310   7.477   1.228  1.5393 -2.5930 -1.3406
   90GLOH    O3 9439   2.506   7.424   1.240 -0.0628 -0.0240  0.4987
   90GLOH   H01 9440   2.531   7.494   1.177  0.3658 -0.5667  0.0634
   91GLOH   H03 9441   2.997   8.738   0.076  0.1902  0.0928 -0.0903
   91GLOH    O1 9442   2.997   8.813   0.015  0.1472  0.1686  0.0020
   91GLOH    C1 9443   3.127   8.830  -0.046 -0.5638 -0.4364 -0.4562
   91GLOH   H02 9444   3.117   8.815  -0.154 -0.2514  0.7427 -0.6538
   91GLOH   H08 9445   3.186   8.743  -0.016 -0.0615 -1.1768 -3.3905
   91GLOH    C2 9446   3.193   8.965  -0.009  0.1873  0.1024 -0.4574
   91GLOH   H04 9447   3.132   9.051  -0.041 -2.6735 -2.4931 -2.2213
   91GLOH    O2 9448   3.220   8.972   0.134  0.1902  0.0343 -0.2379
   91GLOH   H05 9449   3.280   8.903   0.167 -1.9720 -1.1045  1.4441
   91GLOH    C3 9450   3.317   8.973  -0.092  0.0474  0.2780 -0.1689
   91GLOH   H06 9451   3.368   8.877  -0.082 -0.1942  0.1332 -0.3281
   91GLOH   H07 9452   3.380   9.047  -0.043 -0.4718  0.5900  0.0278
   91GLOH    O3 9453   3.305   8.990  -0.239  1.2658 -0.1052 -0.4864
   91GLOH   H01 9454   3.391   8.962  -0.277  2.0598  2.6008 -0.8367
   92GLOH   H03 9455   2.939   7.133   1.424  1.5885 -0.4286 -0.4740
   92GLOH    O1 9456   2.968   7.198   1.491  0.0070 -0.0890 -0.0863
   92GLOH    C1 9457   3.079   7.277   1.455  0.4749  0.9157 -0.3591
   92GLOH   H02 9458   3.095   7.257   1.349 -0.4963  0.2898 -0.3916
   92GLOH   H08 9459   3.169   7.237   1.501 -0.0336  1.1782  0.8960
   92GLOH    C2 9460   3.063   7.431   1.486 -1.0120  0.1653  0.2665
   92GLOH   H04 9461   3.063   7.442   1.595 -0.0401 -0.8286  0.3745
   92GLOH    O2 9462   3.187   7.493   1.447 -0.4565 -0.0806  0.0945
   92GLOH   H05 9463   3.200   7.576   1.495  3.7081  0.7053 -2.2041
   92GLOH    C3 9464   2.932   7.489   1.425  0.6357 -0.3038 -0.5296
   92GLOH   H06 9465   2.853   7.415   1.430  0.4850 -0.0697  0.7650
   92GLOH   H07 9466   2.936   7.516   1.320 -1.4630 -0.3515 -0.6451
   92GLOH    O3 9467   2.891   7.605   1.495 -0.1387  0.3342  0.1410
   92GLOH   H01 9468   2.801   7.599   1.531  0.1078  1.4125  0.9771
   93GLOH   H03 9469   3.185   5.815   1.217 -4.1401 -1.3824 -1.0008
   93GLOH    O1 9470   3.179   5.888   1.152 -0.0118  0.1145  0.1565
   93GLOH    C1 9471   3.097   5.854   1.044 -0.1266  0.3415  0.2023
   93GLOH   H02 9472   3.006   5.805   1.077 -0.8683  0.2694 -1.9222
   93GLOH   H08 9473   3.147   5.791   0.970 -3.4478 -0.6782 -1.2457
   93GLOH    C2 9474   3.058   5.984   0.974 -0.4079  0.0157 -0.1355
   93GLOH   H04 9475   3.152   6.025   0.935 -0.6087 -0.0866 -0.7354
   93GLOH    O2 9476   2.979   5.964   0.857  0.5966  0.4188  0.3198
   93GLOH   H05 9477   3.027   5.939   0.776 -1.2604  0.6856 -0.8988
   93GLOH    C3 9478   2.999   6.092   1.069 -0.1155 -0.2105  0.0292
   93GLOH   H06 9479   2.895   6.065   1.085 -0.3133  0.7285  0.3084
   93GLOH   H07 9480   2.996   6.184   1.011  1.5110  1.0117  1.8324
   93GLOH    O3 9481   3.066   6.103   1.193  0.1629 -0.1724 -0.6824
   93GLOH   H01 9482   3.136   6.034   1.189  1.4028  1.0008  0.2672
   94GLOH   H03 9483   2.833   7.279   1.082 -0.8158  0.2992 -0.6551
   94GLOH    O1 9484   2.840   7.217   1.007 -0.4929 -0.5222  0.0390
   94GLOH    C1 9485   2.798   7.287   0.884  0.2129  0.7329 -0.9104
   94GLOH   H02 9486   2.850   7.250   0.796  1.0295  2.7852 -1.3239
   94GLOH   H08 9487   2.827   7.391   0.897  0.7555  0.5806 -0.8453
   94GLOH    C2 9488   2.647   7.282   0.863  0.2235 -0.1787 -0.5040
   94GLOH   H04 9489   2.596   7.334   0.945  0.8431 -0.1306 -0.1414
   94GLOH    O2 9490   2.611   7.335   0.732  0.3783 -0.2691 -0.0813
   94GLOH   H05 9491   2.535   7.393   0.748  0.0002 -0.7819  0.0217
   94GLOH    C3 9492   2.605   7.134   0.879  0.1723  0.2147 -0.8712
   94GLOH   H06 9493   2.497   7.124   0.878  0.0510  1.3878 -0.7338
   94GLOH   H07 9494   2.651   7.105   0.974  1.1584  3.8184 -0.1524
   94GLOH    O3 9495   2.646   7.054   0.764  0.5724 -0.1652  0.0529
   94GLOH   H01 9496   2.661   7.119   0.694  0.1350  0.7071  0.7549
   95GLOH   H03 9497   4.360   4.247   2.148 -0.9910 -1.6274  1.4991
   95GLOH    O1 9498   4.276   4.252   2.099  0.0946 -0.6688 -0.3012
   95GLOH    C1 9499   4.219   4.385   2.124 -0.5019 -0.0168 -0.2399
   95GLOH   H02 9500   4.265   4.461   2.061  0.5638 -1.7821 -1.6077
   95GLOH   H08 9501   4.252   4.424   2.221 -0.6388 -1.6622  0.4948
   95GLOH    C2 9502   4.066   4.398   2.112  0.3116  0.1550  0.1089
   95GLOH   H04 9503   4.016   4.350   2.198  0.7354 -2.3980 -0.9982
   95GLOH    O2 9504   4.025   4.538   2.092 -0.9650 -0.1157 -1.0643
   95GLOH   H05 9505   4.066   4.564   2.007  1.4595  0.5528  0.2656
   95GLOH    C3 9506   4.020   4.317   1.989 -0.1527  0.6146 -0.6049
   95GLOH   H06 9507   4.060   4.363   1.898  0.5879 -2.7418 -2.0364
   95GLOH   H07 9508   3.912   4.331   1.981 -0.4527 -1.5190 -0.6509
   95GLOH    O3 9509   4.050   4.174   1.991  0.2845  0.0399 -0.2549
   95GLOH   H01 9510   4.142   4.154   2.017  0.5196  0.5903 -0.6510
   96GLOH   H03 9511   2.818   6.414   0.121 -1.0250 -0.8075 -1.4207
   96GLOH    O1 9512   2.739   6.377   0.164 -0.4658 -0.2366  0.1287
   96GLOH    C1 9513   2.627   6.380   0.075  0.2024 -0.4009  0.1973
   96GLOH   H02 9514   2.651   6.334  -0.021 -1.2619 -1.8892  0.5081
   96GLOH   H08 9515   2.604   6.484   0.052 -0.9955 -1.0594 -1.6636
   96GLOH    C2 9516   2.497   6.322   0.126 -0.1887  0.1971  0.9605
   96GLOH   H04 9517   2.515   6.219   0.159  0.6671 -0.3385 -1.1147
   96GLOH    O2 9518   2.450   6.397   0.243  0.1585 -0.5648  0.2720
   96GLOH   H05 9519   2.447   6.337   0.319  0.0863  0.9832  1.5106
   96GLOH    C3 9520   2.396   6.320   0.016  0.3965 -0.2854  0.4355
   96GLOH   H06 9521   2.390   6.420  -0.027 -0.5109 -0.1752  0.8143
   96GLOH   H07 9522   2.301   6.299   0.065  0.8740 -1.7496  0.7624
   96GLOH    O3 9523   2.428   6.219  -0.069  0.3137  0.3198 -0.3037
   96GLOH   H01 9524   2.415   6.246  -0.162 -0.1593 -2.2583 -1.0399
   97GLOH   H03 9525   3.607   1.362   2.639  1.9829 -0.0336  5.4985
   97GLOH    O1 9526   3.647   1.275   2.619 -0.0136  0.1668 -0.3353
   97GLOH    C1 9527   3.773   1.291   2.550  0.4373  0.2843  0.6478
   97GLOH   H02 9528   3.758   1.366   2.473 -1.0889  0.7815  1.3992
   97GLOH   H08 9529   3.790   1.199   2.494  3.5447  0.5711  1.0436
   97GLOH    C2 9530   3.892   1.332   2.635  0.3242 -0.2331 -0.5469
   97GLOH   H04 9531   3.868   1.427   2.686 -1.2182 -0.5559 -0.6378
   97GLOH    O2 9532   3.912   1.210   2.711 -0.3586 -0.4282 -0.4853
   97GLOH   H05 9533   3.855   1.221   2.789 -0.4912  0.1263 -0.6555
   97GLOH    C3 9534   4.011   1.373   2.541 -0.2320 -0.7762 -0.1642
   97GLOH   H06 9535   4.050   1.290   2.482 -3.7490 -1.0054 -2.3159
   97GLOH   H07 9536   4.095   1.407   2.602 -2.1787  2.6496  0.7133
   97GLOH    O3 9537   3.991   1.482   2.447 -0.4562  0.8113 -0.0799
   97GLOH   H01 9538   4.043   1.461   2.367 -2.1226 -0.8078 -0.7744
   98GLOH   H03 9539   3.767   1.650   0.358  0.2546 -1.3659  2.1333
   98GLOH    O1 9540   3.687   1.697   0.388  0.4748  0.5403 -0.0623
   98GLOH    C1 9541   3.575   1.619   0.330  0.3173 -0.5202  0.9472
   98GLOH   H02 9542   3.595   1.593   0.226 -0.2134 -0.4967  0.8378
   98GLOH   H08 9543   3.481   1.674   0.327  0.4899 -0.1354  2.2759
   98GLOH    C2 9544   3.549   1.477   0.398 -0.6457 -0.5338 -0.2439
   98GLOH   H04 9545   3.525   1.511   0.500  2.8934 -0.0777  0.5109
   98GLOH    O2 9546   3.436   1.417   0.339  0.2185  0.2400  0.0167
   98GLOH   H05 9547   3.475   1.370   0.263  2.3971  1.5061  0.2970
   98GLOH    C3 9548   3.674   1.384   0.413 -0.5313 -0.3923  0.4432
   98GLOH   H06 9549   3.713   1.358   0.314 -0.9346 -1.5382  0.5800
   98GLOH   H07 9550   3.641   1.296   0.468  0.6701 -1.8570 -1.1480
   98GLOH    O3 9551   3.774   1.441   0.497 -0.5553 -0.1972  0.0167
   98GLOH   H01 9552   3.752   1.451   0.591 -1.4212 -2.3229  0.0799
   99GLOH   H03 9553   2.725   0.570   2.080 -4.7314 -2.4859  2.2577
   99GLOH    O1 9554   2.767   0.568   2.168 -0.4218 -0.2202  0.3949
   99GLOH    C1 9555   2.877   0.476   2.165  0.6787 -0.5586 -0.5363
   99GLOH   H02 9556   2.942   0.497   2.080  2.7223 -3.1460  0.3494
   99GLOH   H08 9557   2.841   0.375   2.144 -0.8833  0.4866 -3.2858
   99GLOH    C2 9558   2.949   0.489   2.301  0.6850 -0.0039  0.6578
   99GLOH   H04 9559   2.870   0.473   2.376 -2.1072  1.5111 -1.8270
   99GLOH    O2 9560   3.036   0.377   2.318  0.3949  0.1487 -0.1727
   99GLOH   H05 9561   3.003   0.311   2.381  1.6530  1.9482  2.4330
   99GLOH    C3 9562   3.019   0.628   2.313 -0.0646  0.5220  0.3372
   99GLOH   H06 9563   3.095   0.613   2.235 -1.8268 -1.8224 -0.9940
   99GLOH   H07 9564   3.066   0.643   2.410 -0.0590 -0.6969  0.5342
   99GLOH    O3 9565   2.930   0.742   2.299  0.8942  0.3199  0.3442
   99GLOH   H01 9566   2.847   0.732   2.249  2.4695 -1.0330 -2.0911
  100GLOH   H03 9567   2.740   7.029   2.679  2.3267  0.4361 -0.1885
  100GLOH    O1 9568   2.742   7.098   2.610 -0.2151  0.0769 -0.6467
  100GLOH    C1 9569   2.834   7.205   2.656  0.0783 -0.3576 -0.1179
  100GLOH   H02 9570   2.930   7.176   2.698  0.2650  1.1796  0.5385
  100GLOH   H08 9571   2.783   7.258   2.736 -3.1786 -0.6422 -1.9009
  100GLOH    C2 9572   2.861   7.313   2.548  0.7990  0.0553 -0.1402
  100GLOH   H04 9573   2.772   7.349   2.496  0.6190 -0.4504 -0.1910
  100GLOH    O2 9574   2.924   7.428   2.609  0.5766  0.7043  0.5503
  100GLOH   H05 9575   2.969   7.460   2.529 -0.9240  0.6678 -0.3390
  100GLOH    C3 9576   2.961   7.253   2.439 -0.3900  0.3284  0.0827
  100GLOH   H06 9577   3.054   7.222   2.488 -0.7149 -1.8917 -0.6308
  100GLOH   H07 9578   2.988   7.333   2.371  2.3159 -0.8806 -0.3467
  100GLOH    O3 9579   2.904   7.151   2.350 -0.8410 -0.6903 -0.2765
  100GLOH   H01 9580   2.910   7.074   2.411 -0.0819  0.4092  1.0858
  101GLOH   H03 9581   2.752   5.806   1.575 -2.3392  2.2512 -1.7412
  101GLOH    O1 9582   2.724   5.834   1.665  0.0051 -0.1028 -0.2379
  101GLOH    C1 9583   2.666   5.960   1.630 -0.9132  0.0363 -0.4307
  101GLOH   H02 9584   2.575   5.970   1.688 -0.8829 -0.2701 -0.3306
  101GLOH   H08 9585   2.637   5.963   1.525  2.9652 -0.2210 -1.6138
  101GLOH    C2 9586   2.752   6.088   1.667 -0.3846  0.1448 -0.0019
  101GLOH   H04 9587   2.855   6.086   1.626 -0.6002 -0.5411 -0.5200
  101GLOH    O2 9588   2.686   6.208   1.619 -0.3683  0.6878  0.0911
  101GLOH   H05 9589   2.738   6.282   1.656 -0.7927  0.6536  0.7660
  101GLOH    C3 9590   2.752   6.101   1.823  0.2944 -0.0208  0.7109
  101GLOH   H06 9591   2.653   6.127   1.858  1.1414  0.4169  2.8448
  101GLOH   H07 9592   2.814   6.188   1.846 -2.0992  1.7663  0.5753
  101GLOH    O3 9593   2.802   5.989   1.895 -0.0882 -0.6560  0.6510
  101GLOH   H01 9594   2.760   5.907   1.865 -0.8958 -0.4702  1.2538
  102GLOH   H03 9595   3.135   5.902   2.019 -0.5404 -2.0509 -0.1122
  102GLOH    O1 9596   3.191   5.891   2.098 -0.6658  0.2078  0.3378
  102GLOH    C1 9597   3.209   6.011   2.164 -0.5945  0.9108  0.3647
  102GLOH   H02 9598   3.286   6.067   2.112  1.0815 -1.9959 -0.4150
  102GLOH   H08 9599   3.247   6.001   2.265  3.6682  1.6510 -1.0627
  102GLOH    C2 9600   3.084   6.106   2.151  0.3075  0.6570  0.4080
  102GLOH   H04 9601   2.993   6.055   2.186  0.2220 -0.3855 -1.2774
  102GLOH    O2 9602   3.098   6.230   2.223 -0.3631 -0.1361  0.2757
  102GLOH   H05 9603   3.130   6.292   2.155 -0.0472 -2.4700 -1.7644
  102GLOH    C3 9604   3.067   6.133   2.005  0.2532  0.6346 -0.5375
  102GLOH   H06 9605   3.163   6.170   1.968  1.1555 -0.1753  0.9809
  102GLOH   H07 9606   2.990   6.210   1.992 -0.3145  0.1513 -0.0602
  102GLOH    O3 9607   3.045   6.013   1.931 -0.2739  0.3247  0.4380
  102GLOH   H01 9608   2.953   5.987   1.911  0.1002  0.1430 -1.1102
  103GLOH   H03 9609   3.243   8.956   2.144 -0.0051  0.4711  1.7480
  103GLOH    O1 9610   3.338   8.971   2.129 -0.0485 -0.2834  0.6493
  103GLOH    C1 9611   3.397   8.838   2.140  0.0586 -0.1731 -0.3559
  103GLOH   H02 9612   3.498   8.833   2.099  0.1805  0.3458 -0.1188
  103GLOH   H08 9613   3.336   8.775   2.074 -0.7381  1.4745 -1.2320
  103GLOH    C2 9614   3.391   8.769   2.279  0.5661 -0.4275 -0.8086
  103GLOH   H04 9615   3.410   8.846   2.355 -2.4610  0.8757 -1.3017
  103GLOH    O2 9616   3.269   8.711   2.321  0.1003 -0.6534 -0.0088
  103GLOH   H05 9617   3.199   8.758   2.274  0.4905 -3.2378 -3.3830
  103GLOH    C3 9618   3.516   8.676   2.299  0.1088 -1.1190 -0.1041
  103GLOH   H06 9619   3.507   8.602   2.219 -2.4366 -0.8738 -0.0960
  103GLOH   H07 9620   3.514   8.620   2.392  2.5820 -1.5117 -0.2753
  103GLOH    O3 9621   3.638   8.742   2.307  0.2748  0.1936  0.0951
  103GLOH   H01 9622   3.710   8.678   2.317  0.3917 -0.0653 -2.0240
  104GLOH   H03 9623   4.306   3.068   2.275 -1.4175  0.0474  0.8151
  104GLOH    O1 9624   4.250   3.130   2.224 -0.1431  0.2193 -0.3986
  104GLOH    C1 9625   4.232   3.256   2.296 -0.2911  0.9431  0.0236
  104GLOH   H02 9626   4.133   3.268   2.340 -0.2152 -1.1585  0.8096
  104GLOH   H08 9627   4.238   3.332   2.218 -1.0250 -0.1631 -1.1292
  104GLOH    C2 9628   4.339   3.290   2.402  0.5650 -0.0632 -0.5397
  104GLOH   H04 9629   4.319   3.389   2.447  2.4297  0.1543 -0.1493
  104GLOH    O2 9630   4.338   3.195   2.514  0.2007  0.0148 -0.0295
  104GLOH   H05 9631   4.429   3.177   2.542 -0.1115 -2.0845 -0.3124
  104GLOH    C3 9632   4.473   3.293   2.333 -0.4074 -0.1403  0.5905
  104GLOH   H06 9633   4.487   3.195   2.288  0.6377  0.0808  0.4190
  104GLOH   H07 9634   4.551   3.303   2.409  0.4691  3.6846 -0.7104
  104GLOH    O3 9635   4.510   3.395   2.236 -0.2501 -0.3825 -0.4361
  104GLOH   H01 9636   4.553   3.353   2.160  4.6462  1.9670  0.8490
  105GLOH   H03 9637   3.658   3.775   1.633  0.4146  1.1453 -0.4514
  105GLOH    O1 9638   3.569   3.792   1.598 -0.0730  0.3625  0.3835
  105GLOH    C1 9639   3.576   3.897   1.493  0.2606  0.2911 -0.4472
  105GLOH   H02 9640   3.495   3.880   1.421 -0.6869  0.6151  0.5301
  105GLOH   H08 9641   3.669   3.898   1.435 -0.4004  0.2806 -1.5262
  105GLOH    C2 9642   3.546   4.031   1.557 -0.2197 -0.2972  0.7337
  105GLOH   H04 9643   3.626   4.060   1.627 -0.8601  2.7903  0.2644
  105GLOH    O2 9644   3.533   4.144   1.460  0.2684 -0.4347 -0.2176
  105GLOH   H05 9645   3.492   4.111   1.379  0.7842 -0.5859 -0.4163
  105GLOH    C3 9646   3.413   4.022   1.633  0.7242 -0.0940  0.0581
  105GLOH   H06 9647   3.430   3.943   1.706  1.5585 -0.4778 -0.5415
  105GLOH   H07 9648   3.339   3.987   1.561 -0.8993 -0.1818  1.7438
  105GLOH    O3 9649   3.371   4.142   1.694  0.0510 -1.0052 -0.4552
  105GLOH   H01 9650   3.407   4.215   1.640  0.3795 -0.5632  0.3526
  106GLOH   H03 9651   4.129   9.825   1.989 -1.8368  0.2722  0.1884
  106GLOH    O1 9652   4.078   9.893   1.941 -0.5356  0.5330 -0.8277
  106GLOH    C1 9653   4.119  10.017   1.998 -0.4670  0.2613  0.2806
  106GLOH   H02 9654   4.226  10.033   1.989 -0.4077  0.2435  0.9167
  106GLOH   H08 9655   4.098  10.013   2.105  0.2063  1.5663  0.4751
  106GLOH    C2 9656   4.047  10.144   1.947 -1.0751  1.0830 -0.6310
  106GLOH   H04 9657   3.943  10.142   1.983 -0.1478  0.6665  2.1603
  106GLOH    O2 9658   4.112  10.250   2.014  0.7212 -0.2732  0.6138
  106GLOH   H05 9659   4.066  10.332   1.990 -0.5950 -1.4375 -0.9755
  106GLOH    C3 9660   4.046  10.143   1.794 -0.2190 -0.3900  0.4035
  106GLOH   H06 9661   3.987  10.054   1.771 -1.5585  0.6822 -0.4202
  106GLOH   H07 9662   4.149  10.130   1.761  0.1778  1.8249  0.7276
  106GLOH    O3 9663   3.986  10.257   1.740  0.6226  0.6907 -0.5067
  106GLOH   H01 9664   4.042  10.328   1.777 -0.3539  1.2893 -0.1631
  107GLOH   H03 9665   2.700   5.474   2.629  3.3924 -0.6506 -0.6372
  107GLOH    O1 9666   2.715   5.545   2.694  0.0472 -0.0715 -0.4005
  107GLOH    C1 9667   2.800   5.514   2.803 -0.3737 -0.1368  0.2148
  107GLOH   H02 9668   2.859   5.604   2.823 -3.8593  2.1570  0.5766
  107GLOH   H08 9669   2.873   5.443   2.766 -0.1328  1.3134 -2.2637
  107GLOH    C2 9670   2.737   5.468   2.936  0.6217  0.0463  0.2707
  107GLOH   H04 9671   2.814   5.476   3.014 -0.1495 -1.5332  1.2167
  107GLOH    O2 9672   2.626   5.555   2.969  0.0861  0.5871 -0.7106
  107GLOH   H05 9673   2.667   5.643   2.977  2.2581 -0.6422  2.7864
  107GLOH    C3 9674   2.684   5.318   2.930 -0.3350  0.1036  0.3228
  107GLOH   H06 9675   2.588   5.311   2.879 -1.3464  0.8322  2.1162
  107GLOH   H07 9676   2.659   5.294   3.033  0.1096 -0.3485  0.3314
  107GLOH    O3 9677   2.772   5.224   2.872 -0.0744  0.7166 -0.3571
  107GLOH   H01 9678   2.864   5.253   2.881  0.1634  0.8862 -3.0138
  108GLOH   H03 9679   3.497   5.065   1.920 -2.3615  2.0056  1.5509
  108GLOH    O1 9680   3.480   5.001   1.992  0.0216 -0.0900  0.3316
  108GLOH    C1 9681   3.533   4.871   1.961  0.5871 -0.5156  0.3707
  108GLOH   H02 9682   3.529   4.856   1.853 -2.6076 -0.1810  0.3992
  108GLOH   H08 9683   3.471   4.789   1.998 -0.8040 -0.5492 -1.9233
  108GLOH    C2 9684   3.683   4.860   2.014 -0.0021  0.2966 -0.0604
  108GLOH   H04 9685   3.704   4.752   2.008 -1.0457  0.1346 -1.2200
  108GLOH    O2 9686   3.780   4.934   1.935 -0.3947 -0.1007  0.4284
  108GLOH   H05 9687   3.868   4.922   1.974 -0.3717  1.2579  0.8193
  108GLOH    C3 9688   3.696   4.896   2.162 -0.3822  0.3279  0.0157
  108GLOH   H06 9689   3.619   4.843   2.217  0.4632 -0.7712  0.1491
  108GLOH   H07 9690   3.667   5.001   2.165  1.3038  0.8189 -0.3978
  108GLOH    O3 9691   3.823   4.869   2.212  0.7863  0.5722  0.2006
  108GLOH   H01 9692   3.840   4.924   2.291  0.3941  1.5593 -0.3957
  109GLOH   H03 9693   3.654   3.979   2.276 -0.1028  1.0357 -0.0563
  109GLOH    O1 9694   3.726   3.997   2.339 -0.1890  0.4266  0.2125
  109GLOH    C1 9695   3.839   3.915   2.304  0.7137  1.0343  0.2982
  109GLOH   H02 9696   3.811   3.833   2.238 -0.2518 -2.0176  4.3503
  109GLOH   H08 9697   3.892   3.874   2.390  3.8919  0.9366 -1.6311
  109GLOH    C2 9698   3.941   3.989   2.225  0.2988  0.3949  0.0534
  109GLOH   H04 9699   3.913   4.005   2.120  1.0211 -1.1953 -0.3925
  109GLOH    O2 9700   3.958   4.117   2.275 -0.5646 -0.6407 -0.5507
  109GLOH   H05 9701   3.872   4.160   2.263 -1.9677 -3.1982 -0.1115
  109GLOH    C3 9702   4.071   3.910   2.225  0.3124 -0.1527  0.2229
  109GLOH   H06 9703   4.111   3.886   2.323  2.4269  1.0871 -0.3175
  109GLOH   H07 9704   4.149   3.966   2.173  0.8002 -1.4012 -0.4079
  109GLOH    O3 9705   4.052   3.792   2.142  0.2888  0.3113  0.2556
  109GLOH   H01 9706   4.042   3.828   2.052 -0.5602 -1.6099 -0.4306
  110GLOH   H03 9707   4.007   0.825   2.547 -1.2005 -0.9724 -0.1784
  110GLOH    O1 9708   4.033   0.749   2.492 -0.1863 -0.3178 -0.6224
  110GLOH    C1 9709   3.941   0.637   2.504 -0.3655  0.1757 -0.5702
  110GLOH   H02 9710   3.848   0.667   2.457 -2.1811 -0.0603  2.7554
  110GLOH   H08 9711   3.928   0.625   2.612  2.8542 -0.5078 -0.1957
  110GLOH    C2 9712   4.008   0.514   2.437 -0.3368  0.6880  0.0700
  110GLOH   H04 9713   4.110   0.506   2.479 -0.1688  0.1320 -0.4367
  110GLOH    O2 9714   3.931   0.393   2.447 -0.2298  0.0379  0.4670
  110GLOH   H05 9715   3.900   0.386   2.539 -1.8284 -0.0082 -0.0501
  110GLOH    C3 9716   4.027   0.550   2.291 -0.6349  0.4749  0.5141
  110GLOH   H06 9717   3.933   0.531   2.238 -0.2275  0.4105 -0.1999
  110GLOH   H07 9718   4.095   0.471   2.259 -2.5106 -1.9850  2.4729
  110GLOH    O3 9719   4.070   0.678   2.261 -0.2487  0.2214  0.1028
  110GLOH   H01 9720   4.057   0.739   2.337 -0.4230  1.2980 -0.7737
  111GLOH   H03 9721   3.110   5.529   0.651 -0.4904  1.9181  0.1662
  111GLOH    O1 9722   3.199   5.535   0.611 -0.2855 -0.0348  0.3015
  111GLOH    C1 9723   3.229   5.664   0.558 -0.7575  0.0593 -0.1514
  111GLOH   H02 9724   3.317   5.666   0.494 -2.0130  1.8957 -1.8537
  111GLOH   H08 9725   3.253   5.741   0.630  0.1398 -1.8046  1.5977
  111GLOH    C2 9726   3.113   5.730   0.474  0.1715 -0.2630 -0.2098
  111GLOH   H04 9727   3.175   5.813   0.439  0.5383 -0.0421  0.9255
  111GLOH    O2 9728   3.071   5.634   0.370 -0.0234  0.4606  0.0331
  111GLOH   H05 9729   3.036   5.553   0.411 -1.0587  0.6313 -0.4999
  111GLOH    C3 9730   3.003   5.784   0.570  0.4143 -1.2777  0.1566
  111GLOH   H06 9731   2.961   5.706   0.634 -0.7238 -1.3659 -0.6683
  111GLOH   H07 9732   2.921   5.808   0.502  0.7132 -1.4480 -0.2744
  111GLOH    O3 9733   3.042   5.903   0.634 -1.0498  0.6138 -0.4168
  111GLOH   H01 9734   3.033   5.987   0.586  2.0792  2.0006  1.2528
  112GLOH   H03 9735   3.779   8.902   1.960  1.2287  0.9336  1.7185
  112GLOH    O1 9736   3.750   8.846   2.034  0.4535 -0.3229  0.4952
  112GLOH    C1 9737   3.778   8.707   2.025  0.2186  0.9595  0.3765
  112GLOH   H02 9738   3.682   8.660   2.001  0.3063  0.1658  1.5600
  112GLOH   H08 9739   3.812   8.661   2.117 -1.4235 -1.4284 -0.1587
  112GLOH    C2 9740   3.872   8.657   1.911  0.5919 -0.0209  0.8275
  112GLOH   H04 9741   3.874   8.547   1.911 -1.9469 -0.1111 -1.2590
  112GLOH    O2 9742   3.823   8.714   1.788  0.1752  0.5622  0.6105
  112GLOH   H05 9743   3.872   8.678   1.713  0.1559 -1.8794  1.7445
  112GLOH    C3 9744   4.012   8.710   1.948 -0.4298 -0.4780  0.5027
  112GLOH   H06 9745   4.076   8.664   1.872 -1.4052  2.4106 -2.1616
  112GLOH   H07 9746   4.028   8.654   2.040  0.8601  1.0678  1.2554
  112GLOH    O3 9747   4.046   8.850   1.972 -0.5032  0.6323  0.4156
  112GLOH   H01 9748   3.986   8.906   1.919  2.2776  2.4933 -0.8769
  113GLOH   H03 9749   3.084   7.862   2.193  0.2173 -0.3307  1.7770
  113GLOH    O1 9750   3.054   7.770   2.202 -0.6751 -0.2317 -0.1392
  113GLOH    C1 9751   3.177   7.706   2.236  0.6441 -0.1893 -0.5789
  113GLOH   H02 9752   3.263   7.747   2.184 -1.2881  0.5672 -3.2724
  113GLOH   H08 9753   3.169   7.599   2.218  1.5392 -1.1514  4.0794
  113GLOH    C2 9754   3.235   7.710   2.380  0.2681  0.3649 -0.1591
  113GLOH   H04 9755   3.336   7.667   2.382  0.3460  0.6028  1.8511
  113GLOH    O2 9756   3.252   7.845   2.411 -0.3278 -0.3117  0.1889
  113GLOH   H05 9757   3.306   7.859   2.491  0.9927 -0.5164 -0.6426
  113GLOH    C3 9758   3.134   7.651   2.477 -1.3399  0.1650  0.0663
  113GLOH   H06 9759   3.047   7.717   2.481 -1.8968 -0.5532 -0.2103
  113GLOH   H07 9760   3.181   7.656   2.575  1.1029 -2.6326 -0.9213
  113GLOH    O3 9761   3.095   7.511   2.449  0.5290  0.0834 -0.2609
  113GLOH   H01 9762   3.174   7.458   2.468  1.8340  1.8474 -0.6115
  114GLOH   H03 9763   3.419   2.605   1.155  2.5804  0.7061  0.9111
  114GLOH    O1 9764   3.453   2.514   1.150  0.6053  0.0185 -0.7033
  114GLOH    C1 9765   3.492   2.475   1.283 -0.3066  0.5505 -0.4969
  114GLOH   H02 9766   3.403   2.456   1.343 -0.5559  2.0947 -0.3735
  114GLOH   H08 9767   3.559   2.536   1.343  2.4946 -1.5470 -1.3771
  114GLOH    C2 9768   3.559   2.338   1.272 -0.7564  0.2697 -0.4932
  114GLOH   H04 9769   3.565   2.303   1.377  0.8255 -0.7290 -0.9132
  114GLOH    O2 9770   3.480   2.247   1.195 -0.2907 -0.3466  0.9106
  114GLOH   H05 9771   3.466   2.290   1.109 -1.6003  1.8270  2.1906
  114GLOH    C3 9772   3.699   2.344   1.213 -0.0539 -0.0054 -0.3713
  114GLOH   H06 9773   3.689   2.357   1.105 -0.0639 -1.3723 -0.5416
  114GLOH   H07 9774   3.731   2.240   1.218 -1.2304 -0.4166 -1.1258
  114GLOH    O3 9775   3.792   2.439   1.279  0.6426  0.0922 -0.1783
  114GLOH   H01 9776   3.853   2.390   1.338 -1.8444  0.9728  3.2642
  115GLOH   H03 9777   4.552   3.715   2.063 -1.5123 -0.6261 -1.2001
  115GLOH    O1 9778   4.602   3.731   1.981 -0.1483  0.1398 -0.2501
  115GLOH    C1 9779   4.499   3.732   1.877 -0.3497 -0.1593  0.4940
  115GLOH   H02 9780   4.434   3.820   1.879 -1.4198 -0.9475  0.5987
  115GLOH   H08 9781   4.433   3.646   1.888 -0.0069 -0.1268  3.3325
  115GLOH    C2 9782   4.558   3.716   1.738 -0.7519 -0.1667  0.5356
  115GLOH   H04 9783   4.604   3.617   1.723  0.2193  0.2498  0.6964
  115GLOH    O2 9784   4.454   3.730   1.642 -0.0959  0.0878  0.0197
  115GLOH   H05 9785   4.393   3.656   1.634  1.3086 -1.2177  0.9856
  115GLOH    C3 9786   4.663   3.821   1.712  0.4025 -0.8110  0.5188
  115GLOH   H06 9787   4.613   3.915   1.687 -0.3834 -1.3374  0.1122
  115GLOH   H07 9788   4.720   3.797   1.622  1.2300 -1.4408  1.2103
  115GLOH    O3 9789   4.766   3.848   1.814  0.1673 -0.1208 -0.4383
  115GLOH   H01 9790   4.732   3.800   1.892  1.6675 -0.0938  0.2556
  116GLOH   H03 9791   3.483   0.334   2.160 -1.4396  1.4276  2.1880
  116GLOH    O1 9792   3.426   0.255   2.162  0.0863  0.2325 -0.0117
  116GLOH    C1 9793   3.478   0.137   2.097 -0.0534 -0.4359  0.4843
  116GLOH   H02 9794   3.406   0.055   2.104 -2.8536  1.7491 -1.3366
  116GLOH   H08 9795   3.570   0.103   2.145 -0.6665 -0.8400  1.3980
  116GLOH    C2 9796   3.500   0.165   1.949  0.2115 -0.6889 -0.3417
  116GLOH   H04 9797   3.587   0.233   1.946  0.3778 -0.9230 -1.1213
  116GLOH    O2 9798   3.539   0.049   1.879  0.1963  0.0647 -0.1613
  116GLOH   H05 9799   3.621   0.011   1.914  1.8459  4.2356  0.8454
  116GLOH    C3 9800   3.391   0.240   1.874  0.1585  0.1249 -0.0612
  116GLOH   H06 9801   3.298   0.184   1.885  1.2880 -2.1602 -1.6687
  116GLOH   H07 9802   3.401   0.224   1.766 -0.4005 -2.9942  0.2886
  116GLOH    O3 9803   3.365   0.380   1.897  0.4763 -0.1028  0.7307
  116GLOH   H01 9804   3.436   0.412   1.956  1.0021  1.8685 -0.9266
  117GLOH   H03 9805   4.674   1.181   0.883 -1.0035  1.2526  1.2434
  117GLOH    O1 9806   4.643   1.109   0.941  0.4559 -0.4910 -0.0272
  117GLOH    C1 9807   4.563   1.166   1.048 -0.2686 -0.1547 -1.0767
  117GLOH   H02 9808   4.488   1.232   1.003  0.0555  0.7143 -0.3714
  117GLOH   H08 9809   4.618   1.205   1.134 -0.1556 -2.7043  0.0579
  117GLOH    C2 9810   4.495   1.057   1.126  0.6151  0.4860  0.1311
  117GLOH   H04 9811   4.562   1.001   1.193  1.0940  1.1000  0.1720
  117GLOH    O2 9812   4.383   1.109   1.207  0.6543  0.5681 -0.2485
  117GLOH   H05 9813   4.303   1.108   1.151  0.7165 -0.5431 -0.3410
  117GLOH    C3 9814   4.431   0.962   1.022 -0.4921 -0.3132 -0.0253
  117GLOH   H06 9815   4.351   1.007   0.964 -0.6738 -1.6922 -0.8626
  117GLOH   H07 9816   4.379   0.883   1.077  0.8331  1.0336  3.2810
  117GLOH    O3 9817   4.525   0.898   0.935  0.0090  0.2891  0.3552
  117GLOH   H01 9818   4.593   0.963   0.908  0.7638 -1.1097 -1.1720
  118GLOH   H03 9819   3.762   9.001   1.462  0.9533 -0.9777  2.3032
  118GLOH    O1 9820   3.827   8.949   1.411 -0.3896  0.1121 -0.6799
  118GLOH    C1 9821   3.826   8.819   1.461 -0.1943 -0.1314 -0.0393
  118GLOH   H02 9822   3.768   8.768   1.384 -0.3474  0.5525 -0.3740
  118GLOH   H08 9823   3.778   8.818   1.559  0.2112  0.3822  0.1666
  118GLOH    C2 9824   3.969   8.765   1.467 -0.4558 -0.0546 -0.4381
  118GLOH   H04 9825   4.035   8.839   1.513 -3.1760  1.2207  1.6082
  118GLOH    O2 9826   3.965   8.647   1.550  0.3464 -0.3714  0.0774
  118GLOH   H05 9827   3.984   8.566   1.501  1.3552 -0.1787  0.1459
  118GLOH    C3 9828   4.019   8.733   1.325  0.3256 -0.2716  0.2563
  118GLOH   H06 9829   4.112   8.678   1.336  0.8383  0.3536 -0.8448
  118GLOH   H07 9830   4.042   8.821   1.265  2.5979 -0.5738  0.6230
  118GLOH    O3 9831   3.924   8.651   1.244  0.6123  0.3529 -0.4821
  118GLOH   H01 9832   3.957   8.652   1.152  1.1859 -0.4951 -0.2856
  119GLOH   H03 9833   4.148   2.519   1.241  1.5482 -1.4737 -0.0925
  119GLOH    O1 9834   4.125   2.428   1.267 -0.2870 -0.9964 -0.0051
  119GLOH    C1 9835   4.172   2.331   1.174 -0.1854 -0.0661  0.0874
  119GLOH   H02 9836   4.254   2.376   1.118  1.1020 -0.2913  1.7690
  119GLOH   H08 9837   4.098   2.314   1.096 -1.0195  0.7230  0.7019
  119GLOH    C2 9838   4.235   2.200   1.233  0.3636  0.2993  0.3698
  119GLOH   H04 9839   4.158   2.151   1.295  0.4685  1.2995  1.2941
  119GLOH    O2 9840   4.273   2.104   1.134  0.1060 -0.1190  0.3981
  119GLOH   H05 9841   4.190   2.078   1.090 -0.1809 -2.6267  2.3039
  119GLOH    C3 9842   4.354   2.234   1.327 -0.6341  0.0754 -0.1038
  119GLOH   H06 9843   4.397   2.143   1.370 -0.2591  1.1878  1.9017
  119GLOH   H07 9844   4.325   2.292   1.414 -1.5058 -1.1662  0.4511
  119GLOH    O3 9845   4.455   2.307   1.257 -0.2823 -1.2285 -0.3700
  119GLOH   H01 9846   4.476   2.262   1.173  2.7063 -3.7775  1.6464
  120GLOH   H03 9847   4.837   2.363   1.159  0.5268 -0.3765  1.3994
  120GLOH    O1 9848   4.887   2.427   1.212  0.8572  0.0723  0.5594
  120GLOH    C1 9849   4.961   2.518   1.123  0.4616 -0.1533 -1.0214
  120GLOH   H02 9850   4.892   2.580   1.066 -1.6328 -1.9061 -0.4584
  120GLOH   H08 9851   4.998   2.459   1.040  2.3069 -1.8396  0.9645
  120GLOH    C2 9852   5.058   2.611   1.190  0.0849 -0.4488 -0.1492
  120GLOH   H04 9853   5.145   2.556   1.228 -1.2240 -1.7285  1.0334
  120GLOH    O2 9854   5.095   2.714   1.098  0.5431  0.2281 -0.2118
  120GLOH   H05 9855   5.156   2.669   1.037 -0.4752 -0.5555 -0.6898
  120GLOH    C3 9856   4.996   2.678   1.315 -0.2787  0.0122 -0.3742
  120GLOH   H06 9857   4.954   2.597   1.376  1.8007 -0.0904  0.9686
  120GLOH   H07 9858   4.912   2.744   1.295  0.3678  1.6057  1.9677
  120GLOH    O3 9859   5.094   2.751   1.384  0.1963  0.6831 -0.3615
  120GLOH   H01 9860   5.093   2.839   1.343  1.5776 -0.2433 -2.4105
  121ACOH    H4 9861   3.408   8.189   2.737  0.9905 -1.8828 -1.2666
  121ACOH    O2 9862   3.454   8.155   2.815 -0.2292 -0.4879  0.1001
  121ACOH    C2 9863   3.410   8.224   2.925 -0.2659  0.2337  1.0368
  121ACOH    O1 9864   3.315   8.299   2.925  0.4355  0.0944 -0.0824
  121ACOH    C1 9865   3.497   8.213   3.040  0.5276  0.1655  0.3095
  121ACOH    H1 9866   3.433   8.225   3.127 -0.7130  0.8441 -0.6804
  121ACOH    H2 9867   3.565   8.298   3.042  1.2290 -0.4078  3.5295
  121ACOH    H3 9868   3.545   8.115   3.048  0.8156  0.2137 -0.7983
  122ACOH    H4 9869   4.354   2.190   2.062 -0.5953  0.1580  1.4024
  122ACOH    O2 9870   4.413   2.120   2.096 -0.0153  0.0190  0.1593
  122ACOH    C2 9871   4.542   2.162   2.098 -0.5017  0.1914  0.2399
  122ACOH    O1 9872   4.588   2.273   2.083 -0.2588  0.2356 -0.3184
  122ACOH    C1 9873   4.632   2.052   2.131 -0.1220  0.1677  0.8572
  122ACOH    H1 9874   4.735   2.089   2.124 -0.0551  0.0214  1.0671
  122ACOH    H2 9875   4.613   1.972   2.059 -2.8050  1.4656  0.0921
  122ACOH    H3 9876   4.605   2.033   2.234 -3.8063 -1.4631 -0.3280
  123ACOH    H4 9877   3.778   7.458   0.482  1.5770  1.8778  2.1763
  123ACOH    O2 9878   3.831   7.381   0.508 -0.2479 -0.3017 -0.2875
  123ACOH    C2 9879   3.755   7.310   0.593 -0.6377 -0.2794 -0.3689
  123ACOH    O1 9880   3.649   7.332   0.639  0.1244  0.4256  0.3984
  123ACOH    C1 9881   3.842   7.209   0.656 -0.2153 -0.1670 -0.2416
  123ACOH    H1 9882   3.848   7.214   0.765  1.9762  2.0626 -0.4028
  123ACOH    H2 9883   3.945   7.234   0.628 -0.6280  0.9264 -0.8210
  123ACOH    H3 9884   3.809   7.113   0.618 -0.9886  0.7378 -1.9112
  124ACOH    H4 9885   4.206   1.149   2.037 -0.8622  0.4840 -0.0447
  124ACOH    O2 9886   4.226   1.235   2.077  0.6544  0.2052 -0.1696
  124ACOH    C2 9887   4.283   1.291   1.970  0.1635  0.1010  0.0612
  124ACOH    O1 9888   4.358   1.237   1.891 -0.2905 -0.0863 -0.1861
  124ACOH    C1 9889   4.272   1.438   1.980  0.2373  0.5579  0.4534
  124ACOH    H1 9890   4.314   1.462   2.077  2.6081 -0.6483 -0.2242
  124ACOH    H2 9891   4.167   1.462   1.992 -0.4856 -2.4300  0.5007
  124ACOH    H3 9892   4.313   1.495   1.896  2.3471 -2.0858 -0.3901
  125ACOH    H4 9893   5.158   2.631   1.488  1.1155 -0.1971  0.3117
  125ACOH    O2 9894   5.172   2.548   1.536 -0.2576 -0.4712  0.2546
  125ACOH    C2 9895   5.123   2.548   1.662  0.2022 -0.9674  0.6921
  125ACOH    O1 9896   5.022   2.609   1.696  0.1109 -0.5830 -0.4267
  125ACOH    C1 9897   5.194   2.456   1.754  0.1803  1.4403 -0.4171
  125ACOH    H1 9898   5.200   2.511   1.848  0.6409 -0.1832  0.5280
  125ACOH    H2 9899   5.291   2.419   1.720  0.3622  0.4539  1.1251
  125ACOH    H3 9900   5.136   2.365   1.769  1.8207  0.1370 -1.6597
  126ACOH    H4 9901   5.030   9.324   1.168  1.1179 -2.0928  0.4831
  126ACOH    O2 9902   5.058   9.368   1.251  0.7893 -0.5160 -0.2378
  126ACOH    C2 9903   5.003   9.495   1.243 -0.5700 -0.3525 -0.4240
  126ACOH    O1 9904   4.963   9.556   1.143 -0.1581 -0.0895 -0.2898
  126ACOH    C1 9905   5.007   9.560   1.375  0.3824  0.4918 -0.1265
  126ACOH    H1 9906   5.103   9.536   1.423 -1.2827 -0.4635  2.8725
  126ACOH    H2 9907   4.922   9.528   1.435 -1.3614  3.4549 -0.9727
  126ACOH    H3 9908   4.990   9.667   1.366 -1.4386  0.1128 -1.3587
  127ACOH    H4 9909   4.670   1.507   1.047  0.3294 -0.7713 -1.2811
  127ACOH    O2 9910   4.726   1.430   1.066  0.2102 -0.4491  0.4540
  127ACOH    C2 9911   4.837   1.461   1.003  0.3551 -0.2481  0.2419
  127ACOH    O1 9912   4.883   1.559   0.946  0.9015  0.8396  0.6540
  127ACOH    C1 9913   4.919   1.340   1.014 -0.6027 -0.0112 -0.3609
  127ACOH    H1 9914   5.005   1.364   1.077 -2.0101  1.4783  1.0663
  127ACOH    H2 9915   4.939   1.304   0.913 -0.7962  1.3076 -0.8812
  127ACOH    H3 9916   4.860   1.257   1.052  1.8313 -0.3238  2.9794
  128ACOH    H4 9917   2.998   3.501   1.435 -0.4114 -0.9123 -1.7387
  128ACOH    O2 9918   2.915   3.551   1.420  0.0069  0.1425 -0.6382
  128ACOH    C2 9919   2.931   3.602   1.297 -0.1413  0.9524  0.7891
  128ACOH    O1 9920   2.999   3.553   1.210  0.1154 -0.8401  0.3811
  128ACOH    C1 9921   2.843   3.719   1.278 -0.5841 -0.2614  0.2334
  128ACOH    H1 9922   2.837   3.749   1.173 -0.6065 -0.1714  0.2603
  128ACOH    H2 9923   2.898   3.797   1.331  0.8518 -1.1736  0.1013
  128ACOH    H3 9924   2.744   3.714   1.323 -1.2618  1.1740 -1.0537
  129ACOH    H4 9925   2.524   4.050   1.445  1.2838  1.6166  1.0754
  129ACOH    O2 9926   2.445   4.057   1.501  0.3972  0.0794  0.0330
  129ACOH    C2 9927   2.358   4.132   1.445  0.4291 -0.1680  0.0590
  129ACOH    O1 9928   2.379   4.184   1.336 -0.1841 -0.3505  0.6665
  129ACOH    C1 9929   2.251   4.178   1.536  0.5981  0.4638  0.0532
  129ACOH    H1 9930   2.212   4.093   1.592  0.4066 -1.0669 -2.3776
  129ACOH    H2 9931   2.172   4.228   1.479 -1.5400  0.9058  3.2508
  129ACOH    H3 9932   2.289   4.257   1.602  0.0737  0.4533  0.3724
  130ACOH    H4 9933   3.517   8.199   1.633  0.7426 -0.7949 -3.9910
  130ACOH    O2 9934   3.526   8.290   1.601  0.6423  0.5638 -0.3078
  130ACOH    C2 9935   3.608   8.358   1.683  0.2106 -1.0399  0.4428
  130ACOH    O1 9936   3.674   8.322   1.778 -0.0145 -0.2504  0.2165
  130ACOH    C1 9937   3.632   8.496   1.622  0.1457 -0.4284  0.3106
  130ACOH    H1 9938   3.537   8.537   1.586 -1.9401 -4.4164  0.9333
  130ACOH    H2 9939   3.689   8.472   1.532  1.0934  1.0943  0.4901
  130ACOH    H3 9940   3.693   8.557   1.688 -0.9535  0.7825  0.2116
  131ACOH    H4 9941   3.765   5.361   0.327 -0.4365  0.3812  0.7986
  131ACOH    O2 9942   3.861   5.374   0.321 -0.3496 -0.3750  0.3921
  131ACOH    C2 9943   3.917   5.255   0.282 -0.4850 -0.6858  0.4583
  131ACOH    O1 9944   3.869   5.147   0.251 -0.6662  0.5694  0.0210
  131ACOH    C1 9945   4.065   5.293   0.272 -1.2358  0.0278 -0.3968
  131ACOH    H1 9946   4.112   5.196   0.264 -0.6512  0.2607  0.1079
  131ACOH    H2 9947   4.095   5.337   0.368 -0.9743 -2.1495  0.5403
  131ACOH    H3 9948   4.068   5.357   0.184 -2.6803 -0.3188 -0.7118
  132ACOH    H4 9949   5.277   3.349   0.738 -0.5804 -2.7771  1.1673
  132ACOH    O2 9950   5.338   3.328   0.665 -0.0201  0.2506  0.6986
  132ACOH    C2 9951   5.424   3.232   0.697  0.1920 -0.6619  0.1579
  132ACOH    O1 9952   5.430   3.165   0.798 -0.2067  0.3611 -0.5006
  132ACOH    C1 9953   5.533   3.240   0.604  1.0824 -0.2783  0.0074
  132ACOH    H1 9954   5.511   3.213   0.501  1.1145 -0.1608 -0.0306
  132ACOH    H2 9955   5.615   3.176   0.637  1.2239  1.8264  4.0101
  132ACOH    H3 9956   5.574   3.341   0.612 -1.1846  0.5347  1.8020
  133ACOH    H4 9957   4.963   3.604   0.465 -0.0472 -0.3678 -0.6263
  133ACOH    O2 9958   4.962   3.663   0.388 -0.5485  0.1897 -0.1943
  133ACOH    C2 9959   4.959   3.783   0.453  0.1021 -0.4925  0.7596
  133ACOH    O1 9960   4.910   3.799   0.561  0.3129 -0.2406  0.0301
  133ACOH    C1 9961   4.991   3.898   0.361 -0.2463 -0.6670 -0.3426
  133ACOH    H1 9962   5.085   3.951   0.379  1.3010 -2.1736 -3.4335
  133ACOH    H2 9963   4.909   3.968   0.369 -0.7547 -1.4689  1.6851
  133ACOH    H3 9964   4.983   3.874   0.255  0.6839 -1.8760 -0.1566
  134ACOH    H4 9965   4.427   3.491   0.289  0.4057  3.4167  0.1359
  134ACOH    O2 9966   4.367   3.510   0.215 -0.1724 -0.2648 -0.4530
  134ACOH    C2 9967   4.379   3.640   0.173  0.0315  0.7301 -0.0595
  134ACOH    O1 9968   4.467   3.722   0.195 -0.2238  0.5650 -0.1522
  134ACOH    C1 9969   4.275   3.665   0.068 -0.4794  0.0037  0.0497
  134ACOH    H1 9970   4.217   3.755   0.087 -0.1571 -0.2014  2.0245
  134ACOH    H2 9971   4.201   3.585   0.072 -0.5618  0.1020  0.4372
  134ACOH    H3 9972   4.329   3.689  -0.024  0.2446 -4.2642 -0.7508
  135ACOH    H4 9973   5.100   4.137   0.077 -0.5029 -0.2983  0.4254
  135ACOH    O2 9974   5.171   4.164   0.138  0.4551 -0.3312 -0.6771
  135ACOH    C2 9975   5.108   4.224   0.244  0.0440 -0.5552  0.1975
  135ACOH    O1 9976   4.985   4.226   0.263 -1.1647 -0.0718  0.1164
  135ACOH    C1 9977   5.218   4.273   0.331  0.1654 -0.2373  0.1520
  135ACOH    H1 9978   5.254   4.365   0.286 -0.4219 -1.6043 -3.2588
  135ACOH    H2 9979   5.291   4.195   0.351  3.3195  2.2460 -1.2658
  135ACOH    H3 9980   5.183   4.308   0.428 -1.5669  1.7876 -1.1359
  136ACOH    H4 9981   3.378   5.741   0.158 -0.8612 -1.6534  1.3278
  136ACOH    O2 9982   3.461   5.695   0.176  0.1202 -0.4046  0.0667
  136ACOH    C2 9983   3.517   5.750   0.286 -0.6560  0.9812 -0.2657
  136ACOH    O1 9984   3.473   5.849   0.344 -0.3244  0.6478  0.0468
  136ACOH    C1 9985   3.636   5.678   0.341  0.1633  0.0955  1.7694
  136ACOH    H1 9986   3.710   5.690   0.263 -2.4598 -1.0226 -0.9710
  136ACOH    H2 9987   3.619   5.571   0.351  1.9127 -0.3303  0.3437
  136ACOH    H3 9988   3.667   5.727   0.434  1.6933  0.6661  0.9628
  137ACOH    H4 9989   2.426   5.213   0.955  0.8119  0.5340 -0.6391
  137ACOH    O2 9990   2.368   5.291   0.948  0.3126  0.1668 -0.5576
  137ACOH    C2 9991   2.440   5.399   0.991  0.1205  0.4692 -0.3458
  137ACOH    O1 9992   2.555   5.398   1.029  0.5399  0.7022 -0.1227
  137ACOH    C1 9993   2.367   5.526   0.990 -0.3143 -0.0447 -0.1583
  137ACOH    H1 9994   2.392   5.587   1.077 -0.8484 -1.4946  1.0369
  137ACOH    H2 9995   2.259   5.518   0.988 -0.6824  3.5842  0.8293
  137ACOH    H3 9996   2.411   5.580   0.906 -0.7466 -0.7011 -0.8085
  138ACOH    H4 9997   4.158   8.842   2.104  0.8776  1.3352  1.0255
  138ACOH    O2 9998   4.214   8.792   2.164  0.0792 -0.1635  0.5422
  138ACOH    C2 9999   4.186   8.829   2.290 -0.6075 -0.1861  0.4190
  138ACOH    O110000   4.273   8.856   2.368 -0.1535 -0.2908 -0.9835
  138ACOH    C110001   4.043   8.865   2.324  1.2256  0.1947  0.2476
  138ACOH    H110002   4.006   8.781   2.383  0.8817 -0.0960 -0.3761
  138ACOH    H210003   3.978   8.868   2.236 -0.1018 -0.1242  1.1965
  138ACOH    H310004   4.048   8.958   2.379 -1.7048  0.4098  0.2337
  139ACOH    H410005   2.877   2.962   2.811 -2.6620 -1.2532  0.4626
  139ACOH    O210006   2.851   3.047   2.773 -0.5778 -0.7988  0.0214
  139ACOH    C210007   2.750   3.048   2.690  0.1994  0.1869 -0.5138
  139ACOH    O110008   2.717   2.953   2.622  0.1377 -0.3094 -0.7732
  139ACOH    C110009   2.704   3.182   2.654 -0.0613 -0.3772  0.0886
  139ACOH    H110010   2.785   3.250   2.627  0.6121  0.3157  3.5771
  139ACOH    H210011   2.656   3.230   2.739 -0.9474 -0.4201 -0.3916
  139ACOH    H310012   2.630   3.177   2.574 -0.1235  2.3428 -0.0677
  140ACOH    H410013   3.125   1.122   1.609  0.3819  0.2498  0.1662
  140ACOH    O210014   3.208   1.140   1.655  0.5888 -0.1982 -0.0319
  140ACOH    C210015   3.169   1.166   1.782 -0.1592  0.5972  0.6997
  140ACOH    O110016   3.053   1.169   1.816 -0.6537 -0.6674  0.0940
  140ACOH    C110017   3.285   1.183   1.881  0.5167  0.0265  0.5100
  140ACOH    H110018   3.376   1.151   1.831 -1.0083 -2.1582 -0.9414
  140ACOH    H210019   3.268   1.114   1.964 -0.3836 -1.0103 -0.5226
  140ACOH    H310020   3.303   1.286   1.914  2.0211 -0.4856  1.3422
  141ACOH    H410021   4.858   3.237   0.068 -0.4950 -0.0831 -0.2277
  141ACOH    O210022   4.877   3.176   0.141  0.3920  0.1682 -0.2352
  141ACOH    C210023   4.887   3.049   0.091  0.2364  0.7406 -0.1616
  141ACOH    O110024   4.901   3.010  -0.023  0.0157  0.2917  0.8010
  141ACOH    C110025   4.885   2.958   0.208  0.4809 -0.4889 -0.0372
  141ACOH    H110026   4.896   2.852   0.183 -0.3422 -0.0882 -2.2320
  141ACOH    H210027   4.785   2.970   0.251  0.8058 -0.1072  0.6170
  141ACOH    H310028   4.959   2.992   0.280 -0.5896  0.0426  0.8320
  142ACOH    H410029   1.910   7.300   1.240  0.3001 -1.3425  1.9861
  142ACOH    O210030   1.879   7.229   1.180 -0.1370  0.4174  0.0633
  142ACOH    C210031   1.965   7.168   1.099 -0.3013 -0.0862  0.0132
  142ACOH    O110032   2.069   7.214   1.071 -0.5861  0.4843  0.8194
  142ACOH    C110033   1.911   7.046   1.032  0.6667  0.0543 -0.2101
  142ACOH    H110034   1.969   6.957   1.058 -0.7606 -0.6096  0.7805
  142ACOH    H210035   1.908   7.061   0.924 -0.2297  0.1105 -0.1840
  142ACOH    H310036   1.814   7.026   1.077  1.0146 -0.1379  0.4641
  143ACOH    H410037   2.776   5.303   1.703 -0.7135 -0.3122  1.0668
  143ACOH    O210038   2.732   5.387   1.685  0.0184 -0.1148  0.1303
  143ACOH    C210039   2.659   5.420   1.797  1.0049 -0.3741  0.3686
  143ACOH    O110040   2.646   5.346   1.893  0.2804 -0.2234  0.1613
  143ACOH    C110041   2.574   5.531   1.788 -0.6818  0.0739 -0.2246
  143ACOH    H110042   2.598   5.614   1.854  2.4819 -0.7090 -0.3126
  143ACOH    H210043   2.472   5.498   1.809 -0.1077 -1.6900 -0.1312
  143ACOH    H310044   2.585   5.565   1.685 -0.0802 -2.4854 -1.0525
  144ACOH    H410045   4.647   1.954   0.281  2.4242  1.2521 -0.8156
  144ACOH    O210046   4.645   1.899   0.201 -0.9222 -0.8382  0.5770
  144ACOH    C210047   4.747   1.810   0.212 -0.2855  0.0564 -0.5201
  144ACOH    O110048   4.826   1.805   0.310  0.9655 -0.1646  0.6348
  144ACOH    C110049   4.734   1.713   0.105 -0.0782  0.5176  0.2352
  144ACOH    H110050   4.760   1.759   0.010 -0.6573 -2.2492 -1.3011
  144ACOH    H210051   4.627   1.692   0.099 -0.1983  0.8610  1.0874
  144ACOH    H310052   4.781   1.621   0.138 -2.2957  0.3410  3.1516
  145ACOH    H410053   4.124   0.228   0.651  0.3029  0.2613 -0.4925
  145ACOH    O210054   4.209   0.274   0.660  0.0568  0.5254  0.5464
  145ACOH    C210055   4.210   0.348   0.546  0.0225  0.3922 -0.0610
  145ACOH    O110056   4.158   0.318   0.443  0.1419 -0.1763  0.3149
  145ACOH    C110057   4.332   0.425   0.540  0.1146 -0.3925  0.4143
  145ACOH    H110058   4.330   0.527   0.581 -0.1661 -0.0499 -0.4423
  145ACOH    H210059   4.370   0.425   0.438  1.2224 -1.3620  0.8157
  145ACOH    H310060   4.413   0.382   0.599 -1.4748  0.1424  3.0314
  146ACOH    H410061   4.915   1.958   0.957 -0.9789  2.2206 -1.2929
  146ACOH    O210062   4.974   2.018   1.005  0.1641  0.2214 -0.1117
  146ACOH    C210063   5.045   2.071   0.906  0.1575 -0.1475  0.1554
  146ACOH    O110064   5.021   2.085   0.790  0.3349 -0.5737 -0.1188
  146ACOH    C110065   5.149   2.162   0.970 -0.6569 -0.1074 -0.1867
  146ACOH    H110066   5.235   2.103   1.001 -1.3899 -1.1079 -0.0533
  146ACOH    H210067   5.100   2.215   1.052 -1.0926  2.1301 -1.8274
  146ACOH    H310068   5.193   2.235   0.902  0.2715  0.9258  1.4901
  147ACOH    H410069   3.841   7.852   0.357  3.5520  0.9550  0.7351
  147ACOH    O210070   3.872   7.792   0.287  0.6352  0.3313 -0.0951
  147ACOH    C210071   3.946   7.860   0.204  0.8060 -0.2586 -0.4596
  147ACOH    O110072   3.918   7.965   0.152 -0.2308  0.3911 -0.4853
  147ACOH    C110073   4.061   7.768   0.173  0.3969  0.3378  0.0448
  147ACOH    H110074   4.070   7.688   0.247  0.3016 -2.1836 -2.5901
  147ACOH    H210075   4.155   7.823   0.169  1.7480 -1.7590  1.6238
  147ACOH    H310076   4.040   7.729   0.074  1.9090  1.1922 -0.6298
  148ACOH    H410077   4.331   8.886   2.522 -1.8667 -2.2113  0.9124
  148ACOH    O210078   4.342   8.913   2.614 -0.2416  0.2568  0.0589
  148ACOH    C210079   4.250   8.841   2.681 -0.2727  0.2299 -0.1533
  148ACOH    O110080   4.174   8.755   2.647  0.7581  0.1652  0.1234
  148ACOH    C110081   4.224   8.903   2.811  0.0840  0.5497  0.3589
  148ACOH    H110082   4.240   9.011   2.807  1.8026  0.3317  0.9607
  148ACOH    H210083   4.281   8.846   2.884 -0.3725 -1.1012 -0.5516
  148ACOH    H310084   4.120   8.905   2.845  0.1147  1.4912  0.4270
  149ACOH    H410085   2.437   6.812   1.580  0.5685  0.8350 -2.1450
  149ACOH    O210086   2.342   6.804   1.565  0.1806  0.6916  0.2118
  149ACOH    C210087   2.320   6.699   1.477  0.0991 -0.4449 -0.7259
  149ACOH    O110088   2.387   6.600   1.472 -0.0480  0.5627  0.4712
  149ACOH    C110089   2.185   6.711   1.424 -0.1097 -0.7259 -0.9117
  149ACOH    H110090   2.127   6.619   1.439 -0.7775 -0.1806 -0.0708
  149ACOH    H210091   2.192   6.751   1.324  0.9155  4.4302  1.0890
  149ACOH    H310092   2.131   6.783   1.485 -0.0398 -0.0230 -1.6838
  150ACOH    H410093   3.815   5.155   0.794 -1.2113  1.9639  1.1255
  150ACOH    O210094   3.850   5.231   0.745  0.3567  0.3856 -0.2476
  150ACOH    C210095   3.964   5.186   0.700  0.6086  0.3556  0.9326
  150ACOH    O110096   3.987   5.074   0.664 -0.2781  0.7073 -0.1128
  150ACOH    C110097   4.069   5.291   0.661  0.0906  0.4865  0.4273
  150ACOH    H110098   4.163   5.249   0.625  0.8241  1.2300  1.4584
  150ACOH    H210099   4.088   5.348   0.751  0.0880  3.6337 -1.4856
  150ACOH    H310100   4.022   5.344   0.578  1.8923  0.9945 -0.2890
  151ACOH    H410101   2.099   7.944   0.015 -0.9742 -0.4372  0.1570
  151ACOH    O210102   2.027   7.983   0.067 -0.3927 -0.2157  0.8148
  151ACOH    C210103   1.986   8.094   0.002  0.5020 -0.9730  1.2347
  151ACOH    O110104   2.027   8.148  -0.096 -0.2650 -0.0587  0.0428
  151ACOH    C110105   1.848   8.129   0.045  0.4244 -0.0465  0.0068
  151ACOH    H110106   1.840   8.237   0.035  0.0100  0.0124  0.9038
  151ACOH    H210107   1.828   8.111   0.151 -1.6285 -0.3672 -0.4094
  151ACOH    H310108   1.773   8.086  -0.022 -0.9487  1.0465  0.8198
  152ACOH    H410109   3.376   5.534   1.499 -0.0425 -0.2148  0.0328
  152ACOH    O210110   3.432   5.609   1.522 -0.1970 -0.1604  0.2342
  152ACOH    C210111   3.484   5.600   1.636 -0.5922 -0.1399  0.1426
  152ACOH    O110112   3.481   5.501   1.703 -0.1244  0.6894  0.2215
  152ACOH    C110113   3.540   5.722   1.691 -0.1815 -0.5579  0.2014
  152ACOH    H110114   3.590   5.709   1.787 -1.3641  2.3683  1.2522
  152ACOH    H210115   3.461   5.796   1.702  1.3144  0.7089  2.8699
  152ACOH    H310116   3.615   5.755   1.619  0.1368 -0.0380  0.7740
  153ACOH    H410117   4.366   8.251   0.634 -0.6311  0.6620  1.2113
  153ACOH    O210118   4.366   8.169   0.686  0.3445  0.0245  0.2337
  153ACOH    C210119   4.256   8.162   0.763  0.7528  0.3266 -0.6625
  153ACOH    O110120   4.141   8.189   0.718 -0.2496 -0.2436  0.0203
  153ACOH    C110121   4.265   8.044   0.855 -0.4656 -0.0721  0.0140
  153ACOH    H110122   4.346   8.063   0.926 -1.3845  1.6147  0.6625
  153ACOH    H210123   4.297   7.956   0.799  0.4147  0.3398 -0.1353
  153ACOH    H310124   4.175   8.023   0.913  0.4174 -2.9381  0.4093
  154ACOH    H410125   3.136   5.806   2.239  1.3564 -1.1182  0.0699
  154ACOH    O210126   3.078   5.764   2.304  0.1962  0.2362 -0.0644
  154ACOH    C210127   2.955   5.756   2.259 -0.3679 -0.4950 -0.6981
  154ACOH    O110128   2.924   5.741   2.144 -0.1397 -0.0241 -0.5624
  154ACOH    C110129   2.861   5.745   2.373 -0.2619  0.1201 -0.3429
  154ACOH    H110130   2.915   5.747   2.467 -0.3375 -1.8654 -0.2436
  154ACOH    H210131   2.816   5.648   2.357 -1.9220  1.1957 -2.5282
  154ACOH    H310132   2.788   5.826   2.366  2.3750  2.4724 -2.3632
  155ACOH    H410133   3.829   8.694   0.738  1.3458  0.5094 -3.6218
  155ACOH    O210134   3.761   8.764   0.735 -0.0770 -0.6168 -0.3121
  155ACOH    C210135   3.758   8.812   0.609 -0.7963 -0.3009 -0.4056
  155ACOH    O110136   3.822   8.768   0.518  0.0317  0.5518 -1.1261
  155ACOH    C110137   3.644   8.901   0.579  0.1310  0.4609 -0.3105
  155ACOH    H110138   3.680   8.987   0.523  1.5753  0.1961  0.1947
  155ACOH    H210139   3.604   8.941   0.672 -0.8194 -0.5902 -0.2526
  155ACOH    H310140   3.565   8.848   0.525  0.3725 -0.7405  0.4996
  156ACOH    H410141   5.197   3.401   1.445 -1.3062  0.7383 -0.7770
  156ACOH    O210142   5.261   3.474   1.439 -0.4398  0.0408 -0.1031
  156ACOH    C210143   5.386   3.436   1.428 -0.2072  0.6536 -0.3839
  156ACOH    O110144   5.418   3.324   1.393  0.2264  0.0341  0.1892
  156ACOH    C110145   5.478   3.550   1.459  0.8641 -0.0963 -0.1869
  156ACOH    H110146   5.577   3.514   1.433  1.1421  1.4207 -1.3114
  156ACOH    H210147   5.467   3.591   1.560 -1.0400 -0.1356 -0.3679
  156ACOH    H310148   5.443   3.629   1.392  1.1467  0.7309  0.6296
  157ACOH    H410149   4.645   4.477   0.753  1.1984 -1.3312  2.4734
  157ACOH    O210150   4.615   4.554   0.805  0.4895 -0.0496  0.2373
  157ACOH    C210151   4.488   4.581   0.774  0.4298  0.8816 -0.1674
  157ACOH    O110152   4.403   4.504   0.728  0.0543  0.0239  0.4807
  157ACOH    C110153   4.447   4.721   0.812  0.2078 -0.1827  0.0339
  157ACOH    H110154   4.525   4.779   0.859  1.3236 -1.7898  0.2179
  157ACOH    H210155   4.368   4.715   0.886  0.0814  1.5446  0.0487
  157ACOH    H310156   4.409   4.779   0.728  2.2396  0.6282 -0.3404
  158ACOH    H410157   3.652   5.372   1.261  1.2770  0.0566 -0.3338
  158ACOH    O210158   3.640   5.413   1.349  0.9350 -0.6795 -0.0300
  158ACOH    C210159   3.764   5.395   1.407 -0.1432 -0.3953 -0.5970
  158ACOH    O110160   3.871   5.346   1.368  0.5379 -0.2661 -0.1110
  158ACOH    C110161   3.761   5.436   1.546 -1.0492  0.5254  0.2041
  158ACOH    H110162   3.747   5.541   1.571  2.0342  0.5898  1.7894
  158ACOH    H210163   3.845   5.382   1.590 -0.9393 -0.2382 -0.9220
  158ACOH    H310164   3.674   5.386   1.589  0.4305 -1.7643  0.6096
  159ACOH    H410165   4.902   2.610   0.178 -0.7754 -0.0315  0.5762
  159ACOH    O210166   4.936   2.612   0.270 -0.2339 -0.1579  0.3831
  159ACOH    C210167   4.891   2.497   0.310  0.4046  1.0021  0.6632
  159ACOH    O110168   4.791   2.436   0.270 -0.1727  0.4566  0.0558
  159ACOH    C110169   4.947   2.473   0.447 -0.3799  0.0660 -0.1086
  159ACOH    H110170   4.980   2.371   0.465  1.5849  0.6911 -0.1069
  159ACOH    H210171   4.869   2.504   0.517 -0.4297  0.0577 -0.1596
  159ACOH    H310172   5.035   2.536   0.463 -1.8440  1.9173  0.8628
  160ACOH    H410173   4.414   3.070   0.126 -2.6739 -2.2788 -0.0021
  160ACOH    O210174   4.476   2.997   0.146  0.1626  0.0196 -0.0665
  160ACOH    C210175   4.414   2.892   0.202  0.7072  0.0736  0.7007
  160ACOH    O110176   4.297   2.876   0.194 -0.0452  0.6830 -0.4085
  160ACOH    C110177   4.498   2.772   0.218 -0.5024  0.2141 -0.1340
  160ACOH    H110178   4.432   2.686   0.228  0.3022 -0.4623 -0.6024
  160ACOH    H210179   4.571   2.780   0.298 -0.0724 -3.0556 -0.1262
  160ACOH    H310180   4.547   2.746   0.124  1.4095 -0.7547  1.0928
  161ACOH    H410181   2.613   1.167   1.964  1.0187 -0.4856  0.9510
  161ACOH    O210182   2.613   1.098   1.895  0.2444  0.0301  0.4274
  161ACOH    C210183   2.541   1.152   1.796  0.0254 -0.0808  0.2963
  161ACOH    O110184   2.442   1.223   1.817  0.1349 -0.0405 -0.2229
  161ACOH    C110185   2.584   1.110   1.664  0.5139 -0.0876 -0.1534
  161ACOH    H110186   2.660   1.178   1.625 -0.5983  2.1447  1.4141
  161ACOH    H210187   2.497   1.116   1.599  0.8140  3.1224 -0.3252
  161ACOH    H310188   2.612   1.005   1.672 -0.1151 -0.1916  0.8015
  162ACOH    H410189   1.961   8.006   2.158 -0.1078  0.3895  0.8030
  162ACOH    O210190   1.889   8.069   2.143 -0.0753  0.2728  0.1645
  162ACOH    C210191   1.907   8.183   2.215 -0.7920 -0.2496  0.8978
  162ACOH    O110192   1.955   8.189   2.324 -0.4285 -1.2355  0.3501
  162ACOH    C110193   1.819   8.290   2.164  0.3654  0.5393 -0.1930
  162ACOH    H110194   1.715   8.256   2.166  0.9067 -1.2118 -1.4989
  162ACOH    H210195   1.841   8.321   2.062 -0.4839 -0.7824 -0.7966
  162ACOH    H310196   1.835   8.382   2.221  0.9510 -0.2071  0.8546
  163ACOH    H410197   4.423   0.542   0.846 -0.2049 -0.1159 -0.3953
  163ACOH    O210198   4.445   0.449   0.861  0.0301 -0.0130 -0.0954
  163ACOH    C210199   4.353   0.391   0.942 -0.2312  0.2569 -0.2404
  163ACOH    O110200   4.271   0.458   1.007 -0.3037  0.0957 -0.1172
  163ACOH    C110201   4.392   0.249   0.972 -0.6887 -0.3303  0.4158
  163ACOH    H110202   4.348   0.213   1.065 -0.6483  0.5348  0.7740
  163ACOH    H210203   4.500   0.252   0.983 -0.4089  0.5146 -2.1514
  163ACOH    H310204   4.372   0.187   0.884  2.0007  0.8442 -1.0885
  164ACOH    H410205   3.458   5.492   0.754  2.3692 -0.7620 -2.7230
  164ACOH    O210206   3.502   5.577   0.771 -0.4398  0.2135  0.1766
  164ACOH    C210207   3.515   5.591   0.904 -0.5238 -0.4797  0.1216
  164ACOH    O110208   3.446   5.537   0.987  0.3091 -0.0500  0.1614
  164ACOH    C110209   3.616   5.692   0.936  0.9427  0.6644 -0.3995
  164ACOH    H110210   3.639   5.682   1.042 -0.5036  1.0974 -0.0441
  164ACOH    H210211   3.575   5.792   0.929  1.5325  1.2631  3.6218
  164ACOH    H310212   3.690   5.666   0.859  0.1485 -0.5742 -0.7705
  165ACOH    H410213   3.372   7.285   1.134 -2.7286  0.7966 -0.3471
  165ACOH    O210214   3.327   7.200   1.123 -0.8158 -0.2316 -0.5313
  165ACOH    C210215   3.285   7.192   1.000  0.3914 -1.0328  0.7792
  165ACOH    O110216   3.255   7.293   0.933  0.1077 -0.4034  0.2337
  165ACOH    C110217   3.216   7.063   0.983 -0.5510 -0.9413 -0.6317
  165ACOH    H110218   3.283   6.981   1.009 -0.1057  0.2418  2.1162
  165ACOH    H210219   3.178   7.056   0.881 -0.1723 -0.2449 -0.8237
  165ACOH    H310220   3.135   7.060   1.057  0.1303 -1.4934  0.0951
  166ACOH    H410221   4.325   1.851   1.659 -1.1021  0.6312 -0.4535
  166ACOH    O210222   4.386   1.830   1.587 -0.2928  0.1826  0.3519
  166ACOH    C210223   4.462   1.720   1.620  0.6636 -0.1521 -0.2413
  166ACOH    O110224   4.450   1.654   1.722  0.3569  0.2584 -0.2684
  166ACOH    C110225   4.551   1.677   1.512 -0.3535 -0.2715 -0.7435
  166ACOH    H110226   4.542   1.747   1.429  0.0518 -0.1845 -0.7138
  166ACOH    H210227   4.524   1.577   1.477  0.1943 -1.0758  1.0451
  166ACOH    H310228   4.654   1.666   1.545 -0.3009  1.7723 -0.1697
  167ACOH    H410229   4.301   1.057   0.092 -2.5409  0.4984  0.2293
  167ACOH    O210230   4.314   1.044   0.188 -0.3541 -0.2468 -0.1608
  167ACOH    C210231   4.330   0.914   0.211 -0.2488  0.2251 -0.9829
  167ACOH    O110232   4.253   0.851   0.285  0.1202 -0.3258 -0.2202
  167ACOH    C110233   4.388   0.847   0.096  0.0486 -0.0440  0.3439
  167ACOH    H110234   4.461   0.914   0.050  1.5786 -0.4409  2.1347
  167ACOH    H210235   4.303   0.825   0.031 -1.0876  0.5927  1.5897
  167ACOH    H310236   4.427   0.750   0.123 -0.5538 -0.0659  1.1307
  168ACOH    H410237   4.032   9.471   1.845 -0.4612  1.0298  2.0884
  168ACOH    O210238   4.120   9.436   1.868 -0.4877 -0.7941 -0.2948
  168ACOH    C210239   4.147   9.504   1.979  0.4897 -0.1017  1.3850
  168ACOH    O110240   4.119   9.622   1.999 -0.2793 -0.4541  0.5926
  168ACOH    C110241   4.244   9.425   2.064  0.0532 -0.2022  0.2538
  168ACOH    H110242   4.279   9.345   1.999 -1.2255  0.1083 -0.8524
  168ACOH    H210243   4.201   9.391   2.158 -0.2003 -1.3091 -0.2508
  168ACOH    H310244   4.335   9.483   2.075 -0.1584 -0.3412  2.9018
  169ACOH    H410245   3.669   5.091   2.578  0.7583 -0.1101 -0.8837
  169ACOH    O210246   3.757   5.091   2.620  0.5052 -0.2308 -0.3594
  169ACOH    C210247   3.854   5.050   2.540 -0.1316  0.1779  0.3108
  169ACOH    O110248   3.831   5.023   2.427 -0.3176 -0.3124 -0.0642
  169ACOH    C110249   3.980   5.068   2.610  1.2552 -0.0536 -0.3013
  169ACOH    H110250   3.984   5.169   2.652 -4.0375 -0.5243  1.6354
  169ACOH    H210251   4.069   5.045   2.551  0.5161 -2.1533 -0.6379
  169ACOH    H310252   3.983   5.002   2.696  2.6786  0.2840 -0.0695
  170ACOH    H410253   4.807   1.712   2.579  1.2404 -0.9621  2.2968
  170ACOH    O210254   4.832   1.801   2.610  0.1710  0.0147  0.4515
  170ACOH    C210255   4.818   1.897   2.504 -0.4136 -0.1837 -0.5124
  170ACOH    O110256   4.805   1.877   2.385  0.1330  0.1528 -0.0348
  170ACOH    C110257   4.841   2.029   2.568 -0.1142  0.2424 -0.2127
  170ACOH    H110258   4.785   2.033   2.662  0.5074  2.7720  0.0662
  170ACOH    H210259   4.801   2.106   2.503 -1.8024 -1.1135 -0.8452
  170ACOH    H310260   4.942   2.051   2.602 -0.3823 -0.0702  0.8044
  171ACOH    H410261   2.839   5.832   1.391 -3.4910  1.3811 -1.2086
  171ACOH    O210262   2.787   5.761   1.432 -0.0941 -0.4651  0.0882
  171ACOH    C210263   2.765   5.663   1.338 -0.2138 -0.1624  0.0225
  171ACOH    O110264   2.802   5.663   1.226 -0.0012  0.0512 -0.0399
  171ACOH    C110265   2.675   5.564   1.407  0.4831  0.6539 -0.3311
  171ACOH    H110266   2.728   5.505   1.481 -1.8446 -2.0991 -0.7885
  171ACOH    H210267   2.621   5.505   1.333 -0.2637  0.3908  0.4315
  171ACOH    H310268   2.608   5.625   1.467  1.6859  1.7362 -0.0592
  172ACOH    H410269   3.886   4.722   2.586  1.0328  0.7565  0.0728
  172ACOH    O210270   3.898   4.761   2.675 -0.1826  0.5611  0.3249
  172ACOH    C210271   3.780   4.780   2.736 -0.3413  0.1140  0.5408
  172ACOH    O110272   3.672   4.766   2.686 -0.0460 -0.3957  0.0939
  172ACOH    C110273   3.799   4.840   2.869  0.3219  0.1779 -0.8166
  172ACOH    H110274   3.699   4.863   2.906 -1.0914 -3.9922 -1.7723
  172ACOH    H210275   3.846   4.938   2.857  0.0167  0.1211 -2.4725
  172ACOH    H310276   3.846   4.773   2.941 -3.2839 -2.4454 -0.7474
  173ACOH    H410277   4.167   8.251   1.093  1.2218 -2.5750  0.7781
  173ACOH    O210278   4.245   8.299   1.060 -0.4075 -0.1399  0.3497
  173ACOH    C210279   4.278   8.399   1.145 -0.3093 -0.0947  0.3205
  173ACOH    O110280   4.228   8.421   1.251 -0.6920 -0.5998 -0.2321
  173ACOH    C110281   4.391   8.473   1.088 -0.0375 -0.3209 -0.2824
  173ACOH    H110282   4.372   8.581   1.089 -2.1264 -0.6762  1.0923
  173ACOH    H210283   4.417   8.441   0.987  0.3460  1.3154 -0.7249
  173ACOH    H310284   4.477   8.463   1.154 -1.5465  0.0580  1.7930
  174SOL     OW10285   2.915   2.563   0.629  0.4141  0.0523 -0.1745
  174SOL    HW110286   3.002   2.609   0.607  0.8998 -0.4402  0.6754
  174SOL    HW210287   2.913   2.542   0.727  0.0932 -1.5197 -0.5084
  175SOL     OW10288   3.905   3.376   0.733 -0.3665 -0.7597 -0.1934
  175SOL    HW110289   3.995   3.408   0.703 -1.0401  0.2414 -1.2008
  175SOL    HW210290   3.910   3.280   0.760  0.7822 -0.9986 -1.2311
  176SOL     OW10291   3.128   2.413   2.573 -0.2707 -0.1610 -0.1186
  176SOL    HW110292   3.217   2.450   2.598 -1.0285  1.1179  0.7413
  176SOL    HW210293   3.140   2.338   2.508  1.4670 -0.4695  0.5318
  177SOL     OW10294   4.028   3.024   1.906 -0.0727 -0.9244 -0.7861
  177SOL    HW110295   4.118   3.040   1.946 -0.3072 -0.6625 -0.3694
  177SOL    HW210296   3.989   2.940   1.943 -0.1907 -0.8032 -0.6340
  178SOL     OW10297   3.274   3.543   2.075  0.3580 -0.0284 -0.1512
  178SOL    HW110298   3.202   3.493   2.125 -1.0904 -0.0241 -2.1784
  178SOL    HW210299   3.349   3.564   2.138  0.0549 -2.8972  1.2385
  179SOL     OW10300   3.475   1.895   1.858 -0.2032  0.0749 -0.0183
  179SOL    HW110301   3.457   1.915   1.762  0.2580 -0.4451 -0.2103
  179SOL    HW210302   3.567   1.859   1.869  0.6877  2.4901  0.9232
  180SOL     OW10303   4.004   3.265   0.118  0.3278 -0.1380 -0.1639
  180SOL    HW110304   3.971   3.171   0.109  1.7822 -0.7109  0.3316
  180SOL    HW210305   4.069   3.285   0.045  0.8044  0.1363  0.3265
  181SOL     OW10306   3.924   8.698   0.114 -0.3364  0.0994  0.5610
  181SOL    HW110307   4.024   8.696   0.119 -0.2930  0.1573 -0.3210
  181SOL    HW210308   3.886   8.639   0.186  0.2492  3.0375  3.4072
  182SOL     OW10309   2.902   2.070   1.996 -0.3670 -0.3089  0.3979
  182SOL    HW110310   2.832   2.068   2.067 -1.0445 -0.2371 -0.2697
  182SOL    HW210311   2.868   2.027   1.913  0.0947  0.4319 -0.1830
  183SOL     OW10312   2.822   1.175   2.558  0.0008  0.1460  0.2647
  183SOL    HW110313   2.792   1.181   2.463  1.8657  0.5962 -0.3121
  183SOL    HW210314   2.798   1.086   2.595  0.4313 -0.5169 -1.0353
  184SOL     OW10315   3.979   5.217   1.098 -0.1234 -0.0988  0.9910
  184SOL    HW110316   3.961   5.241   1.194  2.2703  3.9339  0.5702
  184SOL    HW210317   4.070   5.177   1.091  0.8560  2.1902  0.1277
  185SOL     OW10318   3.781   4.549   0.208 -0.0548  0.7424  0.5760
  185SOL    HW110319   3.757   4.587   0.297 -0.8072  1.8850 -0.0917
  185SOL    HW210320   3.757   4.452   0.205 -0.5891  0.8433  1.4050
  186SOL     OW10321   2.793   4.578   2.323 -0.5239 -0.3654 -0.3222
  186SOL    HW110322   2.768   4.674   2.314 -1.1808 -0.4923  0.1361
  186SOL    HW210323   2.767   4.529   2.239  1.6777  0.2441 -1.4088
  187SOL     OW10324   3.102   0.791   0.060  0.4132 -0.0646  0.8863
  187SOL    HW110325   3.058   0.818   0.146  0.8399  2.4814  0.3282
  187SOL    HW210326   3.195   0.825   0.058  0.7923 -1.1219 -0.1206
  188SOL     OW10327   3.141   3.431   0.761  0.2572 -0.2371 -0.1206
  188SOL    HW110328   3.120   3.334   0.775  0.7309 -0.5985 -1.6932
  188SOL    HW210329   3.120   3.455   0.666 -3.9850  2.3485  1.3618
  189SOL     OW10330   3.592   0.926   1.995  0.4781 -0.2540  0.2879
  189SOL    HW110331   3.519   0.861   1.974  0.7393 -0.0821 -1.2155
  189SOL    HW210332   3.587   1.004   1.933  1.5522  0.0802  0.5952
  190SOL     OW10333   2.559   8.044   1.524  0.4277 -0.1623  0.5031
  190SOL    HW110334   2.462   8.054   1.507  0.3549  1.3051  1.6879
  190SOL    HW210335   2.575   7.959   1.575 -0.4558  0.4888  1.9060
  191SOL     OW10336   4.311   2.472   2.776 -0.0596  0.0193  0.2085
  191SOL    HW110337   4.267   2.540   2.833  1.0821  0.8027  0.1717
  191SOL    HW210338   4.393   2.438   2.821 -0.2805 -0.8808 -0.0492
  192SOL     OW10339   3.567   2.833   0.551  0.1653  0.0829  0.9310
  192SOL    HW110340   3.611   2.874   0.472  0.9632  1.7526  2.2278
  192SOL    HW210341   3.634   2.820   0.624 -0.3125 -2.4997  0.9562
  193SOL     OW10342   2.738   9.286   0.572  0.8610 -0.2677  0.1286
  193SOL    HW110343   2.706   9.233   0.493  1.0867 -0.4784  0.1771
  193SOL    HW210344   2.792   9.364   0.540 -1.7412  1.5212 -0.0700
  194SOL     OW10345   3.346   8.564   0.379 -0.0620 -0.1949  0.0334
  194SOL    HW110346   3.354   8.568   0.479 -0.7790 -1.6779  0.1686
  194SOL    HW210347   3.259   8.521   0.355 -1.7090  3.6397 -1.2615
  195SOL     OW10348   3.572   4.563   2.366 -0.2357  0.0116 -0.6170
  195SOL    HW110349   3.583   4.518   2.455  2.1827  1.6551 -0.0411
  195SOL    HW210350   3.656   4.552   2.313 -0.8646  0.9677 -1.8293
  196SOL     OW10351   2.899   4.513   0.403  0.1931 -0.1160  0.2123
  196SOL    HW110352   2.946   4.599   0.426  0.0849 -0.2065  0.7795
  196SOL    HW210353   2.811   4.534   0.360  0.8082  0.0533 -0.9739
  197SOL     OW10354   3.843   0.221   2.258  0.1626  0.0194  0.2772
  197SOL    HW110355   3.898   0.264   2.330 -0.8445  0.3250  0.8805
  197SOL    HW210356   3.799   0.139   2.294  2.1010 -1.5377 -0.8877
  198SOL     OW10357   3.108   3.968   1.623  0.4070  0.5751  0.3058
  198SOL    HW110358   3.083   4.049   1.569  2.1774  0.9229 -0.0056
  198SOL    HW210359   3.139   3.996   1.714  3.9707  0.5380 -0.8210
  199SOL     OW10360   3.923   0.956   2.608  0.2290 -0.8117 -0.1084
  199SOL    HW110361   3.928   1.050   2.642  0.6395 -0.2275 -1.7160
  199SOL    HW210362   3.831   0.939   2.572  0.4981 -0.6413 -0.8783
  200SOL     OW10363   3.625   8.778   0.033 -0.2972  0.1765  0.2153
  200SOL    HW110364   3.591   8.759  -0.060 -0.9556  2.8894 -0.1544
  200SOL    HW210365   3.681   8.702   0.064 -0.3527 -0.9464 -2.2838
  201SOL     OW10366   3.280   7.625   0.047 -0.1018 -0.6264 -0.4989
  201SOL    HW110367   3.295   7.721   0.072  0.4786 -1.1780  1.3536
  201SOL    HW210368   3.182   7.610   0.033 -0.0362  0.6169 -2.5089
  202SOL     OW10369   2.252   7.356   1.760  0.3871  0.0136  0.2695
  202SOL    HW110370   2.220   7.268   1.725 -0.3295  0.6693 -0.7675
  202SOL    HW210371   2.269   7.350   1.858  1.6140 -1.6436 -0.0232
  203SOL     OW10372   4.248   3.931   1.326 -0.5083 -0.3279  0.1850
  203SOL    HW110373   4.288   3.864   1.264 -1.1669 -0.1343 -0.4640
  203SOL    HW210374   4.202   3.884   1.401 -0.2431 -0.5817  0.1873
  204SOL     OW10375   2.942   6.330   1.235  0.9043 -0.2087  0.0052
  204SOL    HW110376   2.953   6.378   1.322  1.7365  0.2288 -0.3368
  204SOL    HW210377   3.001   6.250   1.232  1.9909  0.6125 -0.7460
  205SOL     OW10378   3.207   4.628   0.270 -0.2128  0.2320  0.0262
  205SOL    HW110379   3.139   4.681   0.320 -1.2157  1.2013 -2.3010
  205SOL    HW210380   3.169   4.539   0.245 -0.0512  0.1262  0.1578
  206SOL     OW10381   2.443   7.094   0.121  0.0429  0.2753 -0.4565
  206SOL    HW110382   2.409   7.188   0.128  2.6461  1.3056 -1.2074
  206SOL    HW210383   2.495   7.070   0.203 -1.7534 -1.0176  0.3380
  207SOL     OW10384   3.956   0.964   0.155 -0.4435  0.0944  0.0142
  207SOL    HW110385   3.983   0.868   0.164 -0.4703  0.0934  0.0871
  207SOL    HW210386   3.953   1.006   0.245  2.5106  0.9650 -0.2414
  208SOL     OW10387   3.399   5.233   0.918 -0.2915  0.6859 -0.3973
  208SOL    HW110388   3.372   5.286   0.838  0.8077  2.6916  0.5315
  208SOL    HW210389   3.374   5.282   1.001  3.2780  1.1631  0.4985
  209SOL     OW10390   3.151   9.792   0.946  0.2492 -0.1017 -0.6795
  209SOL    HW110391   3.145   9.711   0.888  2.2104 -0.1893 -0.7861
  209SOL    HW210392   3.098   9.867   0.904 -1.6678 -1.3223 -0.5181
  210SOL     OW10393   3.337   7.684   1.120 -0.3412 -0.1019  0.0663
  210SOL    HW110394   3.346   7.585   1.131 -0.1458 -0.0547  0.3262
  210SOL    HW210395   3.277   7.720   1.190 -0.2892 -0.0144  0.0663
  211SOL     OW10396   3.091   4.294   2.724  0.0972 -0.0194  0.6525
  211SOL    HW110397   3.146   4.358   2.779 -0.5987 -1.0145  2.5580
  211SOL    HW210398   3.062   4.339   2.640  2.5528  1.0223  0.3248
  212SOL     OW10399   3.080   1.797   2.470  0.1344 -0.3125 -0.1553
  212SOL    HW110400   3.085   1.859   2.548 -0.9522  0.3306 -0.5856
  212SOL    HW210401   3.096   1.703   2.500 -2.4351 -0.3568  1.2275
  213SOL     OW10402   3.466   7.995   0.395  0.4020  0.0886 -0.5964
  213SOL    HW110403   3.385   8.040   0.432  1.6075  0.2855  1.9574
  213SOL    HW210404   3.494   7.921   0.457  1.0382 -1.2651 -2.4539
  214SOL     OW10405   3.822   1.260   1.256 -0.1601 -0.4680 -0.4057
  214SOL    HW110406   3.837   1.312   1.341  2.1285 -2.1509  0.2670
  214SOL    HW210407   3.748   1.195   1.270  1.3686 -1.9792  0.9411
  215SOL     OW10408   2.965   8.214   0.209 -0.2551 -0.9038 -0.3177
  215SOL    HW110409   3.030   8.290   0.216 -1.0320 -0.0666 -1.9606
  215SOL    HW210410   2.973   8.156   0.290 -1.2683  2.2229  2.1274
  216SOL     OW10411   3.966   2.394   0.426  0.0127 -0.7229 -0.4792
  216SOL    HW110412   4.040   2.364   0.366  1.3232  0.5361  0.4804
  216SOL    HW210413   3.891   2.328   0.422  1.6987 -2.6934 -0.4788
  217SOL     OW10414   3.124   8.781   0.885 -0.1365 -0.1765 -0.6712
  217SOL    HW110415   3.096   8.858   0.942  1.2497 -0.4027  0.3484
  217SOL    HW210416   3.086   8.792   0.793 -0.6042  1.3134 -0.3163
  218SOL     OW10417   3.157   3.430   1.499 -0.0085 -0.2426  0.0917
  218SOL    HW110418   3.162   3.358   1.568  1.5502 -1.5105 -1.3018
  218SOL    HW210419   3.226   3.500   1.519  0.9571 -0.9901 -0.5858
  219SOL     OW10420   4.300   3.567   1.398  0.5493 -0.4816 -0.4452
  219SOL    HW110421   4.358   3.644   1.371 -1.9629  1.6979  0.1962
  219SOL    HW210422   4.253   3.532   1.317 -0.7563  0.7669 -0.2417
  220SOL     OW10423   3.178   2.573   0.370 -0.0622  0.5923  0.2511
  220SOL    HW110424   3.262   2.593   0.319  0.0710  2.6775  1.2161
  220SOL    HW210425   3.099   2.603   0.316  0.0316  1.9694  0.8511
  221SOL     OW10426   3.528   3.164   1.487 -0.1166  0.3072 -0.8090
  221SOL    HW110427   3.455   3.190   1.423 -2.4578 -0.2674  1.5294
  221SOL    HW210428   3.614   3.204   1.456 -1.0831 -0.1975 -4.4667
  222SOL     OW10429   3.359   1.597   0.951 -0.4984  0.3702 -0.4472
  222SOL    HW110430   3.439   1.643   0.989 -1.5416  1.1562  0.8307
  222SOL    HW210431   3.313   1.544   1.024 -0.1063 -1.5754 -1.5722
  223SOL     OW10432   2.750   9.943   0.947  0.5275  0.7126  0.4081
  223SOL    HW110433   2.805   9.992   0.879  0.2324  0.1735 -0.2245
  223SOL    HW210434   2.810   9.905   1.018  1.0423 -0.3442 -0.5695
  224SOL     OW10435   3.835   1.826   2.077  0.3288 -0.6130 -0.7016
  224SOL    HW110436   3.780   1.910   2.075  0.2963 -0.6384 -0.9425
  224SOL    HW210437   3.924   1.845   2.117 -0.0423 -0.6859  0.1774
  225SOL     OW10438   3.548   0.500   2.040  0.7028 -0.3024 -0.7591
  225SOL    HW110439   3.643   0.467   2.039  0.6849 -0.4219  0.6494
  225SOL    HW210440   3.545   0.593   2.002  1.5122  0.0153 -0.0696
  226SOL     OW10441   2.780   8.974   0.105 -0.2209  0.7282 -0.3241
  226SOL    HW110442   2.859   8.943   0.052 -1.1222  0.2372 -1.3956
  226SOL    HW210443   2.805   9.057   0.155  0.9528  0.6224 -0.7083
  227SOL     OW10444   3.831   1.598   0.009 -0.0126  0.1062  0.9378
  227SOL    HW110445   3.771   1.671  -0.026 -0.7293 -0.4965  0.8891
  227SOL    HW210446   3.918   1.601  -0.039 -0.8895 -0.5276 -0.7526
  228SOL     OW10447   4.282   8.869   0.703 -0.6241  0.1105 -0.0505
  228SOL    HW110448   4.221   8.868   0.624  0.0091  1.6180 -0.5678
  228SOL    HW210449   4.370   8.830   0.678 -1.6452 -2.9447  0.9483
  229SOL     OW10450   3.824   4.047   1.890 -0.4275 -0.2697  0.1602
  229SOL    HW110451   3.902   4.090   1.936  0.3301 -0.8763 -0.5474
  229SOL    HW210452   3.781   4.114   1.829 -0.3950  0.0308  0.4631
  230SOL     OW10453   3.917   8.153   0.485  0.2785 -0.4853  0.1678
  230SOL    HW110454   4.004   8.181   0.445  0.3666  0.1828  0.8071
  230SOL    HW210455   3.858   8.232   0.497  0.5594 -0.5309  2.0731
  231SOL     OW10456   3.827   1.911   2.616 -0.2436  0.1160 -0.5594
  231SOL    HW110457   3.817   2.009   2.596 -0.7196  0.5992  1.8320
  231SOL    HW210458   3.912   1.896   2.666 -0.8411 -0.4778  0.2928
  232SOL     OW10459   2.822   2.945   0.613  0.3547  0.5769  0.7158
  232SOL    HW110460   2.915   2.912   0.628  1.0266  3.0979  2.4970
  232SOL    HW210461   2.762   2.909   0.685  0.5779  1.1731  1.2151
  233SOL     OW10462   3.012   9.960   0.787 -0.4910  0.3210  0.0363
  233SOL    HW110463   3.041  10.025   0.716  0.2488 -0.2688 -0.1986
  233SOL    HW210464   2.967   9.882   0.744  3.1666 -1.8181 -0.1148
  234SOL     OW10465   3.814   4.380   0.528  0.3069 -0.5451  0.3627
  234SOL    HW110466   3.716   4.370   0.547  0.1587 -0.4114 -0.3214
  234SOL    HW210467   3.842   4.474   0.546  0.9049 -1.2222  3.2014
  235SOL     OW10468   3.719   1.757   1.816 -0.0034 -0.4839  0.2277
  235SOL    HW110469   3.802   1.726   1.863 -1.4342  0.2664  3.3841
  235SOL    HW210470   3.741   1.781   1.721  3.6504  0.9874  1.3691
  236SOL     OW10471   3.913   2.495   1.053  0.1029  0.2595 -0.6565
  236SOL    HW110472   3.884   2.485   1.147 -1.7898 -0.3058 -1.2895
  236SOL    HW210473   3.938   2.406   1.015  2.7525  0.7267 -0.1219
  237SOL     OW10474   2.803   9.159   2.383 -0.2407  0.2944  0.1491
  237SOL    HW110475   2.819   9.085   2.318 -1.6353 -0.7081  0.9230
  237SOL    HW210476   2.887   9.178   2.433  0.9186  1.2441 -2.0782
  238SOL     OW10477   2.300   7.627   1.743 -0.4565  0.4842 -0.2637
  238SOL    HW110478   2.246   7.710   1.757  0.2081  0.5728  1.9282
  238SOL    HW210479   2.240   7.547   1.746 -0.3125  0.4057  4.2766
  239SOL     OW10480   3.940   3.549   0.140  0.3419  0.2962  0.2580
  239SOL    HW110481   3.842   3.550   0.120  0.1087 -0.3746  1.3203
  239SOL    HW210482   3.978   3.461   0.111  1.0141  1.2429 -1.8520
  240SOL     OW10483   2.799   7.974   1.865 -0.4285  0.6165  0.2849
  240SOL    HW110484   2.885   7.966   1.813 -0.5176 -1.6564  0.4197
  240SOL    HW210485   2.818   7.965   1.962 -0.7254  0.9386  0.3726
  241SOL     OW10486   2.620   9.053   2.767 -0.2173  0.1548  0.2868
  241SOL    HW110487   2.645   9.053   2.864 -0.4481 -0.5547  0.3530
  241SOL    HW210488   2.694   9.012   2.713 -1.8237 -3.3957  0.6614
  242SOL     OW10489   3.619   2.545   0.316 -0.2709 -0.2856  0.5808
  242SOL    HW110490   3.682   2.553   0.393 -0.1418 -1.3462  0.5971
  242SOL    HW210491   3.669   2.521   0.233  0.1065  4.4534 -0.7156
  243SOL     OW10492   2.557   6.399   0.597 -0.0315 -0.1596  0.9548
  243SOL    HW110493   2.649   6.365   0.577  0.5699  2.5815 -1.4354
  243SOL    HW210494   2.541   6.396   0.695  3.1188  0.4318  1.5548
  244SOL     OW10495   2.713   6.098   1.253 -0.2383 -0.2740  0.7298
  244SOL    HW110496   2.782   6.063   1.316  0.3670  1.7737  1.2460
  244SOL    HW210497   2.660   6.171   1.297  0.4031  1.4207 -1.1763
  245SOL     OW10498   3.170   9.599   0.730  0.3214 -0.0980 -0.2429
  245SOL    HW110499   3.206   9.677   0.680 -0.2615 -0.3152 -1.0126
  245SOL    HW210500   3.219   9.516   0.701  0.7839 -0.0613  0.4066
  246SOL     OW10501   4.154   3.512   0.666 -0.4523 -0.2141  0.5552
  246SOL    HW110502   4.238   3.553   0.702 -0.3641 -0.9272  1.1706
  246SOL    HW210503   4.128   3.559   0.582  0.6305 -0.0758  0.2865
  247SOL     OW10504   3.336   7.375   0.157 -0.2849  0.2921 -0.6986
  247SOL    HW110505   3.349   7.374   0.257 -1.4481  0.0256 -0.5450
  247SOL    HW210506   3.338   7.469   0.124  3.3104  0.2284 -0.8739
  248SOL     OW10507   2.501   7.595   0.119 -0.7691 -0.2516  0.1553
  248SOL    HW110508   2.521   7.533   0.195 -0.6076 -0.2331  0.1279
  248SOL    HW210509   2.485   7.542   0.036 -3.1768 -0.4038  0.6768
  249SOL     OW10510   3.207   4.075   1.869  0.2915  0.1029  0.5166
  249SOL    HW110511   3.273   4.112   1.803  0.3854  0.7238  0.9549
  249SOL    HW210512   3.223   4.116   1.959 -0.0337 -0.5128  0.8580
  250SOL     OW10513   3.695   3.197   2.556  0.0024 -0.1037 -0.0973
  250SOL    HW110514   3.647   3.240   2.479  0.7403  1.6612  0.4079
  250SOL    HW210515   3.689   3.255   2.637  1.5782 -0.6330  0.4330
  251SOL     OW10516   3.275   5.352   2.273  0.5657 -0.7919  0.7361
  251SOL    HW110517   3.299   5.449   2.273  0.4144 -0.7534  0.5315
  251SOL    HW210518   3.357   5.297   2.257  0.7991 -0.7391  1.7299
  252SOL     OW10519   3.807   4.615   2.211  0.5811 -0.6944  0.2019
  252SOL    HW110520   3.792   4.712   2.193  1.5271 -0.7972 -1.2086
  252SOL    HW210521   3.889   4.584   2.162  0.1788 -2.2410  0.4792
  253SOL     OW10522   3.236   4.031   0.115  0.2835 -0.7716 -0.0284
  253SOL    HW110523   3.148   4.046   0.068 -0.5946 -2.1182  1.1256
  253SOL    HW210524   3.278   3.947   0.079 -0.2089 -1.5956  1.2787
  254SOL     OW10525   4.547   4.103   0.864  0.1384  0.2132  0.2193
  254SOL    HW110526   4.586   4.011   0.855 -0.1892 -0.0398  1.3659
  254SOL    HW210527   4.503   4.112   0.953 -0.4671  1.2440 -0.1789
  255SOL     OW10528   3.595   1.032   1.212  0.0572  0.4616  0.7086
  255SOL    HW110529   3.588   0.997   1.305  2.2218  0.8935  1.0587
  255SOL    HW210530   3.612   0.957   1.149  0.0058  0.3344  0.8468
  256SOL     OW10531   3.450   4.830   0.104 -0.0773 -0.0792 -0.2360
  256SOL    HW110532   3.489   4.907   0.154 -1.7715  0.9090 -0.4155
  256SOL    HW210533   3.350   4.837   0.104 -0.2270 -1.8946 -0.8604
  257SOL     OW10534   3.604   2.712   1.761 -0.3601  0.7944  0.1419
  257SOL    HW110535   3.561   2.637   1.811  1.6582 -1.1145 -0.9092
  257SOL    HW210536   3.590   2.700   1.663  0.3583  1.5326 -0.0639
  258SOL     OW10537   3.740   9.591   0.245  0.2275  0.2595 -0.3810
  258SOL    HW110538   3.641   9.601   0.251  0.1220 -0.1849 -1.2800
  258SOL    HW210539   3.768   9.591   0.149  1.2625  1.9013 -0.1065
  259SOL     OW10540   2.093   7.862   1.770 -0.6154  0.4494 -0.6129
  259SOL    HW110541   2.031   7.892   1.842  0.4689 -0.6678  0.8196
  259SOL    HW210542   2.093   7.929   1.696 -1.7320  1.6256  0.4270
  260SOL     OW10543   2.722   2.792   2.057 -0.1889  0.7277 -0.3589
  260SOL    HW110544   2.673   2.705   2.051  1.1505  0.0245 -1.3244
  260SOL    HW210545   2.751   2.808   2.151 -1.3375  0.6366  0.0163
  261SOL     OW10546   3.836   9.944   0.055 -0.0380  0.0815 -0.2792
  261SOL    HW110547   3.862  10.035   0.022 -3.1820  1.3277  0.5728
  261SOL    HW210548   3.856   9.937   0.153  2.4260 -1.0322 -0.8228
  262SOL     OW10549   2.202   9.111   0.271 -0.0251 -0.1582 -0.2777
  262SOL    HW110550   2.105   9.085   0.275 -0.2191  0.6670  0.9888
  262SOL    HW210551   2.243   9.076   0.187 -1.4019 -0.5988 -0.7839
  263SOL     OW10552   3.120   8.300   1.379 -0.3246 -0.6309  0.1774
  263SOL    HW110553   3.036   8.348   1.405 -0.1885 -0.6522  0.6656
  263SOL    HW210554   3.147   8.239   1.454  0.5291 -0.0788  0.3158
  264SOL     OW10555   3.555   9.385   2.376 -0.5256 -0.0058  0.1834
  264SOL    HW110556   3.532   9.386   2.473 -0.3861  1.6890  0.2274
  264SOL    HW210557   3.550   9.292   2.341 -3.5685 -0.2327  1.1027
  265SOL     OW10558   2.792   9.553   0.537 -0.0445  0.2044 -0.0494
  265SOL    HW110559   2.694   9.546   0.514 -0.8197  2.5284  2.3017
  265SOL    HW210560   2.837   9.611   0.469 -0.3893 -0.4386 -0.8422
  266SOL     OW10561   3.729   2.883   1.472 -0.2242 -0.3424 -0.2010
  266SOL    HW110562   3.651   2.820   1.462 -1.5182  1.2216 -0.1423
  266SOL    HW210563   3.701   2.975   1.446  1.8910  0.0756 -1.1130
  267SOL     OW10564   3.320   2.156   0.171 -0.3792  0.1903 -0.4049
  267SOL    HW110565   3.238   2.151   0.228  2.1723  0.4384  3.4780
  267SOL    HW210566   3.358   2.064   0.158 -0.7995  0.1646 -1.5405
  268SOL     OW10567   2.769   7.534   0.295  0.1753  0.0678 -0.2744
  268SOL    HW110568   2.764   7.614   0.236  0.9914 -0.0560 -0.5256
  268SOL    HW210569   2.857   7.533   0.343  0.2447 -0.7613 -0.3992
  269SOL     OW10570   3.382   7.804   0.884 -0.1758  0.1810  0.3668
  269SOL    HW110571   3.373   7.769   0.977 -3.4286  1.9072  0.7828
  269SOL    HW210572   3.402   7.902   0.887 -0.0608  0.2009 -0.7622
  270SOL     OW10573   3.531   0.460   0.121 -0.2292 -0.4638 -0.5187
  270SOL    HW110574   3.515   0.362   0.115 -2.6088 -0.2164  1.2355
  270SOL    HW210575   3.450   0.505   0.158  0.3492  2.3326 -2.4820
  271SOL     OW10576   3.971   2.886   2.698 -0.4305 -0.0179 -0.2793
  271SOL    HW110577   4.007   2.793   2.688 -0.0172  0.2859 -1.6586
  271SOL    HW210578   3.951   2.903   2.795 -0.9210 -1.6865 -0.0677
  272SOL     OW10579   2.494   7.220   2.719  0.2343 -0.1579 -0.0039
  272SOL    HW110580   2.457   7.152   2.783  0.0314  0.1961  0.2560
  272SOL    HW210581   2.587   7.193   2.692  0.2444 -0.4164  0.2849
  273SOL     OW10582   2.870   8.468   2.597 -0.1596  0.2041 -0.1195
  273SOL    HW110583   2.911   8.534   2.534 -1.0892 -0.5349 -1.5092
  273SOL    HW210584   2.934   8.451   2.672  0.4795  1.9649 -0.2284
  274SOL     OW10585   3.008   1.074   1.524 -0.1338 -0.2936  0.3109
  274SOL    HW110586   2.945   1.133   1.475  0.3669 -1.1755 -1.4223
  274SOL    HW210587   3.059   1.018   1.459  1.5826 -0.4444  1.7602
  275SOL     OW10588   4.496   3.538   1.035 -0.4344  0.7967  0.3235
  275SOL    HW110589   4.408   3.560   0.992  0.3097  2.6612 -0.2785
  275SOL    HW210590   4.493   3.444   1.070 -1.5134 -0.3679 -2.6724
  276SOL     OW10591   3.998   3.720   1.027 -0.2365 -0.0883  0.1096
  276SOL    HW110592   3.958   3.747   1.115 -1.7842  0.1168 -0.6293
  276SOL    HW210593   3.928   3.674   0.972  1.0895 -1.4204 -0.4927
  277SOL     OW10594   4.145   1.105   2.851  0.1150 -0.0127 -0.2600
  277SOL    HW110595   4.089   1.043   2.906  0.5864 -0.0889  0.1322
  277SOL    HW210596   4.085   1.161   2.793 -0.2652 -1.3379 -1.1546
  278SOL     OW10597   2.730   9.922   2.259  0.1743  0.4899 -0.1927
  278SOL    HW110598   2.697   9.839   2.214 -1.7857  0.2691  1.5772
  278SOL    HW210599   2.828   9.913   2.279 -0.3157 -1.9695  1.2355
  279SOL     OW10600   4.800   3.647   0.088 -0.0350 -0.4073 -0.4063
  279SOL    HW110601   4.810   3.730   0.033 -0.3236  0.5901  1.0294
  279SOL    HW210602   4.799   3.671   0.185 -1.4930 -1.9459 -0.0153
  280SOL     OW10603   4.427   1.844   1.052  0.0195  0.5759 -0.0228
  280SOL    HW110604   4.393   1.919   1.108 -2.2666  0.0827 -0.7336
  280SOL    HW210605   4.473   1.881   0.971  0.2134  1.2196  0.3741
  281SOL     OW10606   4.302   3.296   2.822 -0.2781  0.3085 -0.0154
  281SOL    HW110607   4.323   3.390   2.845 -1.8148  0.5839  0.3563
  281SOL    HW210608   4.328   3.278   2.727 -0.7496  1.3575 -0.3536
  282SOL     OW10609   3.489   0.893   1.444  0.3350 -1.4736 -0.5739
  282SOL    HW110610   3.437   0.946   1.511 -0.6474 -0.3560 -2.2146
  282SOL    HW210611   3.478   0.795   1.465  0.3360 -1.1419  1.1059
  283SOL     OW10612   4.095   3.114   2.622  0.3420  0.1844  0.4509
  283SOL    HW110613   4.183   3.134   2.580  0.1350  1.7108  0.7013
  283SOL    HW210614   4.093   3.019   2.653  2.0653  0.2761  0.8801
  284SOL     OW10615   2.667   4.473   2.697  0.5090  0.0080  0.1798
  284SOL    HW110616   2.700   4.565   2.717 -0.4370  0.7347 -1.4483
  284SOL    HW210617   2.589   4.479   2.635 -0.1088 -1.8610  0.7396
  285SOL     OW10618   3.763   1.070   1.474 -0.1963  0.1689  0.3457
  285SOL    HW110619   3.848   1.044   1.520  1.1490  1.2714 -1.4355
  285SOL    HW210620   3.693   1.001   1.491  1.0087 -0.7015  1.9309
  286SOL     OW10621   4.817   1.848   0.853  0.3199 -0.2422  0.1495
  286SOL    HW110622   4.847   1.753   0.864  1.3086  0.1611  1.0609
  286SOL    HW210623   4.844   1.881   0.763  2.0427 -0.1115  0.6954
  287SOL     OW10624   3.515   8.430   1.199  0.8081  0.0936  0.6063
  287SOL    HW110625   3.607   8.451   1.232  1.2158  1.3587 -1.2560
  287SOL    HW210626   3.456   8.509   1.213  0.9126  0.5472 -1.3493
  288SOL     OW10627   3.412   8.628   1.849 -0.1650  0.2581  0.1215
  288SOL    HW110628   3.451   8.696   1.787 -0.9914 -0.9764 -1.8135
  288SOL    HW210629   3.330   8.588   1.808 -0.3441 -1.1054  1.7166
  289SOL     OW10630   3.146   3.980   2.661 -0.1398  0.9093  0.6013
  289SOL    HW110631   3.200   3.919   2.719 -1.3876  0.2902  1.1319
  289SOL    HW210632   3.153   4.074   2.696 -0.2046  0.6751  1.2479
  290SOL     OW10633   3.797   0.120   0.849  0.3015 -0.3232  0.1682
  290SOL    HW110634   3.742   0.043   0.883  0.7873 -0.6140  0.2924
  290SOL    HW210635   3.845   0.163   0.926 -0.3354  0.4028  0.1717
  291SOL     OW10636   3.967   0.817   2.064 -0.3319  0.7863  0.0860
  291SOL    HW110637   3.901   0.872   2.115 -1.2107  0.0526 -0.2451
  291SOL    HW210638   4.011   0.752   2.125 -1.0558  0.2168  0.0104
  292SOL     OW10639   2.326   8.589   0.280 -0.4908 -0.2978  0.4897
  292SOL    HW110640   2.231   8.556   0.281 -0.4893 -0.3707 -1.2237
  292SOL    HW210641   2.368   8.567   0.192  1.2825 -0.7111  1.4294
  293SOL     OW10642   2.483   8.017   1.840  0.3292  0.0046  0.1957
  293SOL    HW110643   2.460   7.985   1.932 -0.2916 -0.9300 -0.2730
  293SOL    HW210644   2.583   8.023   1.831  0.4075 -0.4000  0.7612
  294SOL     OW10645   4.664   4.323   0.698 -0.2133  0.0710  0.5390
  294SOL    HW110646   4.681   4.283   0.608 -1.1338  1.6099 -0.3291
  294SOL    HW210647   4.648   4.250   0.764  0.9355 -1.0930 -0.4339
  295SOL     OW10648   3.122   2.810   0.844 -0.0739 -0.5903 -0.5630
  295SOL    HW110649   3.028   2.781   0.862 -0.4526  0.3496 -1.0190
  295SOL    HW210650   3.125   2.868   0.763  0.7772  0.1232 -0.0381
  296SOL     OW10651   3.352   7.411   0.674 -0.0803  0.3000 -0.5090
  296SOL    HW110652   3.452   7.403   0.676 -0.0734 -0.0224 -1.6032
  296SOL    HW210653   3.313   7.361   0.750  0.6606  1.6072  0.7524
  297SOL     OW10654   2.263   7.544   0.325  0.2456  0.2376  0.1317
  297SOL    HW110655   2.279   7.607   0.250  0.7502  0.0385  0.0710
  297SOL    HW210656   2.333   7.472   0.325 -0.5956 -0.5867 -0.0759
  298SOL     OW10657   3.705   3.373   2.790 -0.5396 -0.2093  0.1602
  298SOL    HW110658   3.801   3.351   2.771 -0.6415 -1.2147  0.7558
  298SOL    HW210659   3.680   3.339   2.881 -1.4649  0.0216  0.0001
  299SOL     OW10660   3.121   1.776   0.451  0.2841 -0.4722  0.1087
  299SOL    HW110661   3.073   1.745   0.370 -2.1760  0.0733  1.3188
  299SOL    HW210662   3.082   1.862   0.483  1.8805 -0.1511  1.3020
  300SOL     OW10663   3.335   0.382   0.985 -0.2205 -0.4843  0.5136
  300SOL    HW110664   3.314   0.288   0.957  0.9884 -1.0615  1.4935
  300SOL    HW210665   3.361   0.383   1.082  1.7939  0.5407  0.0044
  301SOL     OW10666   3.709   5.291   1.114 -0.3007 -0.3972 -0.5193
  301SOL    HW110667   3.658   5.237   1.047 -2.7401  0.8156  0.3156
  301SOL    HW210668   3.805   5.262   1.114 -0.9375 -2.6201 -2.2171
  302SOL     OW10669   3.123   0.050   1.395 -0.2245  0.0072  0.6052
  302SOL    HW110670   3.193   0.034   1.464 -1.0801 -1.5185  1.1369
  302SOL    HW210671   3.119  -0.028   1.333 -1.3793  0.1231  0.5228
  303SOL     OW10672   4.879   2.849   0.998 -0.2498 -1.0924  0.7247
  303SOL    HW110673   4.938   2.930   0.992 -1.7257 -0.1412 -1.9205
  303SOL    HW210674   4.934   2.770   1.024  1.4691  0.4983  2.0532
  304SOL     OW10675   3.706   3.619   0.038 -0.6061 -0.4436 -0.0732
  304SOL    HW110676   3.717   3.538  -0.020 -0.7877 -0.0665 -0.6379
  304SOL    HW210677   3.715   3.702  -0.018 -1.0788 -0.0777  0.3852
  305SOL     OW10678   3.632   4.246   1.026  0.0557  0.0868 -0.5022
  305SOL    HW110679   3.668   4.224   0.935 -1.6856  0.4064 -1.2959
  305SOL    HW210680   3.552   4.305   1.016 -0.2381  0.0019  1.2506
  306SOL     OW10681   2.219   7.867   2.806 -0.6454  0.0114  0.0718
  306SOL    HW110682   2.312   7.898   2.826  0.0656  0.7425 -3.9695
  306SOL    HW210683   2.215   7.767   2.817  0.4849  0.0059  0.5987
  307SOL     OW10684   3.901   3.127   0.885 -0.0238  0.1453  0.3809
  307SOL    HW110685   3.971   3.066   0.922 -1.1786 -0.7767  1.0698
  307SOL    HW210686   3.842   3.159   0.959 -2.5271 -1.9315 -0.6445
  308SOL     OW10687   3.053   3.320   2.435  0.4812  0.0734 -0.1327
  308SOL    HW110688   3.094   3.271   2.512  0.3963  2.3192  1.3894
  308SOL    HW210689   3.108   3.305   2.353  0.9083 -1.8601  0.4758
  309SOL     OW10690   3.566   1.827   0.705 -0.0945 -0.4147  0.4826
  309SOL    HW110691   3.560   1.761   0.780 -1.0148 -1.5506 -0.5611
  309SOL    HW210692   3.499   1.803   0.635  0.0512  1.2349 -0.2383
  310SOL     OW10693   4.304   1.027   1.444 -0.5506  0.3688  0.0272
  310SOL    HW110694   4.210   1.026   1.410 -0.8788 -0.9081  0.9152
  310SOL    HW210695   4.365   1.062   1.373 -1.6190  0.6747 -0.7567
  311SOL     OW10696   2.897   9.595   1.143  0.2036 -0.3467 -0.4864
  311SOL    HW110697   2.960   9.552   1.207  1.0102 -0.2030 -1.1690
  311SOL    HW210698   2.842   9.663   1.191  1.4368  0.4085 -0.1166
  312SOL     OW10699   3.796   0.971   2.177  0.7844  0.5167  0.1747
  312SOL    HW110700   3.811   1.069   2.183 -2.6374  1.0261  1.7256
  312SOL    HW210701   3.721   0.953   2.113 -0.1567 -0.8801  1.6337
  313SOL     OW10702   3.331   1.601   1.910  0.4795 -1.1028  0.1779
  313SOL    HW110703   3.365   1.564   1.996 -0.1507 -2.2923 -0.0772
  313SOL    HW210704   3.406   1.647   1.862  0.9204 -0.7797  1.1783
  314SOL     OW10705   2.581   9.950   0.135 -0.7388  0.5369 -0.3042
  314SOL    HW110706   2.597  10.001   0.051 -1.1888  0.7385 -0.2688
  314SOL    HW210707   2.627   9.996   0.212  0.8037 -0.3759 -0.6556
  315SOL     OW10708   3.046   6.315   1.512 -0.3466 -0.5317 -0.2985
  315SOL    HW110709   3.094   6.235   1.548  1.0102  1.1793  1.8651
  315SOL    HW210710   2.964   6.333   1.567 -0.8133 -0.6201 -0.9636
  316SOL     OW10711   4.229   3.206   1.706  0.2208  0.7597  0.1860
  316SOL    HW110712   4.201   3.139   1.776 -3.7828  1.3401 -0.7746
  316SOL    HW210713   4.255   3.157   1.623 -2.4091  0.3081 -0.4175
  317SOL     OW10714   3.965   9.441   2.406 -0.0979 -0.1575 -0.0135
  317SOL    HW110715   3.898   9.411   2.338  1.2518  1.1017 -1.9451
  317SOL    HW210716   3.988   9.537   2.389  1.4497 -0.2997  1.2312
  318SOL     OW10717   2.849   9.081   0.736 -0.6921  0.4039 -0.0737
  318SOL    HW110718   2.790   9.121   0.666  0.7851  2.6044 -0.1174
  318SOL    HW210719   2.937   9.056   0.695 -0.8686 -1.0004  0.3903
  319SOL     OW10720   3.359   0.798   0.548  0.4911  0.7411 -0.0003
  319SOL    HW110721   3.437   0.843   0.592  1.3792 -1.5672  0.8676
  319SOL    HW210722   3.298   0.762   0.619  0.2535 -0.1846 -0.6684
  320SOL     OW10723   3.947   9.468   0.405  0.1265  0.0405  0.7634
  320SOL    HW110724   3.854   9.500   0.387 -0.2561 -1.3986  0.1303
  320SOL    HW210725   4.012   9.543   0.391 -0.8119  0.6962 -0.0717
  321SOL     OW10726   3.136   1.152   2.513  0.0258  0.4392 -0.2771
  321SOL    HW110727   3.205   1.106   2.570  0.3024  0.7071 -0.3903
  321SOL    HW210728   3.046   1.142   2.555  0.1103 -0.0506 -0.2089
  322SOL     OW10729   3.961   3.287   0.389 -0.1606  0.3558 -0.0625
  322SOL    HW110730   4.008   3.374   0.406 -0.6056  0.6725 -0.4689
  322SOL    HW210731   3.962   3.266   0.291 -0.6502  0.2366 -0.0425
  323SOL     OW10732   2.226   8.700   0.000  0.5080 -0.4263 -0.4162
  323SOL    HW110733   2.210   8.679  -0.096  1.3520 -1.4256 -0.3542
  323SOL    HW210734   2.158   8.653   0.056 -1.3139  1.8893 -0.6455
  324SOL     OW10735   4.083   3.619   0.391  0.3380  0.3116  0.0727
  324SOL    HW110736   4.070   3.582   0.299  0.3901  0.6342 -0.0676
  324SOL    HW210737   4.007   3.679   0.414  1.1633  1.5801 -0.4426
  325SOL     OW10738   3.608   9.506   1.753 -0.4858 -0.1246  0.4043
  325SOL    HW110739   3.561   9.519   1.840 -0.4409  1.3619  0.2155
  325SOL    HW210740   3.546   9.527   1.678  0.2308  1.1509  0.1420
  326SOL     OW10741   3.975   3.025   2.347 -0.2589  0.3005 -0.5350
  326SOL    HW110742   3.951   3.100   2.286  0.8129  1.5514  0.5659
  326SOL    HW210743   3.969   3.055   2.442 -0.3676 -1.1723 -0.0565
  327SOL     OW10744   4.600   2.931   2.563  0.0641  0.0216 -0.2438
  327SOL    HW110745   4.690   2.898   2.535 -0.3166  1.1767 -3.0002
  327SOL    HW210746   4.530   2.866   2.534 -0.2228  0.5048 -0.6338
  328SOL     OW10747   2.662   9.292   1.837 -0.2071 -0.3264 -0.5677
  328SOL    HW110748   2.593   9.334   1.895  0.0207 -0.1807 -0.3991
  328SOL    HW210749   2.620   9.262   1.751 -0.3529  0.3614 -0.7411
  329SOL     OW10750   3.707   3.916   1.175 -0.4027 -0.4855  0.7537
  329SOL    HW110751   3.613   3.884   1.180 -1.0638  0.8522 -2.0289
  329SOL    HW210752   3.711   4.000   1.121  2.3233 -0.2404  1.2449
  330SOL     OW10753   2.709   4.314   0.989 -0.0748 -0.7579 -0.1226
  330SOL    HW110754   2.668   4.382   0.929 -1.3959 -0.2276  1.3487
  330SOL    HW210755   2.655   4.307   1.074  0.3717 -3.1851  0.0038
  331SOL     OW10756   9.780   7.405   0.389  0.0344 -0.1558  0.0848
  331SOL    HW110757   9.694   7.365   0.422  0.2864 -0.7612  0.0006
  331SOL    HW210758   9.771   7.505   0.389 -0.8239 -0.2201 -0.3161
  332SOL     OW10759   3.068   5.344   0.999 -0.2103  0.6302 -0.4430
  332SOL    HW110760   2.976   5.326   1.035  0.1967  0.4610  0.5217
  332SOL    HW210761   3.061   5.374   0.904 -1.2129 -0.1319 -0.6174
  333SOL     OW10762   3.866   9.530   1.854 -0.3546 -0.3772 -0.1820
  333SOL    HW110763   3.875   9.629   1.845  2.9367 -0.7785 -1.8011
  333SOL    HW210764   3.782   9.501   1.807 -0.2140  1.3975 -1.6244
  334SOL     OW10765   3.576   1.662   1.094 -0.5989  0.4294  0.4306
  334SOL    HW110766   3.544   1.632   1.184 -2.1576 -2.8871 -1.1389
  334SOL    HW210767   3.673   1.640   1.085 -0.5667  0.2765  1.0655
  335SOL     OW10768   3.235   4.251   2.105  0.1611  0.5207 -0.0418
  335SOL    HW110769   3.331   4.261   2.130 -0.0731 -0.7914  1.4319
  335SOL    HW210770   3.184   4.211   2.181 -1.6972  1.8589 -0.5489
  336SOL     OW10771   4.153   2.374   1.758 -0.1645  0.0695 -0.4724
  336SOL    HW110772   4.211   2.398   1.680 -0.2791 -0.3504 -0.6861
  336SOL    HW210773   4.107   2.456   1.792  1.6633  0.6613  0.6019
  337SOL     OW10774   2.592   7.578   1.053 -0.3630 -0.5059 -0.3335
  337SOL    HW110775   2.549   7.568   0.963 -0.9677  0.0849 -0.1185
  337SOL    HW210776   2.691   7.586   1.041 -0.5166  0.5144 -1.0285
  338SOL     OW10777   2.720   9.607   1.548 -0.4020  0.3886  0.0718
  338SOL    HW110778   2.775   9.527   1.570  0.2158  0.6350 -0.5386
  338SOL    HW210779   2.623   9.583   1.552 -0.2076 -0.5526 -0.7004
  339SOL     OW10780   3.037   8.503   0.892 -0.2590  0.7666 -0.3396
  339SOL    HW110781   3.108   8.572   0.881 -0.7887  1.1745 -1.2049
  339SOL    HW210782   3.028   8.450   0.808 -0.8960  0.6407 -0.1986
  340SOL     OW10783   3.214   3.614   2.609  0.0609  0.1315  0.1292
  340SOL    HW110784   3.125   3.594   2.649 -0.6482 -1.2486 -2.0877
  340SOL    HW210785   3.280   3.544   2.637  0.1210  0.3789  0.6226
  341SOL     OW10786   4.025   1.724   1.030 -0.9997  0.4982  0.2130
  341SOL    HW110787   4.113   1.676   1.036 -2.3975 -2.3579 -1.3725
  341SOL    HW210788   3.960   1.682   1.094 -3.0451 -1.6542 -3.0982
  342SOL     OW10789   4.181   3.576   2.242 -0.1671 -0.7881 -0.2745
  342SOL    HW110790   4.124   3.646   2.198 -0.6886 -0.5439  0.7656
  342SOL    HW210791   4.266   3.618   2.274 -0.1587 -0.7826 -0.3039
  343SOL     OW10792   4.729   4.204   0.429  0.2500  0.3869  0.1716
  343SOL    HW110793   4.818   4.214   0.383  0.1859 -1.0538 -0.3011
  343SOL    HW210794   4.708   4.106   0.438 -1.3853  0.7351  0.0947
  344SOL     OW10795   4.730   2.947   1.203  0.1809  0.1611  0.7425
  344SOL    HW110796   4.758   2.893   1.124 -0.0069 -1.7687  1.9647
  344SOL    HW210797   4.811   2.976   1.254  0.1820 -2.1630  2.1410
  345SOL     OW10798   4.496   4.087   2.846  0.2119  0.0218 -0.5688
  345SOL    HW110799   4.472   3.994   2.819  1.1515 -0.8171  1.3844
  345SOL    HW210800   4.413   4.138   2.868 -0.2546 -0.6464 -0.7574
  346SOL     OW10801   3.499   4.550   2.801  0.0521 -0.2471  0.5755
  346SOL    HW110802   3.588   4.595   2.799 -0.7090  1.3080  1.2315
  346SOL    HW210803   3.498   4.481   2.874 -0.0833  1.4650  2.2329
  347SOL     OW10804   2.443   9.560   2.294  0.0665  0.4379 -0.0728
  347SOL    HW110805   2.486   9.645   2.262 -1.6816  0.9875 -1.0571
  347SOL    HW210806   2.504   9.513   2.358  1.3343  2.1014 -0.0355
  348SOL     OW10807   3.235   1.188   0.501  0.2357  0.0361 -0.0702
  348SOL    HW110808   3.215   1.275   0.457 -2.3844  0.3309  1.6045
  348SOL    HW210809   3.196   1.187   0.593  1.4354 -2.3731  0.4610
  349SOL     OW10810   3.361   0.012   1.532  0.7848  0.2206  0.2854
  349SOL    HW110811   3.428   0.081   1.505  0.0635  0.7222 -0.2267
  349SOL    HW210812   3.408  -0.062   1.581  1.9859 -0.2973 -1.5929
  350SOL     OW10813   2.950   0.441   1.510 -0.2163  0.3277  0.5449
  350SOL    HW110814   2.901   0.372   1.456 -1.4774  1.1735  0.6132
  350SOL    HW210815   3.049   0.431   1.493 -0.4248 -1.1311  0.1279
  351SOL     OW10816   3.683   8.868   0.970 -0.1898 -0.0379 -0.4539
  351SOL    HW110817   3.737   8.815   0.903 -1.3350 -0.6851 -0.8805
  351SOL    HW210818   3.591   8.829   0.976 -0.0628 -0.0598  1.6081
  352SOL     OW10819   3.527   2.290   1.641  0.4965 -0.6687 -0.1501
  352SOL    HW110820   3.447   2.349   1.633  0.9999 -0.0460 -0.6371
  352SOL    HW210821   3.578   2.313   1.723  1.3693  0.4229 -0.9842
  353SOL     OW10822   4.918   3.279   0.999 -0.4282 -0.0942 -0.3854
  353SOL    HW110823   4.957   3.361   1.041  0.5069 -1.3495  1.2110
  353SOL    HW210824   4.826   3.301   0.964 -0.4093  1.4873  0.4936
  354SOL     OW10825   2.272   8.030   1.629  0.0320 -0.2197  0.2992
  354SOL    HW110826   2.273   7.944   1.578  0.3439 -0.3354  0.5038
  354SOL    HW210827   2.338   8.026   1.703  0.1591  0.2577  0.2131
  355SOL     OW10828   3.811   3.570   1.563  0.0996 -0.1225  0.2140
  355SOL    HW110829   3.908   3.544   1.562  0.7167  2.1510  0.0493
  355SOL    HW210830   3.780   3.580   1.658  1.0201  2.6863  0.2580
  356SOL     OW10831   3.837   9.872   1.836 -0.3464 -0.6145  0.1305
  356SOL    HW110832   3.934   9.888   1.857 -0.8166  0.8833  1.2206
  356SOL    HW210833   3.822   9.891   1.739 -0.0052  1.5777  0.4602
  357SOL     OW10834   3.621   9.943   0.972  0.0247  0.0981  0.1235
  357SOL    HW110835   3.540   9.908   0.923 -1.0038  1.0123  1.1392
  357SOL    HW210836   3.594   9.974   1.063  1.6062  0.0599  0.6180
  358SOL     OW10837   3.050   2.818   1.331  0.2609  0.1725 -0.9350
  358SOL    HW110838   2.975   2.869   1.373 -0.1133  0.2704 -1.7181
  358SOL    HW210839   3.086   2.869   1.252  1.0304  0.0399 -0.6802
  359SOL     OW10840   2.874   8.873   2.639  0.2182  0.1789 -0.3134
  359SOL    HW110841   2.791   8.836   2.598  1.0435 -2.0715 -0.0459
  359SOL    HW210842   2.890   8.830   2.728  0.8749  1.6946  0.3319
  360SOL     OW10843   4.084   2.086   1.697  0.3669 -0.6893 -0.2713
  360SOL    HW110844   4.030   2.104   1.615 -0.1498 -0.7939  0.0382
  360SOL    HW210845   4.093   2.170   1.750  0.7114 -0.6191 -0.4430
  361SOL     OW10846   3.420   3.734   0.394 -0.1636  0.3214 -0.2445
  361SOL    HW110847   3.425   3.722   0.295 -1.1124  1.1189 -0.3971
  361SOL    HW210848   3.454   3.825   0.418 -4.3048  1.9900 -0.3279
  362SOL     OW10849   2.733   5.874   0.806 -0.1657 -0.1630  0.2032
  362SOL    HW110850   2.825   5.912   0.817 -0.5605  0.5314  1.1209
  362SOL    HW210851   2.669   5.926   0.861 -1.0898 -0.7534 -0.3100
  363SOL     OW10852   3.376   8.620   0.633  0.8330  0.2876 -0.0862
  363SOL    HW110853   3.346   8.547   0.694  2.0393  0.0817  0.2713
  363SOL    HW210854   3.352   8.709   0.673  2.0868  0.1685  0.9439
  364SOL     OW10855   2.487   9.046   0.392 -0.0661 -0.3410 -0.6196
  364SOL    HW110856   2.582   9.060   0.363 -0.2105  1.8940 -0.1508
  364SOL    HW210857   2.426   9.092   0.328 -0.6608  0.6084  0.6169
  365SOL     OW10858   3.215   3.225   2.213  0.3855 -0.0721 -0.2934
  365SOL    HW110859   3.217   3.138   2.261  0.6341 -0.1408 -0.4246
  365SOL    HW210860   3.273   3.219   2.131  1.0694  0.4669  0.1435
  366SOL     OW10861   3.221   9.781   0.507  0.2926 -0.1353  0.0208
  366SOL    HW110862   3.258   9.734   0.426 -0.9270 -2.5860  0.8220
  366SOL    HW210863   3.278   9.860   0.529  1.3340 -0.1338 -2.5134
  367SOL     OW10864   3.157   0.804   2.039  0.4009 -0.5663 -0.6785
  367SOL    HW110865   3.062   0.774   2.033  0.6492 -1.6830  0.6999
  367SOL    HW210866   3.162   0.888   2.095  0.2820 -0.7817 -0.3431
  368SOL     OW10867   3.467   8.038   1.658 -0.0720  0.3196  0.0138
  368SOL    HW110868   3.485   7.967   1.589  0.2917  0.5689 -0.1470
  368SOL    HW210869   3.438   7.995   1.743  0.7722 -0.0607  0.1154
  369SOL     OW10870   3.016   9.648   2.476  0.7636  0.3073  0.5924
  369SOL    HW110871   2.964   9.623   2.558 -2.0894  0.2344 -1.1762
  369SOL    HW210872   2.979   9.599   2.397 -0.2671  4.5376 -1.6871
  370SOL     OW10873   2.922   2.519   1.148 -0.5889 -0.5004 -0.1513
  370SOL    HW110874   2.983   2.447   1.182  0.8010  0.5344 -0.4173
  370SOL    HW210875   2.874   2.561   1.225  1.9837  1.3308  0.5248
  371SOL     OW10876   3.707   0.904   2.446  0.8330  0.0096 -0.2767
  371SOL    HW110877   3.638   0.975   2.461  0.1548 -0.5359 -0.7911
  371SOL    HW210878   3.742   0.911   2.353 -0.9737 -1.8254 -1.1242
  372SOL     OW10879   4.563   2.390   0.011 -0.2278 -0.2250 -0.1282
  372SOL    HW110880   4.591   2.458  -0.057  0.5524 -0.5986 -0.1790
  372SOL    HW210881   4.623   2.310   0.006 -0.2609 -0.3245  0.8941
  373SOL     OW10882   3.655   8.543   0.251 -0.0967  0.1086  0.0792
  373SOL    HW110883   3.695   8.599   0.324  0.0211 -1.3480  1.1614
  373SOL    HW210884   3.572   8.497   0.285 -1.1401  0.9268 -1.3008
  374SOL     OW10885   3.325   0.121   0.936 -0.7500 -1.1433  0.1598
  374SOL    HW110886   3.403   0.105   0.875 -1.1556 -1.0354 -0.3905
  374SOL    HW210887   3.342   0.078   1.024  0.3917 -0.2360  0.3949
  375SOL     OW10888   3.184   6.406   2.043  0.2757 -0.5973  0.5198
  375SOL    HW110889   3.230   6.491   2.069 -1.5300  0.0448  1.6562
  375SOL    HW210890   3.144   6.416   1.952  2.7989 -1.3456 -0.7180
  376SOL     OW10891   3.248   8.533   2.617 -0.2876  0.2204 -0.0612
  376SOL    HW110892   3.301   8.615   2.640  0.1126 -0.1152  0.2121
  376SOL    HW210893   3.188   8.553   2.539 -0.4628  0.8809  0.2393
  377SOL     OW10894   4.148   3.360   1.949  0.4929 -0.6025 -0.0775
  377SOL    HW110895   4.204   3.299   1.893 -0.0506  0.1449 -1.4912
  377SOL    HW210896   4.176   3.354   2.044  2.9121 -0.3258 -0.7280
  378SOL     OW10897   2.710   6.374   1.983  0.0950  0.0909 -1.1335
  378SOL    HW110898   2.721   6.447   2.050  1.3105  2.0080 -3.3555
  378SOL    HW210899   2.696   6.287   2.030 -0.5145  1.6105  1.5627
  379SOL     OW10900   3.351   7.904   0.129  0.1620 -0.7995  0.0276
  379SOL    HW110901   3.400   7.907   0.216  1.6443 -2.9884 -0.6956
  379SOL    HW210902   3.255   7.926   0.144  0.8182  0.9223  1.8779
  380SOL     OW10903   2.439   6.980   2.058 -0.2446 -0.0196 -0.1201
  380SOL    HW110904   2.538   6.993   2.051 -0.1350 -0.8544 -0.2042
  380SOL    HW210905   2.395   7.067   2.082  0.6222  0.1128  1.0483
  381SOL     OW10906   2.610   6.774   0.795  0.2122  0.2144 -0.2149
  381SOL    HW110907   2.605   6.721   0.711 -1.0023  0.4363 -0.2831
  381SOL    HW210908   2.636   6.868   0.774 -1.2213  0.5633 -0.4697
  382SOL     OW10909   3.149   7.980   0.742  0.3828 -0.1845  0.1946
  382SOL    HW110910   3.170   7.885   0.764  0.9705  0.4253  2.3769
  382SOL    HW210911   3.060   7.984   0.696  0.3871 -1.7925  0.0105
  383SOL     OW10912   3.091   3.394   0.235 -0.0692 -0.5522 -0.1739
  383SOL    HW110913   3.097   3.379   0.136 -1.2900 -1.7305 -0.0797
  383SOL    HW210914   3.182   3.383   0.276  0.9646  2.6178 -1.5070
  384SOL     OW10915   4.591   2.051   0.426  0.1202 -0.4587 -0.4169
  384SOL    HW110916   4.630   2.135   0.465 -0.5546  1.7886 -4.3420
  384SOL    HW210917   4.494   2.045   0.450 -0.0745  0.4204 -0.9753
  385SOL     OW10918   3.892   0.357   1.236  0.2254 -0.1263  0.0461
  385SOL    HW110919   3.900   0.329   1.140 -1.1955  1.6689 -0.6348
  385SOL    HW210920   3.809   0.412   1.248  0.8931  0.4947  2.1048
  386SOL     OW10921   2.986   9.934   2.385 -0.0880  0.3321 -0.5009
  386SOL    HW110922   3.068   9.964   2.336  0.5416 -1.6519 -0.7375
  386SOL    HW210923   2.996   9.837   2.409 -1.8573  0.3919  0.5312
  387SOL     OW10924   2.449   9.446   2.029 -0.4378 -0.2054  0.4382
  387SOL    HW110925   2.376   9.502   1.991 -0.8789 -0.5533  0.7601
  387SOL    HW210926   2.461   9.468   2.126  0.4673  0.4575  0.1889
  388SOL     OW10927   2.945   1.198   2.098 -0.8426 -0.5979 -0.0764
  388SOL    HW110928   2.996   1.127   2.147 -0.5469  0.0443  0.5659
  388SOL    HW210929   2.948   1.180   2.000 -0.6622 -1.4003  0.0730
  389SOL     OW10930   2.759   4.047   2.404  0.8497  1.4890  0.4949
  389SOL    HW110931   2.704   4.046   2.488  0.1554  1.6500  0.0449
  389SOL    HW210932   2.836   3.984   2.415  0.1531  0.6758  0.8577
  390SOL     OW10933   2.736   1.533   1.550 -0.1977  0.1480  0.6087
  390SOL    HW110934   2.809   1.466   1.562 -0.7561 -0.2236  2.0084
  390SOL    HW210935   2.750   1.610   1.613  0.8234  1.7034 -1.4636
  391SOL     OW10936   2.939   0.899   1.704  0.2333 -0.0034  0.3841
  391SOL    HW110937   2.982   0.926   1.790  1.2335 -0.5990  0.0729
  391SOL    HW210938   2.962   0.966   1.633  0.5613 -0.2649  0.2433
  392SOL     OW10939   3.971   2.783   0.571 -0.2769  0.2489  1.5220
  392SOL    HW110940   4.045   2.795   0.637  0.2141 -1.7354  1.3620
  392SOL    HW210941   3.890   2.748   0.619 -0.8542  1.5779  1.5461
  393SOL     OW10942   3.395   0.733   1.951 -0.0288  0.4600 -0.0628
  393SOL    HW110943   3.310   0.742   2.003  0.9356  0.9669  1.4785
  393SOL    HW210944   3.375   0.733   1.853 -1.7687  0.9197  0.2783
  394SOL     OW10945   3.461   4.413   0.219  0.4287  0.6154 -0.3917
  394SOL    HW110946   3.537   4.353   0.246  2.1787  2.1465 -1.7407
  394SOL    HW210947   3.448   4.483   0.288  0.8677  0.8947 -0.5860
  395SOL     OW10948   3.193   0.187   0.097 -0.1788  0.0274 -0.3439
  395SOL    HW110949   3.170   0.090   0.090 -0.6165  0.1073 -0.0772
  395SOL    HW210950   3.292   0.199   0.090 -0.1107 -0.4532 -0.2277
  396SOL     OW10951   4.213   5.092   1.157 -0.0301  0.5245  0.2307
  396SOL    HW110952   4.215   5.024   1.083  2.3730 -1.0789  1.7184
  396SOL    HW210953   4.195   5.046   1.244  0.4121  1.9565  1.0880
  397SOL     OW10954   2.696   5.401   2.464  0.1750 -0.4802 -0.4591
  397SOL    HW110955   2.722   5.313   2.425 -0.4165 -0.1923 -1.5067
  397SOL    HW210956   2.607   5.429   2.428  1.1284  1.3677 -1.4607
  398SOL     OW10957   2.404   8.416   0.840 -0.0291 -0.6572 -0.0301
  398SOL    HW110958   2.364   8.469   0.915 -1.3509 -1.9647  0.2135
  398SOL    HW210959   2.430   8.479   0.766 -0.4899  0.4482  0.7230
  399SOL     OW10960   4.134   8.812   0.484  0.4917  0.2737  0.6546
  399SOL    HW110961   4.077   8.738   0.450  1.1641  1.2381 -2.8268
  399SOL    HW210962   4.111   8.897   0.435  1.6123  1.7601  2.6163
  400SOL     OW10963   3.306   7.990   1.879  0.3176  0.0406 -0.3426
  400SOL    HW110964   3.247   8.035   1.946  1.4175 -0.6111  1.0842
  400SOL    HW210965   3.290   7.891   1.882  0.8647 -0.0534 -0.5535
  401SOL     OW10966   3.722   3.222   1.090  0.4508  0.4772 -0.3148
  401SOL    HW110967   3.675   3.310   1.096  0.5445  0.5604 -0.8319
  401SOL    HW210968   3.743   3.190   1.183  0.7293  1.1627 -0.1347
  402SOL     OW10969   3.505   5.185   2.250 -0.2408  0.1933  0.1049
  402SOL    HW110970   3.458   5.111   2.200 -0.9538  0.0986  0.8866
  402SOL    HW210971   3.552   5.146   2.329  0.7795  0.3560 -0.4261
  403SOL     OW10972   2.335   5.669   0.085 -0.1833 -0.1595 -0.1259
  403SOL    HW110973   2.407   5.676   0.017  1.1450  1.3929  1.3897
  403SOL    HW210974   2.279   5.752   0.084  0.7014  0.4835  1.5829
  404SOL     OW10975   2.858   4.286   1.904 -0.1812 -0.4887 -0.1495
  404SOL    HW110976   2.907   4.318   1.824  2.1525 -3.1786  0.1389
  404SOL    HW210977   2.804   4.205   1.880 -0.9060 -0.2457  0.6071
  405SOL     OW10978   2.237   8.885   1.798 -0.3928  0.0846 -0.2062
  405SOL    HW110979   2.222   8.883   1.897  0.7405 -2.7117 -0.0271
  405SOL    HW210980   2.279   8.972   1.772  2.4990 -0.4601  2.2993
  406SOL     OW10981   3.449   8.710   2.646  0.2731  0.2093  0.5437
  406SOL    HW110982   3.480   8.616   2.644 -0.5401 -0.0530 -0.3216
  406SOL    HW210983   3.512   8.768   2.595  0.2760 -0.0255  0.2828
  407SOL     OW10984   4.674   3.911   0.164 -0.0510  0.5783 -0.8083
  407SOL    HW110985   4.619   3.970   0.105  0.2682  1.8741  0.1610
  407SOL    HW210986   4.632   3.821   0.170 -1.3871  1.1693 -1.1057
  408SOL     OW10987   3.886   3.778   0.461  0.3422 -0.0691 -0.0864
  408SOL    HW110988   3.835   3.708   0.511  2.6099 -0.6972  1.4100
  408SOL    HW210989   3.846   3.790   0.371 -1.1298 -2.0784  0.2619
  409SOL     OW10990   3.703   4.939   0.634  0.1660 -0.2353  0.2529
  409SOL    HW110991   3.638   4.863   0.630 -0.0137 -0.1546  1.4962
  409SOL    HW210992   3.692   4.987   0.720  1.3456  0.2644  0.1276
  410SOL     OW10993   2.614   9.606   2.708  0.3025  0.2634 -0.0040
  410SOL    HW110994   2.588   9.689   2.659  1.9328  0.0212 -1.3163
  410SOL    HW210995   2.538   9.540   2.705 -0.4251  1.1000 -0.2873
  411SOL     OW10996   2.811   5.654   0.910  0.1128 -0.3830 -0.4175
  411SOL    HW110997   2.810   5.656   1.010  1.3572  0.9662 -0.4227
  411SOL    HW210998   2.764   5.735   0.874 -0.4564 -0.9339 -0.9295
  412SOL     OW10999   2.601   4.359   1.229 -0.4821  0.2587 -0.3457
  412SOL    HW111000   2.625   4.413   1.309  0.0681 -0.9300  0.3088
  412SOL    HW211001   2.508   4.325   1.237 -0.8061  1.0345 -0.7282
  413SOL     OW11002   3.181   6.322   0.077  0.2130 -0.5012 -0.3324
  413SOL    HW111003   3.123   6.278   0.145  0.0824 -0.6709 -0.5571
  413SOL    HW211004   3.265   6.354   0.121 -0.7188  1.1334  0.3197
  414SOL     OW11005   3.050   4.917   2.293  0.6741 -0.0161  0.6895
  414SOL    HW111006   3.135   4.937   2.245  0.7303  2.2440  1.6880
  414SOL    HW211007   2.978   4.896   2.226  1.7782 -1.0864 -0.1840
  415SOL     OW11008   4.767   1.889   0.583 -0.0124  0.2031  0.5165
  415SOL    HW111009   4.806   1.854   0.497  0.4765  1.5431  0.1840
  415SOL    HW211010   4.673   1.920   0.567  0.6098  1.8946  0.1040
  416SOL     OW11011   4.050   1.614   2.702  0.5909  0.3786  0.1094
  416SOL    HW111012   3.998   1.600   2.618  0.4501  2.3973 -0.1470
  416SOL    HW211013   4.138   1.565   2.695  0.1787 -0.2479 -0.8067
  417SOL     OW11014   4.410   3.352   1.560 -0.1630  0.3461  0.1215
  417SOL    HW111015   4.337   3.312   1.615  0.9812 -2.1715 -0.1192
  417SOL    HW211016   4.370   3.402   1.483 -1.6704  0.7078  1.1222
  418SOL     OW11017   2.813   4.261   2.780 -0.2479 -0.3554  0.0971
  418SOL    HW111018   2.757   4.337   2.748  0.0097 -0.5472 -0.8152
  418SOL    HW211019   2.907   4.272   2.748 -0.2443 -1.1281 -0.1712
  419SOL     OW11020   3.072   8.372   2.786  0.2618 -0.1694 -0.5716
  419SOL    HW111021   3.023   8.298   2.832 -0.4764  0.4538 -0.3395
  419SOL    HW211022   3.170   8.359   2.798  0.1323 -1.0439 -0.4325
  420SOL     OW11023   3.594   0.219   2.653  0.0660 -0.5327  0.6113
  420SOL    HW111024   3.547   0.295   2.608 -1.4884 -0.7434  1.8252
  420SOL    HW211025   3.607   0.144   2.588 -0.4698 -0.1122  0.0180
  421SOL     OW11026   4.005   1.214   0.408 -0.0717  0.3583 -0.6567
  421SOL    HW111027   3.943   1.139   0.433 -0.2758  0.5489 -0.5939
  421SOL    HW211028   3.997   1.287   0.475 -0.1315  0.5898 -0.9159
  422SOL     OW11029   4.268   3.817   2.569  0.8426 -0.5984 -0.0364
  422SOL    HW111030   4.337   3.864   2.623  1.7367  0.0078 -1.6707
  422SOL    HW211031   4.184   3.872   2.567  1.4242  0.2843 -0.7881
  423SOL     OW11032   3.614   0.561   1.254 -0.0446  0.9587  0.1589
  423SOL    HW111033   3.549   0.485   1.250  0.9619  0.0634  0.5548
  423SOL    HW211034   3.614   0.609   1.167 -2.1765  1.7636  0.5882
  424SOL     OW11035   4.165   0.831   0.689  0.3429 -0.5466  0.6815
  424SOL    HW111036   4.203   0.904   0.633 -0.6051 -1.0644 -0.6685
  424SOL    HW211037   4.093   0.868   0.748 -0.7696 -0.5338 -0.6611
  425SOL     OW11038   2.220   8.858   2.090  0.4054  0.2517 -0.0580
  425SOL    HW111039   2.166   8.789   2.138 -0.7856  0.4011 -1.1547
  425SOL    HW211040   2.205   8.947   2.133  0.7686  0.0860  0.4208
  426SOL     OW11041   2.861   1.361   0.013 -0.2501  0.0571 -0.1667
  426SOL    HW111042   2.828   1.316  -0.070 -0.4389  0.4604 -0.3087
  426SOL    HW211043   2.814   1.448   0.025 -1.3818 -0.7299  1.2289
  427SOL     OW11044   3.519   1.953   0.084 -0.4753 -0.0755  0.4759
  427SOL    HW111045   3.544   1.931   0.178  0.4530  0.9201  0.4766
  427SOL    HW211046   3.579   1.902   0.021 -0.4293  0.0248  0.4385
  428SOL     OW11047   4.226   3.038   1.464  0.7153  0.0696 -0.1307
  428SOL    HW111048   4.304   2.991   1.421  1.2187 -0.0975  0.9473
  428SOL    HW211049   4.141   2.993   1.438  0.8787  0.8228 -2.0967
  429SOL     OW11050   3.016   9.450   1.374  0.1497  0.8243 -0.2684
  429SOL    HW111051   3.016   9.378   1.304 -1.0286 -0.2671  0.8347
  429SOL    HW211052   2.966   9.418   1.454  1.6922  1.9923  1.1794
  430SOL     OW11053   3.568   1.922   0.342 -0.2016 -0.3038 -0.7935
  430SOL    HW111054   3.625   1.845   0.372  2.1733  1.2665 -1.0957
  430SOL    HW211055   3.490   1.932   0.403  0.3700 -1.9124  0.2279
  431SOL     OW11056   2.595   6.870   1.618  0.4581  0.8111  0.3794
  431SOL    HW111057   2.657   6.891   1.543  0.4649  0.5843  0.3212
  431SOL    HW211058   2.602   6.941   1.688  0.2003  1.2055  0.0121
  432SOL     OW11059   3.132   3.791   1.435 -0.0324  0.2523 -0.2441
  432SOL    HW111060   3.221   3.748   1.454 -0.0966  0.1316 -0.2176
  432SOL    HW211061   3.106   3.849   1.513 -1.1220 -1.6043  0.8139
  433SOL     OW11062   3.762   2.705   0.717 -0.0787  0.0265  0.1292
  433SOL    HW111063   3.734   2.770   0.788 -0.1486  0.3375 -0.1856
  433SOL    HW211064   3.695   2.631   0.712 -0.5783  0.5023 -0.2724
  434SOL     OW11065   3.883   4.964   1.480  0.0767  0.3024 -0.0615
  434SOL    HW111066   3.933   4.935   1.397 -0.0150  0.1754 -0.0727
  434SOL    HW211067   3.949   4.987   1.552  0.1373 -1.0510  0.3241
  435SOL     OW11068   3.413   2.321   0.368 -0.5747  0.5104 -0.5791
  435SOL    HW111069   3.414   2.417   0.339  1.7613  0.5443 -0.4587
  435SOL    HW211070   3.392   2.263   0.289 -1.8397  1.1033 -0.6857
  436SOL     OW11071   2.681   5.740   2.015  0.7096 -0.3574  0.0821
  436SOL    HW111072   2.620   5.765   2.091 -0.3672 -3.6159  0.3507
  436SOL    HW211073   2.776   5.750   2.045  0.3027  0.1540  1.2369
  437SOL     OW11074   2.640   8.906   2.111 -0.5801 -0.7901 -0.1543
  437SOL    HW111075   2.586   8.826   2.084 -2.0094  0.0222  0.2282
  437SOL    HW211076   2.591   8.956   2.183 -0.4971  1.3070 -1.5002
  438SOL     OW11077   4.854   2.805   2.631 -0.3748 -0.1137 -0.7004
  438SOL    HW111078   4.916   2.729   2.647 -2.8340 -1.7754  1.3835
  438SOL    HW211079   4.880   2.883   2.689  1.6315  0.3651 -2.2089
  439SOL     OW11080   2.359   7.251   2.088  0.3690  0.4676 -0.2014
  439SOL    HW111081   2.332   7.231   2.182  0.9411  0.1673 -0.0964
  439SOL    HW211082   2.439   7.311   2.088  0.9188 -0.2595 -0.4886
  440SOL     OW11083   3.864   4.158   0.876 -0.1315 -0.0004 -0.3590
  440SOL    HW111084   3.946   4.141   0.822 -0.1111 -1.3540  0.0708
  440SOL    HW211085   3.890   4.180   0.970 -0.1958  1.5538 -0.6928
  441SOL     OW11086   2.953   1.984   0.929  0.4369 -0.2659  0.0566
  441SOL    HW111087   2.886   2.050   0.895  0.0197 -0.2586  0.8689
  441SOL    HW211088   3.019   2.031   0.988 -0.4546 -0.7443  1.4460
  442SOL     OW11089   3.701   2.128   2.089  0.1049 -0.0505  0.1066
  442SOL    HW111090   3.675   2.108   2.183 -0.5142  1.8530  0.3781
  442SOL    HW211091   3.793   2.168   2.088  0.7987 -1.6216 -0.2853
  443SOL     OW11092   4.300   2.690   1.728 -0.4098 -0.8425 -0.1280
  443SOL    HW111093   4.321   2.628   1.804  0.6634  0.6106  0.8011
  443SOL    HW211094   4.208   2.673   1.695 -1.0643 -1.2066  1.8138
  444SOL     OW11095   3.594   5.061   0.207  0.5813 -0.1466 -0.5165
  444SOL    HW111096   3.559   5.071   0.300 -0.0008 -1.1416 -0.6282
  444SOL    HW211097   3.693   5.074   0.207  0.2799  2.5548 -0.1763
  445SOL     OW11098   2.686   1.189   2.304 -0.6030 -0.2890  0.3181
  445SOL    HW111099   2.622   1.251   2.258 -0.0173 -0.0401 -0.1546
  445SOL    HW211100   2.752   1.154   2.238  0.3585  0.2277  0.9992
  446SOL     OW11101   3.328   9.340   1.197  0.0655  0.2424 -0.0047
  446SOL    HW111102   3.284   9.271   1.255  0.9745 -0.4657 -0.1475
  446SOL    HW211103   3.258   9.395   1.152 -0.6888 -1.4556 -0.9407
  447SOL     OW11104   5.202   3.493   1.089 -0.0909 -0.1296  0.0218
  447SOL    HW111105   5.271   3.470   1.159  0.2201 -3.1455 -1.1993
  447SOL    HW211106   5.113   3.505   1.134  0.8877  2.2640  1.4253
  448SOL     OW11107   4.473   1.535   2.353  0.0590 -0.1312 -0.3651
  448SOL    HW111108   4.478   1.591   2.435 -0.6060 -0.3769 -0.1524
  448SOL    HW211109   4.536   1.570   2.284 -0.7890  1.2299 -0.4580
  449SOL     OW11110   3.772   9.950   1.560 -0.5304 -0.5131  0.5354
  449SOL    HW111111   3.721   9.927   1.478  0.0913 -2.4418  0.6687
  449SOL    HW211112   3.795  10.047   1.559 -2.5941 -0.0171 -0.3974
  450SOL     OW11113   3.838   0.040   0.423 -0.1284 -0.4876  0.1126
  450SOL    HW111114   3.763   0.092   0.462  0.1614 -0.5464  0.7487
  450SOL    HW211115   3.829  -0.057   0.447  1.3699 -0.1586  2.1095
  451SOL     OW11116   3.400   2.377   2.033 -0.3058 -0.2864  0.6552
  451SOL    HW111117   3.363   2.444   2.098 -0.4215  1.1071 -0.8160
  451SOL    HW211118   3.375   2.285   2.063 -1.9587  0.4313  1.5754
  452SOL     OW11119   2.989   9.067   0.244 -0.3670  0.0761 -0.1636
  452SOL    HW111120   3.056   9.003   0.205 -1.1179  0.4473 -2.1236
  452SOL    HW211121   3.026   9.160   0.239  0.7105 -0.1367  2.6569
  453SOL     OW11122   3.001   0.160   2.712  0.2051 -0.0687 -0.4686
  453SOL    HW111123   2.939   0.154   2.634  1.7234 -0.6860 -1.6526
  453SOL    HW211124   3.022   0.256   2.731 -0.6832  0.1135 -0.4010
  454SOL     OW11125   3.937   3.849   1.290 -0.1643 -0.8753  0.1187
  454SOL    HW111126   3.851   3.869   1.243  0.4409  1.3859 -0.0507
  454SOL    HW211127   3.959   3.923   1.353  1.5581 -1.5506  0.3423
  455SOL     OW11128   2.513   6.846   2.428 -0.1908  0.3707 -0.0469
  455SOL    HW111129   2.443   6.804   2.370 -2.5342  1.3364  2.0095
  455SOL    HW211130   2.532   6.938   2.395 -2.5550  1.4505  1.4661
  456SOL     OW11131   3.743   9.024   2.234 -0.6356 -0.3105  0.2912
  456SOL    HW111132   3.758   8.957   2.161  0.0486 -0.7725  0.8477
  456SOL    HW211133   3.811   9.097   2.227 -2.2740  1.0919 -1.1837
  457SOL     OW11134   5.026   1.321   0.274 -0.0290 -0.9403 -0.0033
  457SOL    HW111135   5.043   1.420   0.273 -0.0659 -0.9337 -0.3320
  457SOL    HW211136   5.052   1.283   0.362  0.4697 -0.7196 -0.0539
  458SOL     OW11137   3.390   0.999   2.178  0.3200 -0.1587  1.3557
  458SOL    HW111138   3.426   1.037   2.263 -1.0405  1.4490  1.2500
  458SOL    HW211139   3.461   0.945   2.133  2.1045  1.6203  1.9390
  459SOL     OW11140   2.635   5.479   2.156  0.8298  0.5300 -0.7807
  459SOL    HW111141   2.613   5.409   2.088 -0.7517  0.4323 -0.1998
  459SOL    HW211142   2.660   5.564   2.109  1.5212 -0.0519 -1.4847
  460SOL     OW11143   3.144   9.519   1.018  0.0319 -0.3495  0.2321
  460SOL    HW111144   3.128   9.539   0.921  0.5217  1.5717  0.5295
  460SOL    HW211145   3.085   9.577   1.074  1.8510  0.7039  1.1249
  461SOL     OW11146   2.997   0.621   1.886  0.2364 -0.8342 -0.1094
  461SOL    HW111147   2.963   0.684   1.816  0.8921  0.2772  0.5582
  461SOL    HW211148   2.963   0.529   1.867 -2.0133 -0.0205 -0.2556
  462SOL     OW11149   3.167   5.780   1.616  0.2357  0.0939 -0.0675
  462SOL    HW111150   3.100   5.712   1.645  0.4548 -0.6710 -1.2929
  462SOL    HW211151   3.240   5.735   1.564  0.6040  1.2072 -0.5360
  463SOL     OW11152   2.484   9.030   2.281 -0.3984  0.1744 -0.3294
  463SOL    HW111153   2.481   9.091   2.360 -2.1652 -0.7186  0.3295
  463SOL    HW211154   2.435   8.945   2.303 -0.9354 -0.0686 -2.3941
  464SOL     OW11155   4.187   2.244   0.358  0.1854 -0.1584  0.0659
  464SOL    HW111156   4.233   2.182   0.422  2.9132  0.5056 -1.2058
  464SOL    HW211157   4.248   2.318   0.332 -1.5462  0.6816 -1.7971
  465SOL     OW11158   3.333   1.607   0.682 -0.2676 -0.5830 -0.3465
  465SOL    HW111159   3.330   1.623   0.780  1.1570 -1.3793 -0.1606
  465SOL    HW211160   3.246   1.635   0.641 -0.6542  0.3195  1.0423
  466SOL     OW11161   4.302   3.100   1.974  0.5117 -0.1893  0.6869
  466SOL    HW111162   4.401   3.111   1.977  0.7219 -2.0316  1.2055
  466SOL    HW211163   4.265   3.105   2.067  0.0941  0.7795  0.4635
  467SOL     OW11164   3.362   8.419   0.821  0.3257 -0.0657 -0.3304
  467SOL    HW111165   3.387   8.470   0.903 -0.6174  1.8591 -1.2269
  467SOL    HW211166   3.301   8.344   0.846  0.8270 -0.0891  0.8528
  468SOL     OW11167   3.331   2.498   1.623  0.1054 -0.1843 -0.1027
  468SOL    HW111168   3.312   2.498   1.721  0.3811 -0.9264 -0.0465
  468SOL    HW211169   3.248   2.472   1.574  0.3946 -1.3697  0.0260
  469SOL     OW11170   2.653   7.572   1.598  0.7208  0.2038 -0.3819
  469SOL    HW111171   2.574   7.511   1.607  0.3688  0.7450  0.2604
  469SOL    HW211172   2.631   7.661   1.638  2.1982 -0.1345  1.2134
  470SOL     OW11173   2.964   8.567   1.208 -0.5887 -0.4340  0.0816
  470SOL    HW111174   2.882   8.619   1.186 -1.1025 -1.3104 -0.0849
  470SOL    HW211175   2.989   8.509   1.131 -0.4364 -0.9678  0.5271
  471SOL     OW11176   3.073   7.583   0.897  0.1460 -0.8623  0.9085
  471SOL    HW111177   3.094   7.488   0.873 -1.6751 -0.5618 -2.1007
  471SOL    HW211178   3.137   7.644   0.849 -0.3951 -0.4442  0.7195
  472SOL     OW11179   2.596   8.755   1.381  0.5981 -0.2856  0.1021
  472SOL    HW111180   2.624   8.694   1.307  0.3317 -1.3827  0.8941
  472SOL    HW211181   2.526   8.710   1.436  0.6528  0.6086  0.9035
  473SOL     OW11182   3.220   3.770   1.173  0.6044 -0.1162  0.0819
  473SOL    HW111183   3.180   3.754   1.264  2.7010 -0.9247  0.8990
  473SOL    HW211184   3.166   3.722   1.104 -1.4596  1.1319  0.7931
  474SOL     OW11185   3.356   8.861   0.733  0.4387  0.3683  0.4381
  474SOL    HW111186   3.379   8.903   0.645 -1.2847 -0.1988 -0.3092
  474SOL    HW211187   3.338   8.933   0.800 -1.5457  0.8741 -0.5796
  475SOL     OW11188   2.665   8.552   2.256 -0.4292  0.1682  0.3812
  475SOL    HW111189   2.628   8.459   2.248 -2.4724  0.8187  1.8909
  475SOL    HW211190   2.653   8.600   2.170  0.1856 -0.7862 -0.2576
  476SOL     OW11191   4.261   3.037   0.992  0.1626  0.1353  0.3744
  476SOL    HW111192   4.170   3.004   1.014 -0.1447  1.4039  1.0879
  476SOL    HW211193   4.329   2.968   1.018 -0.5435 -0.5403  0.4407
  477SOL     OW11194   2.534   9.586   0.797 -0.4804  0.6124  0.8408
  477SOL    HW111195   2.535   9.632   0.886  0.0205  1.0833  0.5893
  477SOL    HW211196   2.546   9.488   0.811  0.8931  0.8182  1.2072
  478SOL     OW11197   2.645   8.485   0.097 -0.5709 -0.1414 -0.2575
  478SOL    HW111198   2.701   8.402   0.095 -0.3420 -0.0655  1.7529
  478SOL    HW211199   2.622   8.507   0.192 -1.5051  1.5113 -0.8540
  479SOL     OW11200   3.776   4.597   0.780  0.1218  0.3106  0.0826
  479SOL    HW111201   3.694   4.545   0.758  0.0593  0.1334  0.7253
  479SOL    HW211202   3.810   4.642   0.697 -1.8426  2.1567  0.2573
  480SOL     OW11203   3.036   0.309   0.297  0.2957  0.4777 -0.5774
  480SOL    HW111204   3.069   0.284   0.205 -3.1546  0.1285 -1.7810
  480SOL    HW211205   2.966   0.379   0.289 -0.0737  0.4196  1.8338
  481SOL     OW11206   3.218   2.961   2.219  0.0981  0.1359 -0.3046
  481SOL    HW111207   3.304   2.945   2.171  0.9476  1.1409  0.8369
  481SOL    HW211208   3.214   2.904   2.301  0.9371  2.0132  1.1110
  482SOL     OW11209   3.313   9.374   0.631 -0.3847 -0.2072 -0.2079
  482SOL    HW111210   3.325   9.428   0.548 -0.8609 -1.2546 -0.9805
  482SOL    HW211211   3.402   9.360   0.675 -0.1815  0.6607 -0.3513
  483SOL     OW11212   2.881   3.814   0.408  0.6355 -0.7414 -0.4183
  483SOL    HW111213   2.969   3.838   0.450 -0.5379 -0.6589  2.0541
  483SOL    HW211214   2.888   3.723   0.366  1.2439 -1.8007  1.8737
  484SOL     OW11215   3.234   0.961   0.335 -0.0440  0.2380 -1.2533
  484SOL    HW111216   3.274   0.897   0.401 -0.3118 -0.6699 -1.9495
  484SOL    HW211217   3.199   1.041   0.383 -2.5410 -1.5498  0.0649
  485SOL     OW11218   3.494   1.064   0.581  0.0007 -0.9783  0.6737
  485SOL    HW111219   3.411   1.117   0.566 -0.3344 -0.5517  3.6692
  485SOL    HW211220   3.542   1.051   0.494 -2.3769  0.1013 -0.8418
  486SOL     OW11221   2.947   5.959   1.383  0.7380 -0.7376 -0.6688
  486SOL    HW111222   2.996   6.035   1.341 -2.5016  2.5292  1.1709
  486SOL    HW211223   2.977   5.948   1.478  0.8791 -1.4562 -0.7947
  487SOL     OW11224   3.864   9.051   1.903  0.2068  0.0787  0.1671
  487SOL    HW111225   3.959   9.079   1.917  0.8976 -1.6442 -0.9319
  487SOL    HW211226   3.819   9.116   1.842  0.6296  0.9603  0.7728
  488SOL     OW11227   4.101   1.879   0.351 -0.0451  0.2702  0.0057
  488SOL    HW111228   4.027   1.815   0.373 -0.6880  1.1164  0.3479
  488SOL    HW211229   4.089   1.962   0.404  0.9239  0.5789 -0.2614
  489SOL     OW11230   2.977   2.460   2.209 -0.3903  0.2722  0.5473
  489SOL    HW111231   2.910   2.481   2.138 -1.8591 -1.8590  1.2520
  489SOL    HW211232   2.933   2.462   2.299  0.0206 -2.9019  0.8695
  490SOL     OW11233   3.377   3.207   0.010  0.2791  0.1973  0.3547
  490SOL    HW111234   3.362   3.178   0.105 -0.1058  1.0074  0.5433
  490SOL    HW211235   3.341   3.299  -0.002  2.2139  0.9042 -0.0416
  491SOL     OW11236   3.142   4.584   1.725 -0.4300 -0.0423 -0.2033
  491SOL    HW111237   3.198   4.527   1.785  0.0034 -0.1325 -0.6914
  491SOL    HW211238   3.151   4.680   1.751  2.1280  0.2568 -2.0038
  492SOL     OW11239   3.375   3.433   0.323  0.0231  0.0622  0.0438
  492SOL    HW111240   3.431   3.472   0.250  0.4332 -1.0662 -0.2520
  492SOL    HW211241   3.328   3.507   0.372 -0.3291  0.8193 -1.4143
  493SOL     OW11242   2.180   8.086   2.497  0.1324 -0.3118 -0.7919
  493SOL    HW111243   2.173   8.067   2.595  0.8697 -2.3291 -1.1039
  493SOL    HW211244   2.089   8.100   2.459 -0.4210 -2.4367 -0.3457
  494SOL     OW11245   5.028   2.582   2.645 -0.0194  0.1527  0.3070
  494SOL    HW111246   5.123   2.571   2.618  0.2895  2.0534  0.5773
  494SOL    HW211247   4.971   2.516   2.596  1.6378 -2.1066  1.3757
  495SOL     OW11248   3.049   7.179   2.111 -0.0118 -0.2317  0.1947
  495SOL    HW111249   3.006   7.242   2.046 -0.3991 -1.2439 -0.5438
  495SOL    HW211250   2.992   7.172   2.194 -0.1128  0.1729  0.1593
  496SOL     OW11251   4.188   1.427   2.278 -0.1393 -0.5477 -0.6373
  496SOL    HW111252   4.208   1.348   2.221 -0.3562  0.1874 -1.7438
  496SOL    HW211253   4.272   1.476   2.299 -0.1925 -0.1738 -1.2856
  497SOL     OW11254   2.728   9.138   0.311  0.2656 -0.0456  0.2888
  497SOL    HW111255   2.731   9.225   0.261 -0.4240  0.3144  0.8652
  497SOL    HW211256   2.822   9.109   0.331  0.5205  0.2878 -0.3745
  498SOL     OW11257   3.786   0.373   2.056 -0.1503 -0.2448 -0.7531
  498SOL    HW111258   3.823   0.339   1.969 -1.7607 -2.7746 -0.5371
  498SOL    HW211259   3.812   0.311   2.130  1.3934  2.0161  0.6362
  499SOL     OW11260   2.647   0.111   2.785 -1.1850  0.8267  0.2406
  499SOL    HW111261   2.612   0.075   2.699 -0.0755  0.1547  0.0623
  499SOL    HW211262   2.645   0.211   2.782  0.5775  0.8548 -1.3179
  500SOL     OW11263   3.029   1.929   2.704  0.1336  0.2434 -0.1486
  500SOL    HW111264   2.956   1.995   2.726  0.3525  0.7049 -0.7934
  500SOL    HW211265   2.999   1.837   2.730 -0.1697  0.5968  0.7688
  501SOL     OW11266   3.083   8.655   1.436 -0.1865  0.6061  0.3559
  501SOL    HW111267   3.173   8.615   1.446 -0.3632  0.0404 -0.2796
  501SOL    HW211268   3.041   8.622   1.351 -0.7545  1.3069  0.3601
  502SOL     OW11269   2.896   2.310   0.117 -0.3212  0.1759  0.0146
  502SOL    HW111270   2.801   2.281   0.119 -0.5620  0.9247 -0.3063
  502SOL    HW211271   2.941   2.286   0.203 -0.5693 -0.9408 -0.1652
  503SOL     OW11272   3.091   8.885   2.252  0.1413 -0.2488  0.5769
  503SOL    HW111273   3.112   8.952   2.323  2.0831  0.2062 -0.4044
  503SOL    HW211274   3.012   8.916   2.199 -0.5740 -0.0170  1.7595
  504SOL     OW11275   2.705   6.562   1.517 -0.4070 -0.5303  0.3393
  504SOL    HW111276   2.622   6.608   1.548  0.2410 -0.0809  1.4314
  504SOL    HW211277   2.681   6.487   1.455 -1.5265  0.5532 -0.5374
  505SOL     OW11278   2.778   9.880   1.829  0.0892  0.1145  0.1643
  505SOL    HW111279   2.853   9.815   1.840  0.7822  0.5879 -1.5893
  505SOL    HW211280   2.696   9.844   1.875  1.2850 -0.5372  1.8452
  506SOL     OW11281   3.248   3.538   2.357  1.2445  0.1386  0.3231
  506SOL    HW111282   3.256   3.594   2.440 -0.0110  2.0745 -0.8345
  506SOL    HW211283   3.165   3.481   2.363  1.0409  0.4321  0.3181
  507SOL     OW11284   2.915   3.602   0.248  0.2516  0.2938  0.3614
  507SOL    HW111285   2.969   3.518   0.242 -0.6276 -0.3267  0.8953
  507SOL    HW211286   2.854   3.608   0.168  0.6790  0.6818  0.0658
  508SOL     OW11287   4.135   0.941   1.077  0.0422  0.4131  0.5731
  508SOL    HW111288   4.144   0.843   1.091 -3.0040  0.4487  3.1847
  508SOL    HW211289   4.099   0.984   1.160 -0.1977  3.5098 -1.0548
  509SOL     OW11290   4.151   3.559   2.542  0.3156 -0.1328 -0.1224
  509SOL    HW111291   4.184   3.554   2.448 -1.9955 -2.3658 -0.8832
  509SOL    HW211292   4.178   3.646   2.582  1.4610  0.8052 -2.8020
  510SOL     OW11293   2.781   8.074   2.187 -0.4183 -0.4404  0.3065
  510SOL    HW111294   2.835   8.132   2.248  0.6281 -0.7476 -0.3147
  510SOL    HW211295   2.706   8.128   2.147  1.3368  0.8562 -1.3067
  511SOL     OW11296   3.158   8.206   0.909 -0.4372  0.0161  0.8180
  511SOL    HW111297   3.161   8.141   0.833  1.3546  0.0874  0.7938
  511SOL    HW211298   3.173   8.157   0.995  1.9261  0.4954  0.7095
  512SOL     OW11299   3.056   1.654   1.953 -0.3312  0.0205 -0.2735
  512SOL    HW111300   3.151   1.625   1.942 -0.5802 -0.7950 -0.3597
  512SOL    HW211301   3.034   1.661   2.050 -0.8411 -2.0721 -0.2171
  513SOL     OW11302   4.540   2.815   1.795 -0.3225  0.5706 -0.7460
  513SOL    HW111303   4.458   2.770   1.760 -0.7342  0.3656  0.4640
  513SOL    HW211304   4.616   2.798   1.733 -0.2174 -2.6664  0.1898
  514SOL     OW11305   4.174   2.685   1.218  0.2015 -0.3136 -0.0397
  514SOL    HW111306   4.112   2.721   1.148 -1.1268  0.8103  1.6715
  514SOL    HW211307   4.253   2.746   1.226 -0.5990  0.6350  0.7803
  515SOL     OW11308   2.609   4.913   1.103  0.6364  0.2025 -0.2047
  515SOL    HW111309   2.688   4.975   1.103  0.5507  0.3761  2.2888
  515SOL    HW211310   2.635   4.826   1.146 -0.1824 -0.1900 -0.4978
  516SOL     OW11311   4.087   4.304   1.047  0.3793  0.2622 -0.1959
  516SOL    HW111312   4.071   4.333   0.953  0.6841  3.3528  0.6378
  516SOL    HW211313   4.000   4.286   1.092  0.1985 -0.5527 -0.8707
  517SOL     OW11314   5.490   3.241   1.097  0.2433 -0.2090  0.4595
  517SOL    HW111315   5.545   3.274   1.174  0.3253  0.5015  0.0951
  517SOL    HW211316   5.549   3.229   1.017  0.3198 -1.7272  0.7211
  518SOL     OW11317   3.167   2.017   2.163 -0.0543 -0.4587 -0.0994
  518SOL    HW111318   3.093   2.016   2.096  0.8879 -1.0012 -1.1476
  518SOL    HW211319   3.252   2.047   2.120  0.6359 -1.1181  0.7609
  519SOL     OW11320   4.624   3.940   0.458 -0.8390 -0.5441 -0.1420
  519SOL    HW111321   4.636   3.916   0.362 -1.5544  0.4905 -0.4996
  519SOL    HW211322   4.527   3.929   0.484 -0.7663 -0.1939  0.2855
  520SOL     OW11323   3.626   5.144   1.819  0.0814 -0.6461  0.3368
  520SOL    HW111324   3.692   5.071   1.841  2.5855  0.5652 -2.8350
  520SOL    HW211325   3.673   5.232   1.820 -1.5360  0.2625 -1.8000
  521SOL     OW11326   3.412   4.933   0.919  0.3822  0.2600  0.0613
  521SOL    HW111327   3.402   5.032   0.911 -0.2091  0.2448  0.5244
  521SOL    HW211328   3.390   4.890   0.832  0.8269  0.5477 -0.1935
  522SOL     OW11329   3.022   1.669   1.492 -0.0666 -0.2786  0.1219
  522SOL    HW111330   3.100   1.712   1.538  0.8871 -1.9427  0.1405
  522SOL    HW211331   2.997   1.586   1.543  2.0256 -3.0468 -3.1279
  523SOL     OW11332   4.986   1.572   0.375  0.6518  0.0842  0.4599
  523SOL    HW111333   4.934   1.548   0.457  0.6541  1.2969  0.8136
  523SOL    HW211334   4.936   1.640   0.322  0.7231 -0.5794 -0.4744
  524SOL     OW11335   4.029   1.786   0.657  0.2752  0.9706  0.8048
  524SOL    HW111336   4.111   1.824   0.701  0.2029  0.6883  1.1887
  524SOL    HW211337   3.981   1.858   0.608  0.2046  1.3499  1.4252
  525SOL     OW11338   3.716   2.938   2.599 -0.2878 -0.2418 -0.8334
  525SOL    HW111339   3.793   2.891   2.642 -1.0435  0.1617  1.0067
  525SOL    HW211340   3.741   3.034   2.583 -0.4293 -0.0872 -0.1504
  526SOL     OW11341   3.160   0.224   2.115 -0.2825 -0.5149  0.3953
  526SOL    HW111342   3.104   0.300   2.148 -0.5669 -1.4294  2.1372
  526SOL    HW211343   3.253   0.232   2.150  0.8747  1.2585 -2.8933
  527SOL     OW11344   2.894   4.907   1.599  0.0583 -0.5158  0.0542
  527SOL    HW111345   2.894   4.946   1.507 -0.6152 -0.0911  0.2320
  527SOL    HW211346   2.988   4.893   1.629  0.2779 -0.7631 -0.7470
  528SOL     OW11347   2.410   5.398   0.224 -0.0621 -0.1180  0.0433
  528SOL    HW111348   2.484   5.428   0.164 -0.2797 -0.1079 -0.2214
  528SOL    HW211349   2.343   5.471   0.233  0.4356  0.2281  1.0593
  529SOL     OW11350   2.984   9.821   0.114 -0.2512 -0.4710  0.4040
  529SOL    HW111351   3.015   9.877   0.037  0.0205  0.3043  1.0663
  529SOL    HW211352   2.909   9.867   0.160  0.0589 -0.5928  1.0351
  530SOL     OW11353   2.405   6.651   0.281  0.4629 -0.3222 -0.6295
  530SOL    HW111354   2.402   6.687   0.188  1.3304  0.0487 -0.5229
  530SOL    HW211355   2.406   6.551   0.279 -0.4752 -0.3179 -0.9841
  531SOL     OW11356   2.995   5.408   2.552  0.2476 -0.4837 -0.5656
  531SOL    HW111357   2.913   5.438   2.502  0.3169  2.2394  0.8986
  531SOL    HW211358   3.039   5.334   2.501 -0.8047  0.8278 -3.4768
  532SOL     OW11359   2.891   2.670   1.505 -0.6949  0.8219  0.1254
  532SOL    HW111360   2.944   2.727   1.443  0.7494  0.4980  1.0188
  532SOL    HW211361   2.911   2.696   1.600 -1.5940  0.2182  0.4918
  533SOL     OW11362   3.023   8.922   0.539 -0.0837  0.8888  0.2660
  533SOL    HW111363   3.117   8.949   0.517 -0.0332 -0.1665 -0.8540
  533SOL    HW211364   2.975   8.896   0.455 -0.1686 -2.3006  1.2278
  534SOL     OW11365   3.402   9.097   0.560  0.7779  0.6611  0.1719
  534SOL    HW111366   3.345   9.178   0.571  0.1371 -0.1517  3.3613
  534SOL    HW211367   3.495   9.118   0.591  1.0901  0.7125 -0.7967
  535SOL     OW11368   3.239   9.222   1.720  0.3768  0.5318 -0.0394
  535SOL    HW111369   3.300   9.250   1.795  0.3634 -2.2590  1.0855
  535SOL    HW211370   3.166   9.290   1.710  0.8017  1.3516  1.9831
  536SOL     OW11371   2.233   7.599   2.796 -0.2445 -0.7476  0.1304
  536SOL    HW111372   2.160   7.574   2.733 -0.0626  3.6057 -1.9900
  536SOL    HW211373   2.321   7.574   2.757 -0.3302 -1.6550  0.5064
  537SOL     OW11374   3.446   3.143   1.181 -0.1174  0.5802 -0.0369
  537SOL    HW111375   3.388   3.206   1.129  0.1348  1.7102  1.0418
  537SOL    HW211376   3.540   3.150   1.147 -0.7270 -1.9398 -2.4310
  538SOL     OW11377   3.212   7.753   1.854  0.1459  0.3185  0.6309
  538SOL    HW111378   3.260   7.708   1.779  1.0857  1.5710  0.4788
  538SOL    HW211379   3.133   7.697   1.881  0.9464 -1.1112  0.0453
  539SOL     OW11380   3.693   2.076   0.704  0.0273 -0.0111  0.1750
  539SOL    HW111381   3.646   2.158   0.672 -1.4380 -0.0793  2.0785
  539SOL    HW211382   3.641   1.995   0.677  0.5249 -0.2346 -0.1252
  540SOL     OW11383   2.849   0.109   1.678 -0.5627  0.0735 -0.0403
  540SOL    HW111384   2.823   0.030   1.734  2.4543 -1.5985 -0.8545
  540SOL    HW211385   2.933   0.150   1.715  0.6686 -0.1642 -2.4166
  541SOL     OW11386   4.189   3.597   1.758  0.3341  0.3761  0.0650
  541SOL    HW111387   4.179   3.688   1.798  0.6473 -0.0659  1.1565
  541SOL    HW211388   4.160   3.528   1.824  1.0185 -0.3749 -0.4086
  542SOL     OW11389   3.040   9.207   0.895 -0.5201 -0.4738  0.8616
  542SOL    HW111390   2.983   9.220   0.813  0.7726 -1.4126 -0.2012
  542SOL    HW211391   3.136   9.200   0.868  0.1409  1.2989  2.6676
  543SOL     OW11392   3.154   4.900   1.701 -0.8070  0.2885 -0.5217
  543SOL    HW111393   3.202   4.967   1.758  0.5016 -1.0806  0.0213
  543SOL    HW211394   3.205   4.885   1.617 -1.0561 -0.0771 -0.6085
  544SOL     OW11395   2.732   9.394   0.153  0.1592  0.3383  0.2119
  544SOL    HW111396   2.811   9.451   0.129 -0.2375  1.0739  0.6420
  544SOL    HW211397   2.666   9.448   0.206  0.4837 -0.9495  1.9714
  545SOL     OW11398   2.608   7.106   2.373  0.0844  0.4254 -0.5381
  545SOL    HW111399   2.633   7.161   2.294  0.6466  0.0136 -0.6520
  545SOL    HW211400   2.683   7.107   2.440  1.1698 -2.1915 -1.6186
  546SOL     OW11401   2.096   8.988   2.609  0.7002 -0.2116 -0.9627
  546SOL    HW111402   2.117   8.928   2.532 -1.3092 -2.9236  0.5006
  546SOL    HW211403   2.041   8.938   2.676  0.6062  2.7176  1.2559
  547SOL     OW11404   3.399   0.328   0.706 -0.4034  0.3796 -0.3036
  547SOL    HW111405   3.318   0.310   0.649 -0.8529  2.0618 -0.2207
  547SOL    HW211406   3.371   0.374   0.790  0.3125 -1.7052  1.1192
  548SOL     OW11407   4.027   1.457   0.581  0.2106  0.0340  0.0349
  548SOL    HW111408   4.045   1.531   0.646 -0.6358 -1.3965  1.9309
  548SOL    HW211409   3.930   1.457   0.556  0.1627 -0.5444  0.2038
  549SOL     OW11410   2.755   5.021   2.715 -0.1900 -0.2376 -0.8313
  549SOL    HW111411   2.790   5.084   2.784 -0.7979 -1.1850  0.3654
  549SOL    HW211412   2.773   5.058   2.624  3.1546 -0.3090 -0.2482
  550SOL     OW11413   3.128   8.159   2.038  0.3882  0.8181  0.2871
  550SOL    HW111414   3.094   8.139   2.130  0.9400 -0.7429  0.1684
  550SOL    HW211415   3.108   8.254   2.015 -0.0032  1.1425  1.9098
  551SOL     OW11416   4.130   1.892   2.750  0.1245 -0.0762  0.1633
  551SOL    HW111417   4.109   1.796   2.734 -0.6381 -0.2661  2.1818
  551SOL    HW211418   4.183   1.902   2.835  0.7016  1.2276 -0.3285
  552SOL     OW11419   2.489   7.495   2.705  0.1873 -0.2533  0.0050
  552SOL    HW111420   2.538   7.533   2.626  1.2965  1.9419  1.6852
  552SOL    HW211421   2.465   7.400   2.687  1.4368 -0.1415 -2.4959
  553SOL     OW11422   3.893   1.602   0.281  0.0859  0.2483 -0.3233
  553SOL    HW111423   3.908   1.603   0.182  0.5841 -1.0588 -0.2742
  553SOL    HW211424   3.907   1.509   0.316  2.1057  1.1246  1.3296
  554SOL     OW11425   4.478   2.865   1.048 -0.1274 -0.3923 -0.3580
  554SOL    HW111426   4.566   2.826   1.078  0.1982 -0.5345 -1.4824
  554SOL    HW211427   4.450   2.821   0.963  0.0495  1.5544 -1.4364
  555SOL     OW11428   2.813   8.576   1.869  0.1304  0.6119 -0.1162
  555SOL    HW111429   2.860   8.502   1.915 -0.0240  0.4836 -0.1644
  555SOL    HW211430   2.841   8.579   1.773 -0.4999  0.0778 -0.3227
  556SOL     OW11431   3.814   0.681   1.837 -0.1060  0.0405  0.7055
  556SOL    HW111432   3.884   0.699   1.768  0.5784  0.2972  1.4606
  556SOL    HW211433   3.814   0.754   1.905 -1.5599  0.3811  0.3568
  557SOL     OW11434   2.266   9.343   0.412 -0.2014 -0.1170  0.5514
  557SOL    HW111435   2.180   9.342   0.463 -1.1689  3.0973 -0.8587
  557SOL    HW211436   2.272   9.263   0.353 -3.1171  0.4992 -0.6592
  558SOL     OW11437   3.915   3.522   2.253  0.5095 -0.2341  0.1343
  558SOL    HW111438   3.890   3.481   2.165  0.9749 -0.6213  0.1774
  558SOL    HW211439   4.014   3.519   2.263  0.4132 -0.7353  0.9360
  559SOL     OW11440   2.574   5.206   0.417  0.5862  0.7237 -0.3246
  559SOL    HW111441   2.566   5.294   0.370 -1.6467  0.6962 -0.0337
  559SOL    HW211442   2.549   5.133   0.353 -0.5229  0.5407  0.3109
  560SOL     OW11443   3.061   9.854   1.824  0.3485 -0.1755 -0.4576
  560SOL    HW111444   3.034   9.936   1.775 -2.3499 -0.7931 -0.1007
  560SOL    HW211445   3.160   9.853   1.836  0.5655  2.2653 -1.7690
  561SOL     OW11446   4.078   2.154   2.603  0.7243 -0.0563 -0.0175
  561SOL    HW111447   4.144   2.095   2.650  2.0189  0.1865 -1.5131
  561SOL    HW211448   4.115   2.247   2.597 -0.8977  0.7125  1.4737
  562SOL     OW11449   3.748   3.053   0.498  0.0960 -0.0398  0.4738
  562SOL    HW111450   3.765   3.046   0.597  1.5443 -0.7754  0.1800
  562SOL    HW211451   3.827   3.094   0.453  0.0062 -1.0015 -0.5772
  563SOL     OW11452   4.688   3.298   0.877 -0.7867  0.2243  0.3228
  563SOL    HW111453   4.664   3.225   0.813  0.1497 -0.6296  0.9223
  563SOL    HW211454   4.609   3.357   0.892 -1.9458 -1.4300  0.8433
  564SOL     OW11455   3.634   1.927   1.075  0.0323  0.2061 -0.0543
  564SOL    HW111456   3.604   1.833   1.091  0.7578  0.1028  0.7658
  564SOL    HW211457   3.570   1.973   1.013  0.2058 -1.1121 -1.2124
  565SOL     OW11458   2.891   5.578   1.884  0.2073 -0.0169  0.0422
  565SOL    HW111459   2.910   5.566   1.982  0.4367  0.2241  0.0292
  565SOL    HW211460   2.825   5.653   1.872  0.7123  0.4226 -0.0276
  566SOL     OW11461   2.656   1.857   2.717 -1.1596 -0.4879  0.1719
  566SOL    HW111462   2.567   1.855   2.673 -1.8460  2.3288  1.2916
  566SOL    HW211463   2.715   1.924   2.671 -0.2851 -0.9633  0.5884
  567SOL     OW11464   3.126   1.186   1.231  0.1278  0.7080  0.8162
  567SOL    HW111465   3.126   1.096   1.274 -0.0196  0.8253  1.0619
  567SOL    HW211466   3.179   1.250   1.287  1.7470  0.3470 -0.2616
  568SOL     OW11467   4.766   2.229   0.038 -0.0035 -0.1285  0.6462
  568SOL    HW111468   4.757   2.247   0.136  2.8608 -2.3316  1.3842
  568SOL    HW211469   4.862   2.218   0.015 -0.4411  2.3254 -2.8581
  569SOL     OW11470   4.187   2.636   0.077  0.0999 -1.2072 -0.1181
  569SOL    HW111471   4.160   2.606   0.169 -1.2388  1.5847  0.4532
  569SOL    HW211472   4.227   2.727   0.082  1.8434 -1.8179 -2.1055
  570SOL     OW11473   2.483   9.552   0.545 -0.1864  0.1569  0.0514
  570SOL    HW111474   2.412   9.484   0.522  0.4730 -0.1988 -0.9540
  570SOL    HW211475   2.484   9.565   0.644 -1.9559  0.4885  0.0503
  571SOL     OW11476   3.755   7.949   0.479 -0.1492  0.0189  1.0186
  571SOL    HW111477   3.666   7.984   0.447  0.2199  0.7114  0.7348
  571SOL    HW211478   3.820   8.025   0.486  0.6140 -0.5859  0.5899
  572SOL     OW11479   3.535   4.739   0.620  0.1271 -0.3569 -1.0167
  572SOL    HW111480   3.525   4.661   0.681  1.1243  1.0565  1.0240
  572SOL    HW211481   3.522   4.710   0.526  1.2127 -3.1260 -0.3526
  573SOL     OW11482   2.989   2.447   0.876  0.0644  0.2146  0.7369
  573SOL    HW111483   2.990   2.470   0.973  0.7526 -1.6392  1.1937
  573SOL    HW211484   3.083   2.429   0.846 -0.1439  0.8332 -0.2929
  574SOL     OW11485   2.790   9.496   2.268 -0.5476 -0.0492  0.2644
  574SOL    HW111486   2.736   9.466   2.346  0.0236  2.2464  1.6204
  574SOL    HW211487   2.729   9.527   2.195 -1.0870 -1.8199 -0.0405
  575SOL     OW11488   3.516   3.876   2.223 -0.4285  0.3944  0.2589
  575SOL    HW111489   3.532   3.785   2.262  2.0122  1.6789  2.4378
  575SOL    HW211490   3.471   3.867   2.134  0.1601 -2.9523  0.2382
  576SOL     OW11491   2.624   7.829   1.704 -0.0638  0.2508  0.0665
  576SOL    HW111492   2.528   7.830   1.731  0.1428 -1.6163  0.9215
  576SOL    HW211493   2.682   7.851   1.783  0.2607  0.6808 -0.2819
  577SOL     OW11494   2.835   6.407   1.716 -0.4513 -0.1003  0.1175
  577SOL    HW111495   2.789   6.394   1.804  2.1596 -0.0660  1.5525
  577SOL    HW211496   2.794   6.484   1.667 -1.5391  0.2635  1.5808
  578SOL     OW11497   3.945   3.338   2.657  0.5384  0.4044 -0.0981
  578SOL    HW111498   4.003   3.258   2.649 -0.5508 -0.5751  1.4972
  578SOL    HW211499   3.999   3.421   2.640  2.3962 -0.4769  1.4130
  579SOL     OW11500   4.328   2.048   0.480 -0.4802 -0.1422 -0.6392
  579SOL    HW111501   4.297   2.039   0.574  0.7104  0.4754 -0.1746
  579SOL    HW211502   4.291   1.972   0.425 -1.5151 -0.2641  0.2215
  580SOL     OW11503   3.704   8.253   2.700  0.5964 -0.5879  0.2723
  580SOL    HW111504   3.662   8.197   2.771 -0.3448 -1.9454 -1.3300
  580SOL    HW211505   3.674   8.222   2.610 -0.0886  2.5929 -0.6724
  581SOL     OW11506   2.597   7.143   0.375 -0.4550  0.1715 -0.2453
  581SOL    HW111507   2.687   7.118   0.412 -0.4310  0.8042  0.1368
  581SOL    HW211508   2.527   7.126   0.444 -0.5962 -0.1067 -0.4609
  582SOL     OW11509   4.019   2.587   2.464 -0.1653 -0.6249  0.2367
  582SOL    HW111510   3.974   2.558   2.548 -0.3350 -1.5035 -0.1593
  582SOL    HW211511   3.949   2.614   2.397 -0.0326 -0.0305  0.3303
  583SOL     OW11512   2.221   4.857   0.459 -0.4036  0.0004  0.1375
  583SOL    HW111513   2.161   4.780   0.440  1.0292 -1.2241  0.5425
  583SOL    HW211514   2.217   4.879   0.556 -1.5273  1.0690 -0.1290
  584SOL     OW11515   2.133   8.403   0.132  0.3836  0.0622 -0.0029
  584SOL    HW111516   2.158   8.310   0.160  0.4995  0.6276  1.8841
  584SOL    HW211517   2.128   8.408   0.033  2.4394 -1.4378 -0.2256
  585SOL     OW11518   3.073   1.642   2.743  0.4833 -0.2618  0.6804
  585SOL    HW111519   3.079   1.659   2.841 -1.3532 -0.1779  0.7952
  585SOL    HW211520   3.146   1.580   2.715  0.9007 -0.4424  2.1370
  586SOL     OW11521   3.463   4.961   1.313  0.2683  0.4157  0.0215
  586SOL    HW111522   3.521   4.944   1.393  0.6269  1.5448  0.0016
  586SOL    HW211523   3.516   4.946   1.229  0.2620  0.5182 -0.0007
  587SOL     OW11524   3.251   2.542   2.237  0.4834  0.8520 -0.5466
  587SOL    HW111525   3.154   2.522   2.223  0.6690 -1.2054  0.8737
  587SOL    HW211526   3.261   2.632   2.280 -0.8067  0.9806 -0.4978
  588SOL     OW11527   3.057   6.378   2.680 -0.0080  0.3683  0.1961
  588SOL    HW111528   3.067   6.308   2.609 -3.4499 -1.1400  1.0945
  588SOL    HW211529   3.102   6.346   2.764 -1.0131 -0.5027  0.4155
  589SOL     OW11530   4.104   3.874   1.876 -0.0448  0.3946  0.2546
  589SOL    HW111531   4.178   3.918   1.926  0.6774  0.2382 -0.6529
  589SOL    HW211532   4.124   3.878   1.778 -1.1189  0.1346  0.0205
  590SOL     OW11533   3.299   0.584   2.658  0.4469  0.5661 -0.4257
  590SOL    HW111534   3.355   0.507   2.629 -0.3412  0.3691 -1.4607
  590SOL    HW211535   3.255   0.562   2.746  1.4135  0.4405  0.0254
  591SOL     OW11536   2.799   4.817   0.202 -0.3310  0.1452  0.3896
  591SOL    HW111537   2.761   4.731   0.236 -1.6662  1.1369  1.4473
  591SOL    HW211538   2.784   4.824   0.104 -0.2305 -0.8273  0.3045
  592SOL     OW11539   3.533   2.010   1.595 -0.1641  0.7179  0.3802
  592SOL    HW111540   3.558   2.105   1.613 -0.6302  0.3521  3.1614
  592SOL    HW211541   3.472   2.006   1.516 -0.8090  2.8304  0.7438
  593SOL     OW11542   3.044   0.967   2.277  0.3801  0.1877  0.0129
  593SOL    HW111543   3.102   0.998   2.352 -0.7630  0.0581  0.9697
  593SOL    HW211544   3.003   0.879   2.300 -0.8587  0.6663 -0.2821
  594SOL     OW11545   2.692   2.437   2.494  0.5414  0.2343 -0.7151
  594SOL    HW111546   2.681   2.537   2.493 -0.8855  0.0859 -0.6876
  594SOL    HW211547   2.767   2.413   2.556  1.0355  1.3010 -0.8817
  595SOL     OW11548   3.010   8.301   1.776  0.1867  0.4631  0.2546
  595SOL    HW111549   2.986   8.238   1.850  2.2943  0.5365  1.0255
  595SOL    HW211550   2.926   8.335   1.733 -1.0293 -0.7878  1.5805
  596SOL     OW11551   3.194   5.747   0.152  0.2872 -0.0316 -0.4599
  596SOL    HW111552   3.161   5.693   0.229  0.6772  2.1244  1.2754
  596SOL    HW211553   3.117   5.769   0.092 -0.8609  1.8033  1.5807
  597SOL     OW11554   3.188   2.396   1.216 -0.1545  0.2467 -0.1722
  597SOL    HW111555   3.164   2.426   1.309 -0.8119 -0.3564 -0.1449
  597SOL    HW211556   3.287   2.388   1.208  0.1116  3.2709 -0.4335
  598SOL     OW11557   3.100   8.005   0.096  0.5954 -0.0650 -0.1141
  598SOL    HW111558   3.047   8.058   0.163  0.6288 -0.0289 -0.1158
  598SOL    HW211559   3.102   8.054   0.009 -0.9198 -0.9271 -0.6543
  599SOL     OW11560   3.114   8.334   0.538  0.0146  0.2197  0.0233
  599SOL    HW111561   3.114   8.385   0.452 -0.3484  0.0640 -0.0705
  599SOL    HW211562   3.180   8.260   0.533 -0.5779 -0.2847 -0.4191
  600SOL     OW11563   2.338   9.174   2.029 -0.2978  0.4036 -0.2700
  600SOL    HW111564   2.403   9.116   2.079 -1.4586 -0.7821 -0.0977
  600SOL    HW211565   2.365   9.270   2.037  1.1228 -0.0283  0.2433
  601SOL     OW11566   4.623   3.574   0.657  0.8166 -0.3768 -0.0299
  601SOL    HW111567   4.681   3.602   0.734 -0.4024  0.0464  0.7533
  601SOL    HW211568   4.657   3.488   0.620  2.1784  0.0637  0.1558
  602SOL     OW11569   0.880   7.503   1.774 -0.1621 -0.1663 -0.3854
  602SOL    HW111570   0.914   7.424   1.722 -0.4810  0.8140 -2.1087
  602SOL    HW211571   0.957   7.562   1.798  0.0499 -0.8706  0.7253
  603SOL     OW11572   3.051   7.461   0.481 -0.2094 -0.3879  0.4890
  603SOL    HW111573   3.083   7.556   0.488  0.9077 -0.7655  0.6873
  603SOL    HW211574   2.995   7.439   0.560  0.8570 -0.3741  1.2659
  604SOL     OW11575   3.800   3.162   2.159  0.1247  0.3257 -0.2433
  604SOL    HW111576   3.721   3.223   2.157  2.1719  3.1134  0.5092
  604SOL    HW211577   3.836   3.151   2.067 -0.1753  0.3686 -0.3649
  605SOL     OW11578   3.405   5.581   2.112 -0.1337 -0.4111 -0.2805
  605SOL    HW111579   3.339   5.532   2.055 -1.5873  1.6620 -0.4066
  605SOL    HW211580   3.367   5.669   2.140  2.8270  1.1286 -0.8774
  606SOL     OW11581   3.125   7.828   0.436 -0.5406 -0.5707 -0.3162
  606SOL    HW111582   3.208   7.777   0.416 -0.7198 -2.2400  2.9832
  606SOL    HW211583   3.065   7.827   0.356  0.3607 -3.7595 -1.0010
  607SOL     OW11584   2.803   5.128   2.405 -0.0634 -0.1854  0.2801
  607SOL    HW111585   2.900   5.148   2.419 -0.5461  1.4627  1.4815
  607SOL    HW211586   2.787   5.030   2.413  1.8656 -0.7722 -2.3048
  608SOL     OW11587   3.008   7.572   2.812  0.3000  0.2802  0.0743
  608SOL    HW111588   2.973   7.509   2.742  0.3551 -0.3727  0.6282
  608SOL    HW211589   3.020   7.663   2.772  0.6978 -0.1795 -0.8615
  609SOL     OW11590   3.798   3.815   1.755  0.0520 -0.3676 -0.4148
  609SOL    HW111591   3.789   3.730   1.807  0.6898 -0.3605 -0.2884
  609SOL    HW211592   3.809   3.892   1.818  1.0656 -0.3898 -0.5584
  610SOL     OW11593   3.817   4.028   0.551 -0.0254  0.3750  0.2506
  610SOL    HW111594   3.870   4.085   0.613 -0.0955  1.2476 -0.4944
  610SOL    HW211595   3.861   3.938   0.542 -1.3207 -0.6685  3.4974
  611SOL     OW11596   3.624   8.144   2.467 -0.1568  0.1650  0.0597
  611SOL    HW111597   3.579   8.057   2.487  0.8144 -0.2547  0.4164
  611SOL    HW211598   3.637   8.152   2.368  0.7499 -0.5873  0.1164
  612SOL     OW11599   3.515   5.094   2.524 -0.5765  0.5166 -0.3166
  612SOL    HW111600   3.478   5.001   2.519  0.2610  0.2433 -1.5649
  612SOL    HW211601   3.473   5.142   2.601 -2.2562 -0.3474 -0.6630
  613SOL     OW11602   4.477   4.188   2.246 -0.5029  0.2541  0.3428
  613SOL    HW111603   4.566   4.144   2.258 -0.1938  0.8930  0.3916
  613SOL    HW211604   4.443   4.220   2.334  1.0743  3.5986 -0.2197
  614SOL     OW11605   4.356   3.738   0.702  0.0415 -0.1807 -0.0095
  614SOL    HW111606   4.333   3.797   0.780  2.4281  1.4903 -0.4951
  614SOL    HW211607   4.448   3.700   0.716 -0.1063 -1.0372 -1.3351
  615SOL     OW11608   2.526   7.408   0.315  0.7321 -0.4994 -0.5655
  615SOL    HW111609   2.615   7.454   0.322  1.2130 -1.5940  0.8304
  615SOL    HW211610   2.538   7.310   0.329 -0.5481 -0.8059 -1.5456
  616SOL     OW11611   3.631   4.930   1.519 -0.7904 -0.9283  0.6265
  616SOL    HW111612   3.726   4.932   1.489 -1.5100  2.9633 -1.7004
  616SOL    HW211613   3.624   4.968   1.611 -0.1936 -0.2934  0.4128
  617SOL     OW11614   2.924   4.253   0.275 -0.6444 -0.0425 -0.4101
  617SOL    HW111615   3.015   4.276   0.241 -1.0451 -1.2957 -2.4052
  617SOL    HW211616   2.890   4.328   0.331  0.7351  1.3754 -1.4247
  618SOL     OW11617   4.167   4.492   0.533  0.4191 -0.1869 -0.3766
  618SOL    HW111618   4.230   4.428   0.489  0.9734  1.0407 -1.3918
  618SOL    HW211619   4.219   4.561   0.584 -0.1119  0.5574 -0.8258
  619SOL     OW11620   2.533   6.754   2.660  0.4546  0.1098 -0.4863
  619SOL    HW111621   2.542   6.790   2.568  1.8531 -2.6222 -1.4900
  619SOL    HW211622   2.459   6.687   2.663  0.5296  0.0568  0.3014
  620SOL     OW11623   3.615   0.159   0.606 -0.8551  0.0266  0.7855
  620SOL    HW111624   3.624   0.140   0.704  0.8650  1.9004  1.0134
  620SOL    HW211625   3.594   0.256   0.592  0.9469  0.2130 -0.7830
  621SOL     OW11626   3.645   8.517   2.663  0.0191  0.5339 -0.7130
  621SOL    HW111627   3.676   8.423   2.680  0.0588  0.0982 -3.0632
  621SOL    HW211628   3.724   8.576   2.646 -0.0521  0.8330 -0.0144
  622SOL     OW11629   2.918   4.327   2.506  0.0284  0.2969  0.4924
  622SOL    HW111630   2.869   4.241   2.516 -1.0327  0.5887 -1.7041
  622SOL    HW211631   2.858   4.393   2.460  1.8322  1.2552 -0.5266
  623SOL     OW11632   4.320   4.027   1.957 -0.9032 -0.4518 -0.0498
  623SOL    HW111633   4.309   4.091   2.032  3.9300 -0.2264  0.6061
  623SOL    HW211634   4.340   4.077   1.873  1.5703 -0.9687  0.1958
  624SOL     OW11635   4.539   1.855   0.791  0.4488 -0.4299 -0.4860
  624SOL    HW111636   4.631   1.879   0.822  0.8293 -0.5081 -1.5407
  624SOL    HW211637   4.529   1.755   0.792  0.4341 -0.4288 -0.5385
  625SOL     OW11638   3.809   0.357   2.676  0.2174  0.1360 -0.9044
  625SOL    HW111639   3.873   0.352   2.754  3.4256  2.3748 -3.2305
  625SOL    HW211640   3.745   0.281   2.680  0.4093  0.0655  3.7964
  626SOL     OW11641   3.969   3.014   1.338 -0.7063  0.1216 -0.5748
  626SOL    HW111642   3.997   3.109   1.354 -2.5992  0.3304  1.8592
  626SOL    HW211643   3.914   2.982   1.415  0.4691 -3.2164 -1.0140
  627SOL     OW11644   3.421   2.224   2.800  0.1910 -0.2202 -0.0700
  627SOL    HW111645   3.380   2.169   2.727 -1.0342  0.3426  0.1824
  627SOL    HW211646   3.391   2.189   2.889 -2.6737  2.3522  0.0689
  628SOL     OW11647   3.574   8.826   1.751 -0.5268 -0.0516  0.3146
  628SOL    HW111648   3.656   8.773   1.772  0.2090  0.8334 -0.2833
  628SOL    HW211649   3.542   8.872   1.834  0.3860  0.7110  0.2441
  629SOL     OW11650   3.586   2.725   0.980  0.1177 -0.4775 -0.0702
  629SOL    HW111651   3.540   2.647   1.022  0.6445 -0.1924  1.0567
  629SOL    HW211652   3.520   2.797   0.961  0.0004 -0.3019  0.9940
  630SOL     OW11653   5.075   3.088   0.903  0.1423 -0.0633 -0.4923
  630SOL    HW111654   5.150   3.058   0.963  0.8552  0.8528 -0.9175
  630SOL    HW211655   5.029   3.167   0.943  1.4393  1.3598 -1.7433
  631SOL     OW11656   3.692   3.317   0.218  0.0918  0.3762 -0.0556
  631SOL    HW111657   3.690   3.351   0.312 -1.2758 -1.5725  0.6661
  631SOL    HW211658   3.689   3.217   0.219  2.2900  0.2539 -2.1337
  632SOL     OW11659   3.508   2.714   1.510 -0.0460  0.2066 -0.6678
  632SOL    HW111660   3.440   2.641   1.517 -0.3112  0.4653 -0.5439
  632SOL    HW211661   3.464   2.798   1.480  0.2344  0.3525 -0.6719
  633SOL     OW11662   2.009   8.358   2.567 -0.0121 -0.1846  0.1726
  633SOL    HW111663   1.994   8.285   2.634 -1.8696  0.3303  0.3375
  633SOL    HW211664   1.988   8.324   2.475 -0.0391 -0.1248  0.1560
  634SOL     OW11665   3.425   2.096   2.048 -0.4693 -0.2221 -0.5021
  634SOL    HW111666   3.515   2.082   2.089 -0.0040 -0.3137 -1.5403
  634SOL    HW211667   3.418   2.044   1.963 -1.5057 -0.2191 -0.4245
  635SOL     OW11668   2.590   0.101   2.426 -0.3331 -0.1057  0.1702
  635SOL    HW111669   2.646   0.047   2.363  0.4566 -0.2574  0.9944
  635SOL    HW211670   2.550   0.178   2.377  0.5999  0.0036 -0.4357
  636SOL     OW11671   2.180   0.061   1.820 -0.7974 -0.7317  0.1306
  636SOL    HW111672   2.087   0.053   1.785 -1.5265 -0.3105  1.9228
  636SOL    HW211673   2.190   0.007   1.903  0.5521 -0.7504 -0.0285
  637SOL     OW11674   3.452   5.164   2.846  0.2193 -0.2533 -0.1285
  637SOL    HW111675   3.471   5.260   2.865  0.2195 -0.7375  2.5508
  637SOL    HW211676   3.498   5.107   2.914 -1.4163 -2.0249 -0.4580
  638SOL     OW11677   3.085   5.190   2.398  0.2509  0.3303  0.0839
  638SOL    HW111678   3.130   5.251   2.333  1.8101 -0.5832  0.2965
  638SOL    HW211679   3.103   5.095   2.374  1.0862 -0.0238  1.9947
  639SOL     OW11680   2.162   8.599   0.752  0.1241  0.3300 -0.0521
  639SOL    HW111681   2.098   8.640   0.687 -0.0217  0.5679  0.2416
  639SOL    HW211682   2.119   8.521   0.796 -0.0862  0.6854  0.3825
  640SOL     OW11683   2.971   0.740   0.347 -0.0395 -0.0134 -0.3126
  640SOL    HW111684   3.052   0.707   0.394  1.1178  0.5744 -1.8534
  640SOL    HW211685   2.941   0.672   0.280  0.6702  0.7949 -1.4845
  641SOL     OW11686   4.171   2.413   0.843  0.2799  0.0906 -0.3326
  641SOL    HW111687   4.188   2.316   0.831 -0.2887 -0.0909  0.3159
  641SOL    HW211688   4.088   2.439   0.794 -1.3737 -0.4100  2.1163
  642SOL     OW11689   2.898   2.573   0.314 -1.0981  0.1389 -0.7039
  642SOL    HW111690   2.804   2.602   0.295 -0.4909  0.8787 -2.6580
  642SOL    HW211691   2.911   2.565   0.413 -2.2446  3.4110 -0.2343
  643SOL     OW11692   3.167   7.057   2.711 -0.5545  0.2445 -0.8501
  643SOL    HW111693   3.164   7.108   2.797  1.2653 -1.2461  0.1272
  643SOL    HW211694   3.098   6.984   2.713  1.3414 -1.5880  0.5669
  644SOL     OW11695   3.867   1.402   1.932 -0.1148 -0.1835  0.3049
  644SOL    HW111696   3.827   1.397   2.023 -1.2796 -0.4276 -0.2161
  644SOL    HW211697   3.899   1.495   1.914 -2.2038  0.4956 -0.0037
  645SOL     OW11698   3.364   4.646   2.203  0.2744 -0.0126  0.2036
  645SOL    HW111699   3.456   4.619   2.228  0.7528  0.7845 -0.6505
  645SOL    HW211700   3.306   4.649   2.285  0.5513 -2.2044  0.4913
  646SOL     OW11701   3.221   5.159   1.790  0.0868 -0.4470  0.3772
  646SOL    HW111702   3.197   5.193   1.881 -1.1206  0.4680 -0.2760
  646SOL    HW211703   3.264   5.232   1.737 -0.4464 -0.5891 -0.2548
  647SOL     OW11704   3.095   4.502   0.839 -0.1438 -0.3019  0.1877
  647SOL    HW111705   3.073   4.597   0.816  1.6861  0.0045 -0.4584
  647SOL    HW211706   3.102   4.448   0.755  1.1823 -0.4424  0.3771
  648SOL     OW11707   3.277   2.707   1.166 -0.2875 -0.2020 -0.1757
  648SOL    HW111708   3.289   2.761   1.083  0.5074 -1.0801 -0.6428
  648SOL    HW211709   3.180   2.702   1.189 -0.4045  1.0315 -0.3799
  649SOL     OW11710   2.374   7.118   1.789  0.0324 -0.0272 -0.3244
  649SOL    HW111711   2.458   7.171   1.797 -1.2763  1.8481  1.7876
  649SOL    HW211712   2.366   7.057   1.868 -0.9777  0.4248 -0.0644
  650SOL     OW11713   2.607   3.795   0.271  0.9435 -0.4309  0.0411
  650SOL    HW111714   2.633   3.735   0.347  1.4230 -0.3888 -0.0913
  650SOL    HW211715   2.643   3.887   0.287  0.8514 -0.3653 -0.1294
  651SOL     OW11716   3.315   0.643   0.991 -0.1693 -0.3807  0.0321
  651SOL    HW111717   3.325   0.547   0.965 -0.8517 -0.7464  1.0831
  651SOL    HW211718   3.406   0.685   0.995  0.2169 -1.2355  0.5089
  652SOL     OW11719   2.677   4.087   1.369 -0.0615 -0.0204 -0.3153
  652SOL    HW111720   2.754   4.038   1.328 -0.8444 -1.4307 -0.1344
  652SOL    HW211721   2.702   4.182   1.383  2.5851 -0.9914  2.0758
  653SOL     OW11722   3.237   1.471   1.673  0.0093 -0.3562  0.0510
  653SOL    HW111723   3.257   1.546   1.735 -0.8167 -1.3737  1.5747
  653SOL    HW211724   3.322   1.429   1.641  0.4295 -0.2047  0.9637
  654SOL     OW11725   4.652   1.693   2.205 -0.1360  0.1120  0.0933
  654SOL    HW111726   4.683   1.770   2.262  0.8502 -0.6622  0.6134
  654SOL    HW211727   4.623   1.727   2.116 -0.1380  1.1500  0.4863
  655SOL     OW11728   4.081   4.874   1.015  0.1091 -0.1264 -0.2213
  655SOL    HW111729   4.002   4.898   0.959  1.0503  0.5721 -1.2623
  655SOL    HW211730   4.120   4.787   0.983 -0.4824 -0.6984  0.5706
  656SOL     OW11731   3.100   9.856   1.203  0.0052  0.6301  0.0505
  656SOL    HW111732   3.134   9.823   1.114 -1.7370 -1.0383 -0.0157
  656SOL    HW211733   3.003   9.833   1.212  1.0534 -2.5956  3.9781
  657SOL     OW11734   2.703   5.087   2.040  0.0368 -0.0093  0.0107
  657SOL    HW111735   2.676   5.173   1.997  1.8281  0.9023  0.6742
  657SOL    HW211736   2.681   5.011   1.979 -1.3320  0.9160 -0.6800
  658SOL     OW11737   2.987   2.690   2.551 -0.2005  0.3637 -0.0502
  658SOL    HW111738   2.889   2.685   2.531 -0.0088 -0.6051 -0.7846
  658SOL    HW211739   3.026   2.598   2.549  0.8145  0.7944 -0.2417
  659SOL     OW11740   4.331   1.779   2.226 -0.0919 -0.2696  0.0109
  659SOL    HW111741   4.362   1.830   2.306  1.3425  1.4352 -1.6189
  659SOL    HW211742   4.398   1.709   2.203 -0.0699 -0.1455 -0.2908
  660SOL     OW11743   2.207   9.266   2.672  0.1281 -0.8043  0.4657
  660SOL    HW111744   2.151   9.188   2.644  0.6511 -0.7507 -0.7930
  660SOL    HW211745   2.224   9.262   2.770 -1.4678 -1.2095  0.7390
  661SOL     OW11746   3.183   5.690   1.326 -0.7068 -0.2746 -0.2687
  661SOL    HW111747   3.135   5.655   1.407 -0.5429 -1.1235 -0.5316
  661SOL    HW211748   3.201   5.615   1.263 -1.0860  0.4273 -1.2320
  662SOL     OW11749   3.494   1.270   1.147 -0.3939  0.6708 -0.0470
  662SOL    HW111750   3.542   1.185   1.168 -0.7893  0.9588  2.0685
  662SOL    HW211751   3.427   1.253   1.074  0.3284 -0.5471 -0.4441
  663SOL     OW11752   2.866   2.980   1.912  0.0992 -0.5300  0.0588
  663SOL    HW111753   2.872   3.061   1.970  0.2016 -0.8530  0.5066
  663SOL    HW211754   2.814   2.909   1.960 -0.5592 -0.5027 -0.5920
  664SOL     OW11755   2.561   9.061   0.924 -0.2049  0.4670  0.4264
  664SOL    HW111756   2.540   8.987   0.859  0.1970  1.2173 -0.5627
  664SOL    HW211757   2.554   9.025   1.017  1.6046 -1.2753 -0.0654
  665SOL     OW11758   2.544   8.954   1.197  0.1782 -0.1406  0.4026
  665SOL    HW111759   2.514   8.937   1.291  1.1472 -0.2560  0.6995
  665SOL    HW211760   2.593   9.041   1.193 -1.0615  0.5315 -0.2710
  666SOL     OW11761   4.026   9.195   2.491 -0.7181 -0.2100 -0.0945
  666SOL    HW111762   4.023   9.294   2.473  2.6814 -0.4130 -2.4796
  666SOL    HW211763   4.032   9.179   2.589  1.7752  2.1835  0.2240
  667SOL     OW11764   3.866   1.656   0.820  0.6794  0.1698  0.7881
  667SOL    HW111765   3.918   1.710   0.755 -0.7333  3.4053  2.2014
  667SOL    HW211766   3.916   1.651   0.907  0.5420 -0.3182  0.8414
  668SOL     OW11767   2.326   5.958   2.730  0.1552 -0.3919  0.4282
  668SOL    HW111768   2.297   5.952   2.634  1.7119 -0.2112 -0.0724
  668SOL    HW211769   2.344   6.054   2.752 -1.3355 -0.2908  1.2618
  669SOL     OW11770   4.920   3.966   2.021 -0.2615 -0.4418  0.3068
  669SOL    HW111771   4.868   3.931   1.943 -1.1435 -0.8313  1.0569
  669SOL    HW211772   4.950   4.059   2.002 -0.2991 -0.6111 -0.5827
  670SOL     OW11773   2.543   8.473   1.602 -0.7381  0.1589  0.4772
  670SOL    HW111774   2.636   8.439   1.591 -0.2512  1.8347 -0.7703
  670SOL    HW211775   2.480   8.395   1.611  0.2811 -1.1093 -2.6546
  671SOL     OW11776   4.042   1.872   1.337 -0.1157 -0.1965 -0.7460
  671SOL    HW111777   3.943   1.875   1.349 -0.1280 -1.5609 -0.4312
  671SOL    HW211778   4.074   1.961   1.305 -1.5474 -0.0242 -1.7393
  672SOL     OW11779   3.695   0.141   1.278  0.3834  0.2557 -0.3278
  672SOL    HW111780   3.670   0.045   1.286  2.0932  0.0083  2.5333
  672SOL    HW211781   3.787   0.149   1.241 -0.0315  0.8398 -1.2577
  673SOL     OW11782   2.626   9.446   2.462 -0.2148 -0.1753 -0.0534
  673SOL    HW111783   2.594   9.368   2.517  1.8261  0.0390  1.5009
  673SOL    HW211784   2.630   9.527   2.520  0.1893  0.4900 -1.0122
  674SOL     OW11785   2.597   4.259   1.602 -0.4801  0.7267  0.4301
  674SOL    HW111786   2.560   4.171   1.571 -1.2390  0.6996  1.3764
  674SOL    HW211787   2.637   4.307   1.524  1.0813 -0.9988  0.1282
  675SOL     OW11788   4.059   0.474   1.426 -0.2348  0.2272  0.4516
  675SOL    HW111789   4.086   0.553   1.371  4.1471 -0.7680  0.9282
  675SOL    HW211790   4.015   0.406   1.368  0.3652  1.0195 -0.9493
  676SOL     OW11791   4.083   4.123   0.727 -0.1647 -0.2075 -0.6255
  676SOL    HW111792   4.071   4.025   0.715  0.6046 -0.4497  0.5937
  676SOL    HW211793   4.175   4.149   0.697 -0.3590  0.1411 -0.9228
  677SOL     OW11794   3.203   1.881   1.894  0.6327  0.2841  0.0982
  677SOL    HW111795   3.150   1.801   1.924  0.7045  0.8885  1.8849
  677SOL    HW211796   3.300   1.858   1.896  0.6344  0.3057  0.2207
  678SOL     OW11797   3.791   1.709   2.418  0.3980  0.1561 -0.3949
  678SOL    HW111798   3.849   1.775   2.466 -0.6896  1.4865 -0.9013
  678SOL    HW211799   3.837   1.620   2.417  2.1096  1.0147 -0.1750
  679SOL     OW11800   4.140   3.276   1.062  0.1575 -0.2110 -0.0185
  679SOL    HW111801   4.100   3.276   1.153 -1.5469 -1.2880 -0.7547
  679SOL    HW211802   4.170   3.184   1.038  0.4721  0.0400 -0.6121
  680SOL     OW11803   4.272   1.858   0.705  0.1908 -0.1315 -0.2638
  680SOL    HW111804   4.360   1.892   0.736 -0.3860  1.0662  0.0900
  680SOL    HW211805   4.284   1.769   0.659  1.1554 -1.5021  2.5522
  681SOL     OW11806   2.701   8.224   0.146  0.2695  0.0317  0.7147
  681SOL    HW111807   2.662   8.216   0.238  1.8200  0.3923  1.4208
  681SOL    HW211808   2.800   8.213   0.151  0.5874  1.9562 -0.6544
  682SOL     OW11809   4.409   4.242   2.508  0.0989 -0.0313  0.8630
  682SOL    HW111810   4.382   4.300   2.585 -1.5120 -1.1129  1.1302
  682SOL    HW211811   4.327   4.205   2.464  0.9853  0.8053 -1.5736
  683SOL     OW11812   2.335   7.471   2.361 -0.1610  0.5895  0.1715
  683SOL    HW111813   2.318   7.377   2.392 -1.5914  1.1924  1.2890
  683SOL    HW211814   2.420   7.505   2.402 -0.2363  0.1726  0.6812
  684SOL     OW11815   5.221   2.628   0.886 -0.0560 -0.3645  0.3016
  684SOL    HW111816   5.270   2.680   0.816  1.3263 -0.2369  1.3393
  684SOL    HW211817   5.158   2.564   0.843  0.5335 -0.0469 -1.0412
  685SOL     OW11818   3.835   3.831   0.213  0.0558 -0.3233  0.2346
  685SOL    HW111819   3.828   3.749   0.156 -0.0808 -0.0176 -0.1859
  685SOL    HW211820   3.929   3.865   0.210 -0.5059  1.1070 -1.7707
  686SOL     OW11821   2.417   8.766   2.392  0.2005 -0.3739  0.5661
  686SOL    HW111822   2.507   8.756   2.350  0.2660  1.1357  0.3285
  686SOL    HW211823   2.425   8.753   2.491  0.4621 -1.4826  0.4043
  687SOL     OW11824   3.277   1.495   2.665  0.1172  0.3164 -0.2436
  687SOL    HW111825   3.217   1.471   2.589  2.4777 -1.6832 -1.5700
  687SOL    HW211826   3.277   1.422   2.733 -1.2899  1.6949  1.2579
  688SOL     OW11827   2.984   3.264   1.856 -0.0069 -0.0583  0.0386
  688SOL    HW111828   2.975   3.240   1.953  0.6610  0.4676  0.2292
  688SOL    HW211829   2.893   3.270   1.814 -0.2554 -1.2623  0.3947
  689SOL     OW11830   2.885   9.597   2.693 -0.2315  0.0097  0.4183
  689SOL    HW111831   2.786   9.579   2.696 -0.3226  0.5215  0.5548
  689SOL    HW211832   2.901   9.694   2.707  0.3203 -0.1475  0.9157
  690SOL     OW11833   2.987   7.663   1.956  1.1026  0.1318  0.4394
  690SOL    HW111834   3.004   7.700   2.048  1.8066  2.4553 -0.5987
  690SOL    HW211835   2.888   7.653   1.943  0.8722  2.0128  0.6196
  691SOL     OW11836   2.801   6.791   0.457 -0.3257 -0.2227 -0.5258
  691SOL    HW111837   2.709   6.786   0.495  0.5763  0.2150  1.7683
  691SOL    HW211838   2.843   6.700   0.458  1.1192  0.4169  3.2336
  692SOL     OW11839   2.546   5.727   2.751 -0.2471  0.2626  1.0020
  692SOL    HW111840   2.585   5.790   2.817 -0.4659  1.9502 -0.4325
  692SOL    HW211841   2.614   5.658   2.725  1.0914  1.8723  0.1479
  693SOL     OW11842   3.350   5.447   0.187 -0.4986  0.1999  0.7703
  693SOL    HW111843   3.280   5.498   0.238  1.0551  2.2383  0.9348
  693SOL    HW211844   3.416   5.511   0.148  1.0454 -1.6613  0.2487
  694SOL     OW11845   3.000   2.206   1.527  0.1494 -0.7048 -0.1326
  694SOL    HW111846   3.033   2.193   1.621 -1.6665  0.0756  0.6383
  694SOL    HW211847   2.979   2.117   1.487 -1.4154 -0.9193  1.0998
  695SOL     OW11848   3.158   8.019   1.128  0.2015 -0.4977  0.5721
  695SOL    HW111849   3.090   7.950   1.152 -0.2558  0.2002  1.3082
  695SOL    HW211850   3.181   8.073   1.208  0.5908  0.1704  0.0185
  696SOL     OW11851   3.993   2.317   1.451 -0.2599  0.4338  0.1299
  696SOL    HW111852   4.062   2.353   1.388  0.6990 -0.5082  0.6154
  696SOL    HW211853   3.979   2.382   1.526 -0.8831  1.2346 -0.6775
  697SOL     OW11854   2.678   0.531   1.930 -0.4491 -1.0884  0.7091
  697SOL    HW111855   2.644   0.606   1.873 -0.1729 -2.5257 -1.4442
  697SOL    HW211856   2.642   0.444   1.895  1.9846 -2.2681  1.0045
  698SOL     OW11857   2.450   6.292   2.535 -0.0957 -0.3173  0.0646
  698SOL    HW111858   2.472   6.206   2.489 -1.8988 -0.9546  0.3170
  698SOL    HW211859   2.448   6.366   2.468 -0.3220 -0.8060 -0.4800
  699SOL     OW11860   3.297   3.809   2.801 -0.4030 -0.2329 -0.0668
  699SOL    HW111861   3.309   3.754   2.718 -1.3733  0.7435 -0.8731
  699SOL    HW211862   3.238   3.760   2.865 -0.4490 -0.5772 -0.3689
  700SOL     OW11863   4.008   4.427   0.821  0.3907 -0.0376  0.0390
  700SOL    HW111864   3.920   4.475   0.816 -0.3830 -1.3230  1.0053
  700SOL    HW211865   4.019   4.369   0.741  1.2469  1.5824 -1.0430
  701SOL     OW11866   3.124   5.007   1.022  0.9141 -0.3656  0.8574
  701SOL    HW111867   3.113   5.106   1.036 -0.4473 -0.3974  0.1263
  701SOL    HW211868   3.182   4.969   1.093  2.1477  1.1131  0.6678
  702SOL     OW11869   3.719   3.415   0.476 -0.6099 -0.5585 -0.1979
  702SOL    HW111870   3.708   3.502   0.525  0.0397 -0.4060 -0.3179
  702SOL    HW211871   3.802   3.369   0.509 -0.2545 -0.5269 -1.0560
  703SOL     OW11872   2.465   6.969   1.218 -0.2478 -0.0473 -0.6468
  703SOL    HW111873   2.527   6.898   1.184 -2.4545 -2.4703  0.1974
  703SOL    HW211874   2.390   6.981   1.153 -1.6333 -0.8890  0.7597
  704SOL     OW11875   2.952   1.716   2.189 -1.0071 -0.7790  0.1548
  704SOL    HW111876   2.862   1.754   2.214 -0.8639 -1.5347  1.9226
  704SOL    HW211877   3.022   1.755   2.249 -0.3446 -1.1607 -0.3666
  705SOL     OW11878   2.132   7.928   2.172 -1.5973  0.2002  0.0054
  705SOL    HW111879   2.174   7.921   2.263 -0.2018 -0.1730 -0.6595
  705SOL    HW211880   2.180   7.997   2.118 -2.0458 -0.0004 -0.6546
  706SOL     OW11881   4.328   1.317   1.509 -0.4959  0.1401 -0.4116
  706SOL    HW111882   4.314   1.225   1.472  0.0899  0.1115 -0.5659
  706SOL    HW211883   4.344   1.310   1.608  0.2095  0.0166 -0.5327
  707SOL     OW11884   4.175   4.592   0.989  0.2374  0.1088  0.6505
  707SOL    HW111885   4.254   4.530   0.993  0.2609  0.1036  0.1618
  707SOL    HW211886   4.108   4.555   0.925 -0.3619 -0.1100  1.3951
  708SOL     OW11887   3.595   1.125   0.855 -0.2499  0.7441 -0.0655
  708SOL    HW111888   3.554   1.109   0.764 -1.7897 -1.5894  0.9703
  708SOL    HW211889   3.531   1.178   0.911  0.2004  1.1923  0.0192
  709SOL     OW11890   2.539   2.948   2.364 -0.5389  0.2795  0.0952
  709SOL    HW111891   2.507   3.017   2.298  0.9136 -0.7894 -1.7772
  709SOL    HW211892   2.635   2.965   2.387 -0.4114 -0.6308  0.2692
  710SOL     OW11893   4.027   1.063   1.302  0.1354  0.5416 -0.5873
  710SOL    HW111894   3.970   1.144   1.315  0.6980  0.5556  1.9978
  710SOL    HW211895   3.976   0.981   1.329  0.8583  0.4222  0.4431
  711SOL     OW11896   3.214   7.890   1.395 -0.1809 -0.1637 -0.1984
  711SOL    HW111897   3.285   7.948   1.433  0.2108 -1.6504  1.3739
  711SOL    HW211898   3.124   7.926   1.421 -0.0131  1.1581 -1.3738
  712SOL     OW11899   2.952   4.398   1.661  0.2090 -0.2391  0.0108
  712SOL    HW111900   2.865   4.436   1.692 -0.0025 -0.1631 -0.6648
  712SOL    HW211901   3.027   4.455   1.695 -0.1208  1.0463 -1.3297
  713SOL     OW11902   2.647   7.912   2.359  0.6465 -0.0712 -0.4203
  713SOL    HW111903   2.703   7.946   2.284  1.6819 -1.9522 -0.5306
  713SOL    HW211904   2.699   7.916   2.444 -0.1330  1.0018  0.0270
  714SOL     OW11905   3.863   8.964   2.847 -0.0094 -0.1246 -0.0874
  714SOL    HW111906   3.901   8.899   2.913  1.0151  0.7231  0.1775
  714SOL    HW211907   3.775   8.930   2.815 -0.5245 -0.5648  1.6943
  715SOL     OW11908   4.092   4.873   1.288  0.0584  0.0971 -0.4757
  715SOL    HW111909   4.112   4.775   1.284  1.0711  0.2593  0.3686
  715SOL    HW211910   4.063   4.905   1.198  1.8709 -0.5464 -1.3070
  716SOL     OW11911   2.670   4.032   2.706  0.6039  0.2331  0.2704
  716SOL    HW111912   2.742   4.093   2.740  0.4988  0.4926  0.0296
  716SOL    HW211913   2.603   4.017   2.778 -0.3962  1.9595 -0.2667
  717SOL     OW11914   2.826   3.672   2.464 -0.3104  0.3647  0.4596
  717SOL    HW111915   2.782   3.690   2.376 -0.3013  1.4446  0.6740
  717SOL    HW211916   2.899   3.738   2.480 -0.1366  0.0159  1.1632
  718SOL     OW11917   3.178   1.423   0.307  0.3130 -0.1064  0.4374
  718SOL    HW111918   3.276   1.424   0.327  0.1836 -0.6900  1.1005
  718SOL    HW211919   3.165   1.438   0.209  1.0239  0.7734  0.4629
  719SOL     OW11920   3.057   3.667   2.858 -0.1880  0.8408 -0.1434
  719SOL    HW111921   3.039   3.645   2.954 -0.9027 -0.2288 -0.5106
  719SOL    HW211922   2.978   3.713   2.819  0.2891  1.7060 -0.0899
  720SOL     OW11923   4.064   3.481   1.540 -0.2298 -0.1264  0.4322
  720SOL    HW111924   4.088   3.553   1.474 -0.6261 -1.1235 -0.8289
  720SOL    HW211925   4.108   3.501   1.627  0.9117  0.8476 -0.3334
  721SOL     OW11926   4.213   2.060   2.360 -0.1393 -0.0770 -0.2769
  721SOL    HW111927   4.181   2.008   2.281 -0.3409 -1.6562  0.8217
  721SOL    HW211928   4.136   2.077   2.422  0.5028 -1.0370  0.7888
  722SOL     OW11929   3.912   2.108   2.382  0.1679 -0.0251 -1.0231
  722SOL    HW111930   3.959   2.133   2.467  0.8281  0.8945 -1.6461
  722SOL    HW211931   3.823   2.153   2.378  1.6609  2.9337 -2.4872
  723SOL     OW11932   3.466   2.911   2.110 -0.2439 -0.8831  0.2351
  723SOL    HW111933   3.532   2.931   2.183 -0.8302  1.3885  0.1688
  723SOL    HW211934   3.510   2.925   2.022 -0.1305 -1.6672  0.1655
  724SOL     OW11935   3.603   5.393   2.092 -0.2864 -0.1236 -0.7808
  724SOL    HW111936   3.578   5.316   2.151  0.1005 -0.3436 -0.8975
  724SOL    HW211937   3.527   5.456   2.085 -0.0901  0.2652  0.5255
  725SOL     OW11938   2.692   4.754   0.901  0.3126  0.0809 -0.1493
  725SOL    HW111939   2.737   4.682   0.953 -0.9891  0.0980  1.0221
  725SOL    HW211940   2.630   4.806   0.960  0.7686  1.7879 -1.1073
  726SOL     OW11941   2.909   8.597   0.204  0.2106  0.3592 -0.1206
  726SOL    HW111942   2.822   8.564   0.169 -0.1352 -1.0809  1.9788
  726SOL    HW211943   2.893   8.666   0.275  0.7771  0.0063  0.3546
  727SOL     OW11944   2.868   5.321   2.132 -0.1869 -0.1365  0.6048
  727SOL    HW111945   2.841   5.225   2.126 -1.0754  0.1624 -0.3896
  727SOL    HW211946   2.788   5.379   2.122  0.5405  0.7302 -0.2816
  728SOL     OW11947   3.231   5.469   1.170 -0.6531  0.6124 -0.0875
  728SOL    HW111948   3.324   5.486   1.139 -0.0041 -1.4681  0.5963
  728SOL    HW211949   3.174   5.440   1.093 -0.4854  0.9615 -0.3412
  729SOL     OW11950   3.812   1.029   0.395 -0.2880  0.6674  0.2584
  729SOL    HW111951   3.727   1.039   0.344  0.1586  0.8486 -0.4601
  729SOL    HW211952   3.792   1.000   0.489 -1.0885 -0.2469 -0.1896
  730SOL     OW11953   4.108   1.332   0.175 -0.8863  0.7693  0.1159
  730SOL    HW111954   4.129   1.254   0.115 -0.3410  1.2003 -0.2603
  730SOL    HW211955   4.072   1.298   0.261 -0.5124  0.0868  0.0132
  731SOL     OW11956   3.247   7.356   2.612  0.2416 -0.7604 -0.2175
  731SOL    HW111957   3.277   7.266   2.642  0.9513 -0.5390 -0.2588
  731SOL    HW211958   3.273   7.424   2.681 -2.9384 -0.9633  1.2873
  732SOL     OW11959   2.726   8.289   0.695  0.2597 -0.1989 -0.1598
  732SOL    HW111960   2.712   8.385   0.717  2.6883 -0.9756  5.5891
  732SOL    HW211961   2.649   8.234   0.728 -0.6524 -0.4407 -2.5466
  733SOL     OW11962   3.524   1.630   1.353  0.1290 -0.7039  0.7213
  733SOL    HW111963   3.536   1.682   1.437 -0.9094  1.0471 -0.1792
  733SOL    HW211964   3.497   1.536   1.374 -0.6019 -0.1404  2.3175
  734SOL     OW11965   3.987   0.278   0.972  0.2228  0.1179 -0.0096
  734SOL    HW111966   4.078   0.267   1.014  0.6553 -1.2304 -1.2322
  734SOL    HW211967   3.989   0.356   0.909  0.5307  0.1200 -0.0002
  735SOL     OW11968   4.258   2.694   0.945 -0.3574 -0.1515  0.1640
  735SOL    HW111969   4.309   2.643   1.015 -0.7404 -0.3458  0.3012
  735SOL    HW211970   4.198   2.631   0.896  0.3319 -0.1267 -0.7275
  736SOL     OW11971   2.373   7.089   0.580  0.5920 -0.3673 -0.2187
  736SOL    HW111972   2.329   7.142   0.653 -0.4346 -0.9734 -0.3947
  736SOL    HW211973   2.364   6.992   0.599  1.3908 -0.5060 -0.5346
  737SOL     OW11974   2.756   8.868   1.809  0.2294 -0.3135  0.1346
  737SOL    HW111975   2.717   8.928   1.880  0.1995  0.8901 -0.8901
  737SOL    HW211976   2.790   8.784   1.852  0.6720  0.6213  1.6512
  738SOL     OW11977   2.387   8.566   0.595 -0.9063  0.2778  0.0681
  738SOL    HW111978   2.312   8.588   0.657  1.2599 -2.0155  3.7248
  738SOL    HW211979   2.366   8.482   0.546 -3.6233  3.3055 -4.2145
  739SOL     OW11980   2.972   1.917   1.412 -0.1477  0.8585  0.1290
  739SOL    HW111981   2.920   1.908   1.327  0.1886  0.2556 -0.0095
  739SOL    HW211982   3.004   1.828   1.442 -0.1408  1.0855  0.8194
  740SOL     OW11983   2.468   4.678   0.720  0.3764  0.2465  0.4111
  740SOL    HW111984   2.529   4.688   0.798  2.1921 -0.0428 -0.9335
  740SOL    HW211985   2.512   4.717   0.639 -0.2523 -2.0044 -1.0543
  741SOL     OW11986   2.875   6.857   0.752 -0.2113  0.3293  0.0107
  741SOL    HW111987   2.828   6.915   0.686 -0.0743  0.3497 -0.0679
  741SOL    HW211988   2.913   6.777   0.707  0.9103  0.9385 -0.1455
  742SOL     OW11989   3.408   8.755   0.980 -0.0300  0.0600 -0.1158
  742SOL    HW111990   3.370   8.769   0.888 -0.0992 -2.2557 -0.4690
  742SOL    HW211991   3.355   8.809   1.046 -0.8237  0.7015 -1.2456
  743SOL     OW11992   2.576   9.599   0.253  0.0100 -0.0898  0.4184
  743SOL    HW111993   2.598   9.691   0.223 -0.5988 -0.5138 -1.3642
  743SOL    HW211994   2.499   9.602   0.317 -0.5020  0.5723 -0.2302
  744SOL     OW11995   3.499   3.228   0.483  0.3916  0.3619 -0.0373
  744SOL    HW111996   3.596   3.252   0.484  0.3286  0.6064  1.5640
  744SOL    HW211997   3.452   3.283   0.414  1.6527 -0.8856 -1.9391
  745SOL     OW11998   2.692   6.945   2.818 -0.3067  0.2552 -0.0029
  745SOL    HW111999   2.689   6.956   2.917 -0.6011  1.7373 -0.1630
  745SOL    HW212000   2.635   6.867   2.791 -2.6455  1.6343  0.7646
  746SOL     OW12001   3.585   2.971   1.843  0.1672 -0.0743  0.4505
  746SOL    HW112002   3.591   2.884   1.794  0.1311  0.6173 -0.7978
  746SOL    HW212003   3.600   3.046   1.780  1.2991  0.8024  1.7254
  747SOL     OW12004   4.866   2.619   0.021  0.5598  0.3932  0.0173
  747SOL    HW112005   4.774   2.648  -0.007  0.8134  0.6389 -0.5823
  747SOL    HW212006   4.904   2.558  -0.049  0.3172 -0.8241  0.9212
  748SOL     OW12007   2.349   8.274   1.540  0.2836  0.4039  0.2032
  748SOL    HW112008   2.288   8.205   1.579  2.4442 -1.3558  0.5631
  748SOL    HW212009   2.326   8.288   1.444  0.1628 -1.2422 -0.0278
  749SOL     OW12010   4.425   2.372   0.290 -0.1997 -0.5124 -0.3642
  749SOL    HW112011   4.473   2.362   0.377 -0.2126  1.9737 -0.0162
  749SOL    HW212012   4.489   2.361   0.214  0.8728  2.1151  0.0826
  750SOL     OW12013   2.311   7.395   1.014 -0.3532  0.1928 -0.2344
  750SOL    HW112014   2.240   7.337   1.055 -0.4109  0.5462  0.1749
  750SOL    HW212015   2.384   7.410   1.080 -0.6639  1.1427 -0.0950
  751SOL     OW12016   3.520   1.722   2.351  0.3330  0.6143  0.7970
  751SOL    HW112017   3.614   1.735   2.383  0.3617  3.5557 -0.3448
  751SOL    HW212018   3.456   1.756   2.420  0.0552 -1.6596  1.7041
  752SOL     OW12019   3.299   3.807   0.845 -0.4714 -0.3503  0.0657
  752SOL    HW112020   3.327   3.896   0.878  0.2151 -0.5276 -0.0319
  752SOL    HW212021   3.231   3.768   0.907 -1.6263  0.7185 -0.4954
  753SOL     OW12022   2.580   8.794   0.522  0.2996  0.2569  0.3019
  753SOL    HW112023   2.482   8.775   0.528  0.6101 -2.3231 -1.9115
  753SOL    HW212024   2.613   8.827   0.611 -1.9321 -2.1134  2.1045
  754SOL     OW12025   2.701   8.243   2.626 -0.2868 -0.0284  0.2215
  754SOL    HW112026   2.606   8.272   2.611  0.0581 -0.2791 -2.7401
  754SOL    HW212027   2.758   8.324   2.640 -0.8264  0.1529  1.4418
  755SOL     OW12028   3.085   3.557   0.533 -0.1666 -0.6215  0.2321
  755SOL    HW112029   3.011   3.549   0.466 -1.3511 -1.7537  1.6580
  755SOL    HW212030   3.137   3.641   0.515 -0.1837 -1.1359 -2.3812
  756SOL     OW12031   3.237   2.249   1.800 -0.0775  0.5952 -0.7004
  756SOL    HW112032   3.309   2.235   1.867 -0.6499 -0.9352 -0.3862
  756SOL    HW212033   3.234   2.172   1.736 -1.5029  0.5585 -0.6220
  757SOL     OW12034   3.546   4.210   2.125  0.1282  0.9013  0.2305
  757SOL    HW112035   3.555   4.256   2.213 -1.5747 -1.0415  1.4492
  757SOL    HW212036   3.547   4.111   2.138  2.8871  0.5287 -2.2794
  758SOL     OW12037   4.061   1.592   1.409  0.1924 -0.5817  0.3865
  758SOL    HW112038   4.074   1.691   1.418 -1.3360 -0.4259  0.9521
  758SOL    HW212039   4.139   1.553   1.360 -1.1481  1.5196 -3.6219
  759SOL     OW12040   3.454   2.000   0.903  0.8979  0.1137  0.2155
  759SOL    HW112041   3.444   1.996   0.804 -1.0036  0.7793  0.3542
  759SOL    HW212042   3.425   2.090   0.936 -0.3816 -0.7654  1.5704
  760SOL     OW12043   3.448   7.419   1.198  0.1098 -0.1617  0.2803
  760SOL    HW112044   3.433   7.427   1.297  1.1055  3.7175  0.1709
  760SOL    HW212045   3.544   7.437   1.177 -0.1368 -0.7530 -1.4410
  761SOL     OW12046   3.047   0.192   1.834  0.0161 -0.0335 -0.0832
  761SOL    HW112047   3.082   0.183   1.927 -1.8667 -0.7096  0.5877
  761SOL    HW212048   3.123   0.206   1.771  1.3541 -0.0444  1.4919
  762SOL     OW12049   3.636   0.601   2.766 -0.1997  0.0543 -0.0262
  762SOL    HW112050   3.574   0.572   2.838 -0.9319 -1.3197 -1.1790
  762SOL    HW212051   3.696   0.525   2.741  1.5883  1.1945  0.6776
  763SOL     OW12052   2.615   5.436   0.739 -0.2694  0.3011 -0.5503
  763SOL    HW112053   2.629   5.435   0.838  2.5393 -0.5142 -0.9168
  763SOL    HW212054   2.584   5.346   0.709 -2.7972  1.0251 -0.2351
  764SOL     OW12055   3.513   1.004   0.275 -0.5558 -0.3428 -0.2447
  764SOL    HW112056   3.415   0.989   0.277 -0.3721 -1.5782 -0.4703
  764SOL    HW212057   3.556   0.941   0.210  0.3581  0.3546 -0.3394
  765SOL     OW12058   2.385   7.799   1.489 -0.2456  0.3932  0.3459
  765SOL    HW112059   2.388   7.801   1.389 -1.0937  1.0633  0.3276
  765SOL    HW212060   2.374   7.704   1.520  3.1012 -0.1930 -0.0636
  766SOL     OW12061   2.975   9.528   0.113 -0.3753 -0.0924 -0.0953
  766SOL    HW112062   3.000   9.495   0.022 -1.0045  0.7941 -0.5913
  766SOL    HW212063   2.982   9.628   0.115 -0.2242 -0.1228  0.8695
  767SOL     OW12064   2.670   9.702   2.084  0.2013 -0.1203  0.4447
  767SOL    HW112065   2.755   9.689   2.033 -0.2520 -0.6985 -0.1624
  767SOL    HW212066   2.613   9.769   2.037 -0.6214 -1.3370 -0.3223
  768SOL     OW12067   3.877   0.359   0.482 -0.4385  0.4604 -0.2387
  768SOL    HW112068   3.962   0.382   0.434 -0.1264  1.4101  0.7612
  768SOL    HW212069   3.893   0.283   0.544 -0.0345  1.3944  0.8044
  769SOL     OW12070   2.804   1.486   2.115  0.3791 -0.0440  0.0953
  769SOL    HW112071   2.859   1.403   2.129  0.2832  0.1774  2.0197
  769SOL    HW212072   2.861   1.567   2.131  0.4393  0.2614 -1.6453
  770SOL     OW12073   3.384   2.657   0.636  0.1458  0.1348 -0.3085
  770SOL    HW112074   3.312   2.641   0.569  0.8836 -1.8688 -0.6675
  770SOL    HW212075   3.456   2.714   0.596 -0.3108  0.5196 -0.5791
  771SOL     OW12076   2.774   5.093   0.798 -0.1691  0.0893  0.4612
  771SOL    HW112077   2.807   5.062   0.888 -1.6676 -0.6335  0.7700
  771SOL    HW212078   2.688   5.143   0.809 -0.7926 -0.7248 -0.6666
  772SOL     OW12079   3.347   3.011   0.548 -0.3727  0.2329 -0.4972
  772SOL    HW112080   3.393   3.100   0.541 -1.6512  1.1303  2.1270
  772SOL    HW212081   3.414   2.938   0.535  1.4511  1.5427  1.2370
  773SOL     OW12082   3.344   2.891   0.988 -0.7484 -0.0136 -0.0699
  773SOL    HW112083   3.378   2.984   0.980 -1.9771  0.4938  0.5552
  773SOL    HW212084   3.285   2.871   0.910  0.6941 -0.7926 -0.9943
  774SOL     OW12085   3.718   1.232   2.112  0.1863 -0.9386 -0.6784
  774SOL    HW112086   3.633   1.180   2.124  1.7157 -3.3514  0.0572
  774SOL    HW212087   3.706   1.324   2.148 -2.2273 -1.1141 -0.9272
  775SOL     OW12088   4.548   2.814   2.057 -1.0226 -0.7392 -0.8981
  775SOL    HW112089   4.535   2.825   1.958  0.8427  1.5257 -0.9305
  775SOL    HW212090   4.614   2.741   2.074 -0.9715 -0.7985 -1.3502
  776SOL     OW12091   2.579   8.464   1.228  0.0348  0.4350 -0.4561
  776SOL    HW112092   2.601   8.548   1.179 -0.3509  0.6613 -0.2433
  776SOL    HW212093   2.625   8.386   1.184  2.2587  1.0549  0.7135
  777SOL     OW12094   3.675   2.957   2.293 -0.1710 -0.5154  0.4592
  777SOL    HW112095   3.695   3.039   2.239  1.6881 -1.5376 -0.4688
  777SOL    HW212096   3.696   2.974   2.389 -2.5705  1.0019  0.7722
  778SOL     OW12097   4.659   2.715   1.356 -0.4327  0.4374 -0.1528
  778SOL    HW112098   4.695   2.798   1.313 -1.3282 -0.3541 -2.5134
  778SOL    HW212099   4.652   2.642   1.287  0.2230 -1.5779  1.8439
  779SOL     OW12100   3.150   0.901   1.346 -0.2066  0.4195  0.2358
  779SOL    HW112101   3.082   0.828   1.352 -0.7097  0.8708  0.1697
  779SOL    HW212102   3.237   0.865   1.314 -0.6507 -0.0188 -0.4718
  780SOL     OW12103   3.049   3.210   0.458 -0.5508  0.2378  0.0252
  780SOL    HW112104   3.049   3.276   0.384 -0.5899 -1.6438 -1.7163
  780SOL    HW212105   2.973   3.146   0.446 -0.0242 -0.6382  1.1765
  781SOL     OW12106   3.374   9.771   1.279 -0.4236 -0.4561 -0.6545
  781SOL    HW112107   3.356   9.713   1.358  1.7414 -0.9930 -0.5438
  781SOL    HW212108   3.287   9.798   1.237 -1.4959 -2.3534  0.3052
  782SOL     OW12109   3.283   1.787   1.536 -0.5156 -0.8061  0.2069
  782SOL    HW112110   3.306   1.812   1.442  0.1247 -0.8430  0.3529
  782SOL    HW212111   3.359   1.737   1.577 -1.1154 -1.5023  0.4824
  783SOL     OW12112   4.149   4.186   2.437  0.5289  0.1725 -0.9905
  783SOL    HW112113   4.081   4.175   2.365  0.9514 -1.0756 -1.2114
  783SOL    HW212114   4.123   4.262   2.496  0.1919  1.2292 -2.4732
  784SOL     OW12115   3.734   9.250   1.792 -0.6783 -0.8092 -0.1829
  784SOL    HW112116   3.679   9.224   1.871  1.9945 -2.5387  1.1607
  784SOL    HW212117   3.691   9.328   1.746 -1.9907  0.5697  3.2442
  785SOL     OW12118   4.148   8.275   0.449 -0.2747  0.2594 -0.1977
  785SOL    HW112119   4.225   8.337   0.462 -0.6320  1.1471 -2.0540
  785SOL    HW212120   4.126   8.229   0.535  0.7421  1.8456  0.9324
  786SOL     OW12121   2.161   7.514   0.574  0.1349 -0.0577 -0.8573
  786SOL    HW112122   2.178   7.542   0.480  0.1606  0.8165 -0.5885
  786SOL    HW212123   2.079   7.456   0.576 -0.4516  0.7511 -1.2747
  787SOL     OW12124   3.903   3.435   2.002  0.0624 -0.2774 -0.0318
  787SOL    HW112125   3.858   3.476   1.923 -2.6557 -1.7343  0.7068
  787SOL    HW212126   3.990   3.395   1.974 -0.6570 -0.3803 -2.1875
  788SOL     OW12127   2.972   2.310   1.853  0.3820  0.1480 -0.3327
  788SOL    HW112128   3.068   2.289   1.834  0.5802  0.3527  0.4027
  788SOL    HW212129   2.929   2.230   1.896  0.9954  1.0121  1.9754
  789SOL     OW12130   3.008   3.914   2.428  0.2012  0.3212  0.4033
  789SOL    HW112131   3.055   3.909   2.516  0.1481  1.5840  0.5229
  789SOL    HW212132   3.074   3.936   2.357  0.1457 -0.0902  0.2257
  790SOL     OW12133   3.908   1.251   0.848  1.2686 -0.3817  0.3500
  790SOL    HW112134   3.858   1.314   0.789  0.4261  0.3131  1.7817
  790SOL    HW212135   3.897   1.278   0.944  1.1294 -2.5132  0.9730
  791SOL     OW12136   3.198   9.965   2.243  0.8061  0.2388  0.1057
  791SOL    HW112137   3.177  10.047   2.189  1.0752  0.7410  0.7531
  791SOL    HW212138   3.293   9.938   2.227  0.7819  0.1823  0.0577
  792SOL     OW12139   4.581   2.451   2.389  0.8230  0.1330 -0.3972
  792SOL    HW112140   4.597   2.481   2.295 -1.8304  0.8994 -0.6428
  792SOL    HW212141   4.525   2.368   2.387 -1.4050  1.5813  0.5374
  793SOL     OW12142   4.414   2.212   2.438 -0.0593 -0.0340  0.8280
  793SOL    HW112143   4.374   2.291   2.482  0.9582  1.4344 -0.8162
  793SOL    HW212144   4.348   2.171   2.375  0.6939  1.9162 -1.2948
  794SOL     OW12145   2.423   5.900   0.968 -0.0653  0.2205  0.4557
  794SOL    HW112146   2.392   5.806   0.979 -0.1051  0.4901  2.8131
  794SOL    HW212147   2.523   5.903   0.975 -0.1885  0.5811  2.3239
  795SOL     OW12148   2.961   0.699   1.457  0.4710 -0.9121 -0.1773
  795SOL    HW112149   2.916   0.761   1.521  0.2321 -1.3691  0.0996
  795SOL    HW212150   2.960   0.606   1.494  1.5624 -0.9412 -0.2127
  796SOL     OW12151   3.452   1.347   1.411 -0.1661 -0.2217  0.1970
  796SOL    HW112152   3.373   1.385   1.363 -1.2672 -2.4484  0.1716
  796SOL    HW212153   3.509   1.297   1.346  0.1641 -0.3597  0.5928
  797SOL     OW12154   3.209   0.549   1.440 -0.3742  0.4634  0.1682
  797SOL    HW112155   3.128   0.607   1.429 -1.9075 -1.4748  1.0183
  797SOL    HW212156   3.227   0.535   1.537  0.4405  0.1559 -0.0303
  798SOL     OW12157   2.886   8.550   0.564 -0.5458 -0.2626 -0.1225
  798SOL    HW112158   2.924   8.457   0.571 -0.1613  0.0185  2.0387
  798SOL    HW212159   2.951   8.615   0.602 -1.5055  0.6887 -0.0906
  799SOL     OW12160   3.525   9.826   1.642 -0.0616 -0.3645 -0.1111
  799SOL    HW112161   3.614   9.868   1.656 -0.3138  1.1844 -2.7336
  799SOL    HW212162   3.530   9.760   1.567 -1.5211  1.2983 -1.7377
  800SOL     OW12163   2.859   3.825   2.733  0.4687  0.3621  0.2957
  800SOL    HW112164   2.937   3.878   2.768  1.5219 -0.5114 -0.6824
  800SOL    HW212165   2.782   3.887   2.715  1.4186  1.4566 -0.0567
  801SOL     OW12166   2.454   4.967   0.317 -0.2061 -0.0912  0.3155
  801SOL    HW112167   2.358   4.942   0.329 -0.2342 -0.3345 -0.4340
  801SOL    HW212168   2.495   4.911   0.246  0.4904  0.0245  0.6225
  802SOL     OW12169   3.792   3.257   1.350  0.5412  0.3496  0.1931
  802SOL    HW112170   3.891   3.268   1.338  0.9592 -1.7807  1.5081
  802SOL    HW212171   3.749   3.348   1.352  2.4766  1.3075 -0.1636
  803SOL     OW12172   2.865   2.541   1.907  0.1176 -0.5130  0.3286
  803SOL    HW112173   2.905   2.455   1.875  1.5393  0.4431 -0.5430
  803SOL    HW212174   2.910   2.617   1.861  0.7091  0.8304  3.0526
  804SOL     OW12175   3.812   4.175   1.444 -0.6587 -0.2950 -0.2062
  804SOL    HW112176   3.833   4.090   1.492 -0.0645 -0.5382 -0.8815
  804SOL    HW212177   3.714   4.193   1.450 -0.4836  0.1390  1.8274
  805SOL     OW12178   3.932   4.647   0.569  0.3489  0.4895 -0.2226
  805SOL    HW112179   4.014   4.611   0.523  0.0709 -0.7178  0.2091
  805SOL    HW212180   3.886   4.711   0.509  0.5013 -0.3695 -1.2755
  806SOL     OW12181   3.578   9.292   0.703 -0.4918  0.7503 -0.1467
  806SOL    HW112182   3.543   9.231   0.774 -4.8774  3.3350  0.0527
  806SOL    HW212183   3.662   9.336   0.735 -2.1413  1.5057  3.3339
  807SOL     OW12184   2.801   1.721   1.774 -0.0108  0.3686  0.1522
  807SOL    HW112185   2.879   1.694   1.831 -1.1218 -0.6428  1.2423
  807SOL    HW212186   2.824   1.802   1.720  2.0480 -0.3884 -0.1239
  808SOL     OW12187   3.488   4.482   1.013 -0.0235 -0.1886 -0.2990
  808SOL    HW112188   3.401   4.451   1.052  0.6655 -3.4764 -1.2244
  808SOL    HW212189   3.560   4.476   1.083 -0.0102 -0.0673 -0.3025
  809SOL     OW12190   3.379   1.802   2.575  0.5400 -0.9818  0.6987
  809SOL    HW112191   3.307   1.744   2.611  0.3771 -0.9257  0.4593
  809SOL    HW212192   3.357   1.898   2.592 -0.1442 -0.8907 -0.6751
  810SOL     OW12193   4.515   3.832   2.720 -0.6259  0.2214 -0.6703
  810SOL    HW112194   4.514   3.734   2.741  0.0365  0.5239  0.8450
  810SOL    HW212195   4.543   3.846   2.625 -1.2041 -1.0822 -1.0360
  811SOL     OW12196   2.570   5.688   0.655  0.6215  0.0121 -0.0553
  811SOL    HW112197   2.634   5.753   0.694  0.5443  0.1898 -0.2258
  811SOL    HW212198   2.589   5.597   0.692  0.4642  0.2013  0.4994
  812SOL     OW12199   3.352   5.232   1.313  0.0199 -0.0065 -0.1395
  812SOL    HW112200   3.357   5.137   1.283 -0.4642 -0.4056  1.0340
  812SOL    HW212201   3.441   5.261   1.348 -0.2773 -0.5614  1.0885
  813SOL     OW12202   3.481   0.189   0.069 -0.2740  0.1678 -0.1835
  813SOL    HW112203   3.512   0.200  -0.025  1.9201 -0.7133  0.4018
  813SOL    HW212204   3.509   0.100   0.104  0.8493  1.3168  1.9851
  814SOL     OW12205   3.548   9.084   1.997  0.1226  0.3246  0.4842
  814SOL    HW112206   3.486   9.033   2.057 -0.1628  1.5557  1.2431
  814SOL    HW212207   3.634   9.033   1.987 -0.3760 -0.5832  0.7651
  815SOL     OW12208   3.453   0.414   2.509 -0.4228  0.6453  0.3990
  815SOL    HW112209   3.396   0.395   2.429 -0.7815  0.8298  0.6110
  815SOL    HW212210   3.526   0.476   2.484  0.3505 -0.4701 -0.1431
  816SOL     OW12211   2.595   8.112   0.493  0.1441  0.4092 -0.8426
  816SOL    HW112212   2.655   8.036   0.519 -1.0232  0.7921  3.2718
  816SOL    HW212213   2.618   8.193   0.546 -4.3224  0.4068  1.3212
  817SOL     OW12214   2.586   1.780   1.952  0.4930 -0.0151 -0.2369
  817SOL    HW112215   2.654   1.754   1.883  0.0016 -2.7098  0.2626
  817SOL    HW212216   2.496   1.783   1.910  0.5011  0.6198 -0.2171
  818SOL     OW12217   2.894   9.119   1.869 -0.0448 -0.1455  0.7417
  818SOL    HW112218   2.810   9.174   1.867 -0.0657  0.0218  3.5784
  818SOL    HW212219   2.923   9.098   1.776 -2.0241  1.6504 -0.3170
  819SOL     OW12220   3.558   4.050   0.543  0.3560 -0.3200 -0.3751
  819SOL    HW112221   3.655   4.035   0.564  1.5204  2.6225 -3.1507
  819SOL    HW212222   3.544   4.042   0.444 -2.1834 -0.3240 -0.0479
  820SOL     OW12223   3.115   2.142   1.138  0.0276  0.2859  0.0309
  820SOL    HW112224   3.077   2.095   1.217  0.7251 -0.1079  0.1371
  820SOL    HW212225   3.167   2.222   1.167  1.9183 -0.9402  0.1420
  821SOL     OW12226   4.556   4.328   0.224 -0.0544 -0.1298  0.6926
  821SOL    HW112227   4.628   4.351   0.290  1.2859  0.1654 -0.8256
  821SOL    HW212228   4.591   4.258   0.162 -0.1749  1.8145 -1.6244
  822SOL     OW12229   3.559   3.258   2.194  0.3625 -0.3217 -0.7195
  822SOL    HW112230   3.484   3.265   2.129 -0.3066 -0.6968  0.0142
  822SOL    HW212231   3.533   3.300   2.280  0.5816 -1.4615 -0.0871
  823SOL     OW12232   3.992   4.241   0.374  0.1297 -0.2067 -0.4444
  823SOL    HW112233   4.078   4.269   0.418 -0.4075 -1.4079  1.3930
  823SOL    HW212234   3.919   4.304   0.401 -0.1776 -0.8836  0.3089
  824SOL     OW12235   3.616   3.588   2.220  0.1859  0.0595 -0.2634
  824SOL    HW112236   3.690   3.580   2.286  0.3303  2.0175 -0.1764
  824SOL    HW212237   3.635   3.529   2.141  1.1264 -0.5249  0.3926
  825SOL     OW12238   3.880   1.393   1.476 -0.2645 -0.5014  0.1820
  825SOL    HW112239   3.952   1.461   1.461 -0.4491 -0.2406  0.4618
  825SOL    HW212240   3.899   1.343   1.560 -0.6637 -0.1036  0.5092
  826SOL     OW12241   3.055   9.431   2.274  0.3231 -0.6208 -0.5089
  826SOL    HW112242   3.092   9.372   2.202  0.5756 -0.1662 -0.7528
  826SOL    HW212243   2.955   9.422   2.276  0.3914 -1.3711 -0.2656
  827SOL     OW12244   3.004   1.644   0.179  0.2226  1.1329  0.6478
  827SOL    HW112245   3.018   1.555   0.222 -1.4160  1.6985  2.4413
  827SOL    HW212246   2.906   1.661   0.168  0.4550  3.2651  1.5591
  828SOL     OW12247   3.079   9.034   2.492  0.2949  0.1106 -0.7966
  828SOL    HW112248   3.016   8.989   2.555 -0.4155  1.8562 -0.2304
  828SOL    HW212249   3.170   9.036   2.532  0.2793 -0.6202 -0.7232
  829SOL     OW12250   3.737   9.249   1.050  0.3339 -0.4641  0.1962
  829SOL    HW112251   3.806   9.296   0.995  0.5943  1.3603  2.0563
  829SOL    HW212252   3.781   9.177   1.103  0.1942 -1.7486 -1.3800
  830SOL     OW12253   3.300   0.982   2.654 -0.3611 -0.2369  0.4511
  830SOL    HW112254   3.316   0.884   2.666  1.5381  0.1046  0.9272
  830SOL    HW212255   3.367   1.033   2.708 -1.2186  1.3262  0.0627
  831SOL     OW12256   4.678   3.853   0.736 -0.2264  0.1450  0.0661
  831SOL    HW112257   4.627   3.872   0.652 -0.1624 -2.4919 -0.5940
  831SOL    HW212258   4.775   3.841   0.714  0.3171  2.5238  0.9698
  832SOL     OW12259   2.553   9.164   2.503 -0.0395 -0.8023  0.1926
  832SOL    HW112260   2.638   9.155   2.451  0.2082 -2.5029  0.8794
  832SOL    HW212261   2.569   9.136   2.597 -0.6169  1.7485  1.1059
  833SOL     OW12262   2.962   5.498   0.742  0.4957 -0.4461 -0.9053
  833SOL    HW112263   2.900   5.545   0.805  1.3660 -0.4242 -0.0550
  833SOL    HW212264   2.909   5.442   0.678 -0.4645  0.5081 -0.9542
  834SOL     OW12265   4.012   8.503   2.529 -0.3202  0.1557 -0.1295
  834SOL    HW112266   4.001   8.440   2.606 -3.0990  1.5609  0.7245
  834SOL    HW212267   4.085   8.568   2.549 -0.3702 -0.0995  0.9297
  835SOL     OW12268   2.824   8.887   1.553  0.2626  0.2074 -0.4899
  835SOL    HW112269   2.781   8.879   1.643 -0.7216 -1.5942 -1.1039
  835SOL    HW212270   2.753   8.899   1.484  0.7631 -2.3558 -1.4673
  836SOL     OW12271   3.037   7.949   1.751  0.3757  0.3644  0.4937
  836SOL    HW112272   3.017   7.936   1.654 -0.4158  2.0489  0.4018
  836SOL    HW212273   3.102   7.880   1.782 -1.8519 -2.2626 -0.4379
  837SOL     OW12274   2.737   3.545   0.012  0.3645  0.3279  0.1788
  837SOL    HW112275   2.736   3.639  -0.024 -2.3124  1.4688  3.0513
  837SOL    HW212276   2.681   3.487  -0.047  1.0860  0.7699 -0.9680
  838SOL     OW12277   3.870   0.477   0.817 -0.4204  0.1958  0.3864
  838SOL    HW112278   3.889   0.527   0.733 -1.4052 -1.6079 -0.9229
  838SOL    HW212279   3.771   0.476   0.833 -0.2839 -0.0193  1.2469
  839SOL     OW12280   3.977   0.150   0.655 -0.0549 -0.2010  0.6202
  839SOL    HW112281   3.920   0.135   0.736 -0.8525 -0.9939 -0.0809
  839SOL    HW212282   3.961   0.077   0.589  1.1371  0.0444  0.0496
  840SOL     OW12283   4.014   8.915   0.950 -0.0159 -0.0587 -0.1348
  840SOL    HW112284   4.054   8.968   0.875  0.2670 -0.1835 -0.0717
  840SOL    HW212285   3.993   8.975   1.027  0.2543 -0.0287 -0.0835
  841SOL     OW12286   2.019   8.700   0.290 -0.1745 -0.1678  0.3098
  841SOL    HW112287   1.948   8.634   0.314 -0.8508  1.0696  1.8790
  841SOL    HW212288   2.078   8.715   0.369  0.0160  1.0116 -0.0424
  842SOL     OW12289   3.161   2.026   1.670 -0.3369 -0.1068  0.9253
  842SOL    HW112290   3.179   1.946   1.727  2.9294  0.4526  0.7746
  842SOL    HW212291   3.184   2.004   1.575 -0.9495  0.5012  0.6368
  843SOL     OW12292   4.055   1.363   1.141 -0.2159 -0.2324  0.2590
  843SOL    HW112293   3.996   1.292   1.180  1.0340 -0.6073  1.4855
  843SOL    HW212294   4.139   1.369   1.193  0.3515  1.1100 -0.7819
  844SOL     OW12295   2.710   4.868   1.871 -0.0044 -0.2790  0.3708
  844SOL    HW112296   2.752   4.847   1.782  1.6714  1.0427  0.8238
  844SOL    HW212297   2.763   4.824   1.944  0.6393  1.4316  0.9522
  845SOL     OW12298   3.309   8.880   1.489 -0.1841 -0.3106 -0.4460
  845SOL    HW112299   3.330   8.885   1.587  0.4803  2.2998 -0.6948
  845SOL    HW212300   3.242   8.807   1.473 -0.4374 -0.6401  1.9619
  846SOL     OW12301   3.252   7.674   0.694  0.5285 -0.5445  0.5062
  846SOL    HW112302   3.279   7.579   0.675  1.3163 -0.2147 -0.0429
  846SOL    HW212303   3.312   7.713   0.763  3.3517  1.0842 -2.6958
  847SOL     OW12304   3.628   9.042   1.599 -0.6303  0.0350 -0.0369
  847SOL    HW112305   3.661   9.109   1.665 -0.2769  1.3161 -1.4838
  847SOL    HW212306   3.594   8.961   1.647  0.6980  0.4544  1.6548
  848SOL     OW12307   2.667   0.625   0.085 -0.1761  0.3678 -0.2870
  848SOL    HW112308   2.609   0.677   0.022 -0.0090  1.6978  0.6332
  848SOL    HW212309   2.650   0.656   0.179  0.9388 -0.2731  0.1357
  849SOL     OW12310   3.479   9.548   1.467 -0.4370 -0.0248  0.0207
  849SOL    HW112311   3.380   9.549   1.457 -0.2712  1.8197 -1.7631
  849SOL    HW212312   3.517   9.471   1.415 -0.9666 -1.1325  1.2505
  850SOL     OW12313   4.113   9.143   1.886 -0.0779  0.4027  0.5554
  850SOL    HW112314   4.145   9.218   1.828 -0.8861 -0.3844 -0.9534
  850SOL    HW212315   4.187   9.115   1.947  1.2031  0.4951 -0.9092
  851SOL     OW12316   2.384   7.914   2.373  0.0519 -0.1028 -0.2106
  851SOL    HW112317   2.351   7.964   2.453 -0.8473  0.2610 -0.7981
  851SOL    HW212318   2.481   7.932   2.360 -0.0229  0.6299  0.2130
  852SOL     OW12319   2.475   8.383   2.543  0.5771 -0.6333  0.3298
  852SOL    HW112320   2.529   8.457   2.584  0.5439 -1.2371  1.4906
  852SOL    HW212321   2.419   8.341   2.614  0.2159 -1.4364 -0.4372
  853SOL     OW12322   3.968   0.721   1.617 -0.2334  0.1608  0.1567
  853SOL    HW112323   4.060   0.729   1.578  0.2312 -1.1565  0.9477
  853SOL    HW212324   3.905   0.687   1.546 -0.3472  2.0604 -0.6779
  854SOL     OW12325   3.295   8.499   1.435 -0.2407  0.1292  0.2325
  854SOL    HW112326   3.347   8.552   1.368  0.3884 -0.3266  0.3682
  854SOL    HW212327   3.242   8.428   1.388 -0.8941  0.7099  0.0762
  855SOL     OW12328   4.328   4.221   0.660  0.4812 -0.4871 -0.5489
  855SOL    HW112329   4.391   4.149   0.689 -1.8533 -1.3145  2.7558
  855SOL    HW212330   4.371   4.310   0.674  1.5353 -1.0881  0.1266
  856SOL     OW12331   3.108   4.769   0.785  0.7695 -0.1313  0.0659
  856SOL    HW112332   3.077   4.860   0.812  2.4004 -0.3695  2.9545
  856SOL    HW212333   3.197   4.775   0.740  0.1549 -0.1900 -1.2022
  857SOL     OW12334   4.368   4.527   0.145  0.3012 -0.2983 -0.5354
  857SOL    HW112335   4.431   4.456   0.177 -0.7158 -0.7476  0.5150
  857SOL    HW212336   4.304   4.550   0.219  0.0932  1.1158 -1.1419
  858SOL     OW12337   3.482   3.388   2.415  0.3703  0.7325 -0.1115
  858SOL    HW112338   3.562   3.448   2.414  0.7942  0.1804  0.0321
  858SOL    HW212339   3.398   3.442   2.406  0.8777  1.0893 -3.1476
  859SOL     OW12340   3.769   5.074   0.937  0.5002  0.8528 -0.2157
  859SOL    HW112341   3.841   5.121   0.988  1.7047  0.5058 -1.5571
  859SOL    HW212342   3.776   4.975   0.950  0.4792  0.7960 -0.6121
  860SOL     OW12343   3.022   4.183   1.484  0.6824  0.3529 -0.3686
  860SOL    HW112344   2.967   4.239   1.547 -1.5681 -0.7952 -1.2386
  860SOL    HW212345   3.058   4.241   1.411  1.0525  1.2075  0.4731
  861SOL     OW12346   2.552   7.623   2.463  0.2328 -0.0345  0.4272
  861SOL    HW112347   2.488   7.699   2.449 -0.4032 -1.0261 -2.4850
  861SOL    HW212348   2.637   7.641   2.414 -0.4739 -1.7932 -1.5384
  862SOL     OW12349   2.476   7.761   1.237  0.3175  0.2861 -0.2207
  862SOL    HW112350   2.538   7.693   1.200  0.4744 -0.1130  0.7514
  862SOL    HW212351   2.505   7.852   1.209  0.9803  0.0579 -0.2745
  863SOL     OW12352   3.357   2.952   1.359 -0.2706  0.4195  0.4572
  863SOL    HW112353   3.321   2.871   1.313 -1.5159  2.0520 -1.5371
  863SOL    HW212354   3.384   3.020   1.291  2.6850  0.9057  2.0411
  864SOL     OW12355   3.796   2.137   0.941 -0.4192  0.4308  0.1407
  864SOL    HW112356   3.743   2.067   0.990  0.7916 -1.3242 -0.9846
  864SOL    HW212357   3.788   2.122   0.843  0.2077  1.6258 -0.0978
  865SOL     OW12358   3.777   9.779   0.458 -0.2579 -0.5032 -0.2950
  865SOL    HW112359   3.782   9.702   0.395  0.4867  0.2076 -1.1231
  865SOL    HW212360   3.695   9.771   0.514  0.3022 -2.3776  0.2738
  866SOL     OW12361   4.058   2.618   0.300 -0.0815 -0.1579  0.7619
  866SOL    HW112362   4.016   2.708   0.313  0.7539  0.0329  2.1784
  866SOL    HW212363   4.002   2.548   0.345  1.4269  0.1804  3.2517
  867SOL     OW12364   4.324   1.571   2.689 -0.1636  0.2804  0.1561
  867SOL    HW112365   4.385   1.632   2.637 -2.4710  0.3681 -2.6050
  867SOL    HW212366   4.327   1.595   2.786  1.1702  2.8939 -0.4888
  868SOL     OW12367   5.058   2.434   0.771 -0.0744 -0.2843  0.3281
  868SOL    HW112368   4.965   2.455   0.741 -0.3231 -1.0840  0.5214
  868SOL    HW212369   5.080   2.340   0.746 -0.2421 -0.9277  2.4806
  869SOL     OW12370   4.201   0.465   1.676  0.5347  0.0472  0.1312
  869SOL    HW112371   4.237   0.376   1.647 -0.5696 -0.1193 -0.7308
  869SOL    HW212372   4.139   0.501   1.606  2.1456  2.2045 -0.2441
  870SOL     OW12373   2.339   9.016   0.063 -0.1273  0.1289  0.5624
  870SOL    HW112374   2.364   9.035  -0.032  0.1793  0.5970  0.7368
  870SOL    HW212375   2.311   8.920   0.072  0.4878 -0.0934  0.1388
  871SOL     OW12376   4.045   2.040   1.024  0.3465 -0.1759  0.3624
  871SOL    HW112377   3.962   2.068   0.975  1.5802 -0.2180 -1.8196
  871SOL    HW212378   4.048   1.940   1.029  0.5261 -0.1943 -0.0582
  872SOL     OW12379   3.682   4.050   0.157 -0.4242  0.3860  0.4838
  872SOL    HW112380   3.687   4.077   0.060 -0.3144  1.2074  0.7117
  872SOL    HW212381   3.740   3.971   0.173 -0.6210  0.1021 -0.1717
  873SOL     OW12382   2.409   9.452   2.720  0.0863 -0.5045  0.2896
  873SOL    HW112383   2.396   9.437   2.818 -1.0511  0.4721  0.2987
  873SOL    HW212384   2.343   9.397   2.669  0.0231 -0.2692  0.1145
  874SOL     OW12385   2.805   0.835   2.565  0.2246 -0.1297  0.0054
  874SOL    HW112386   2.885   0.791   2.607  0.5420 -0.0122 -0.4674
  874SOL    HW212387   2.783   0.788   2.479 -0.5754 -0.5293  0.4300
  875SOL     OW12388   3.549   1.058   2.793  0.0325 -0.3194 -0.2881
  875SOL    HW112389   3.581   1.131   2.732  0.0561 -0.4881 -0.4752
  875SOL    HW212390   3.626   1.001   2.820  0.4236  1.0760  1.6794
  876SOL     OW12391   2.885   9.020   2.135  0.3857  0.2157  0.5094
  876SOL    HW112392   2.918   9.049   2.045  0.7501 -2.3250 -0.2036
  876SOL    HW212393   2.789   8.991   2.127  0.7908 -1.1895  0.6718
  877SOL     OW12394   2.870   2.827   0.955  0.0606 -0.1225  0.1036
  877SOL    HW112395   2.883   2.911   1.006  0.9481  0.0757 -0.4271
  877SOL    HW212396   2.900   2.749   1.010  0.4773  0.0390  0.1127
  878SOL     OW12397   4.128   4.823   0.691 -0.8713 -0.0803  0.2325
  878SOL    HW112398   4.059   4.760   0.655 -1.7630  0.4609  0.9748
  878SOL    HW212399   4.085   4.911   0.713 -0.8275 -1.0439  4.6167
  879SOL     OW12400   3.025   0.693   2.683 -0.3506 -0.5369  0.0645
  879SOL    HW112401   3.116   0.687   2.641 -0.7482  0.4264 -0.9528
  879SOL    HW212402   3.033   0.734   2.773 -0.2211  3.5007 -1.6741
  880SOL     OW12403   3.572   0.538   0.755 -0.0770 -0.2135  0.1653
  880SOL    HW112404   3.526   0.457   0.719  0.2623 -1.1105  1.6992
  880SOL    HW212405   3.622   0.584   0.681 -0.1674 -1.4724 -0.6943
  881SOL     OW12406   2.210   9.401   2.406  0.2703  0.5406 -0.3093
  881SOL    HW112407   2.276   9.451   2.350  2.4329 -0.4781  1.2521
  881SOL    HW212408   2.259   9.352   2.478 -2.1277 -1.0591  0.2635
  882SOL     OW12409   4.749   1.571   2.541 -0.3385  0.2469 -0.4466
  882SOL    HW112410   4.728   1.523   2.456 -0.1967 -0.5054 -0.0613
  882SOL    HW212411   4.758   1.505   2.615  1.6286  0.6965 -0.2519
  883SOL     OW12412   3.876   3.064   1.699 -0.7662 -0.4554  0.4954
  883SOL    HW112413   3.939   3.050   1.775 -1.1076 -0.1481  0.8316
  883SOL    HW212414   3.846   2.975   1.664 -0.7550 -0.5913  0.8323
  884SOL     OW12415   3.203   8.159   1.588 -0.0489 -0.4897 -0.1671
  884SOL    HW112416   3.124   8.165   1.650  0.9452  0.2566  1.0478
  884SOL    HW212417   3.283   8.128   1.639  0.1760 -2.4508 -1.6570
  885SOL     OW12418   3.702   0.906   0.980  0.2634  0.3145 -0.2826
  885SOL    HW112419   3.682   0.985   0.922 -0.1650  0.5709  0.2078
  885SOL    HW212420   3.798   0.910   1.009  0.3069  0.5239 -0.4494
  886SOL     OW12421   3.319   0.628   0.254  0.1321 -0.0354 -0.4267
  886SOL    HW112422   3.367   0.687   0.188  0.2643  1.1373  0.7029
  886SOL    HW212423   3.339   0.659   0.347  0.9477 -2.4319  0.2398
  887SOL     OW12424   3.230   7.008   2.453 -0.0547 -0.4447  0.2488
  887SOL    HW112425   3.301   7.066   2.413  1.6814 -1.3403  1.9698
  887SOL    HW212426   3.207   7.042   2.544  0.9953 -2.4475  1.2801
  888SOL     OW12427   3.493   1.383   1.672  0.1112  0.5026 -0.2928
  888SOL    HW112428   3.495   1.369   1.573 -2.0247 -1.3565 -0.1146
  888SOL    HW212429   3.519   1.298   1.718  4.3263  2.2384  0.7963
  889SOL     OW12430   3.502   4.696   1.610 -0.6103  0.0192  0.2112
  889SOL    HW112431   3.576   4.651   1.661 -0.2826 -1.1423 -1.2654
  889SOL    HW212432   3.531   4.787   1.583 -1.2467  1.1518  3.1561
  890SOL     OW12433   3.266   8.477   2.082  0.0282 -0.5133 -0.0497
  890SOL    HW112434   3.315   8.533   2.015  0.7202 -1.1483 -0.0814
  890SOL    HW212435   3.319   8.395   2.103 -0.1643 -0.3076  1.3121
  891SOL     OW12436   3.105   3.641   0.953  0.1202 -0.2504 -0.1037
  891SOL    HW112437   3.137   3.567   0.895 -0.4339 -0.6980  0.1580
  891SOL    HW212438   3.006   3.651   0.944  0.0632 -0.1679  0.5821
  892SOL     OW12439   3.527   4.499   0.743  0.4757 -0.3917 -0.2621
  892SOL    HW112440   3.459   4.441   0.697  0.9927 -1.3935  0.2021
  892SOL    HW212441   3.507   4.501   0.841 -0.5485  1.6309 -0.4987
  893SOL     OW12442   4.249   4.170   1.708 -0.1423 -0.2274 -0.1828
  893SOL    HW112443   4.251   4.196   1.611 -0.1631  0.5038  0.0073
  893SOL    HW212444   4.154   4.152   1.735 -0.6034  2.8981  0.5418
  894SOL     OW12445   2.538   5.956   0.241 -0.1654 -0.3849  0.0578
  894SOL    HW112446   2.485   5.885   0.288  0.5683 -0.6246  0.5319
  894SOL    HW212447   2.524   6.044   0.285  0.3741 -0.5752  0.6266
  895SOL     OW12448   2.820   7.504   0.640 -0.1532  0.4901 -0.0771
  895SOL    HW112449   2.759   7.429   0.669 -1.0626  1.1919 -0.1357
  895SOL    HW212450   2.764   7.581   0.610  0.7900  0.8558 -0.8835
  896SOL     OW12451   3.122   8.104   2.653  0.6187  0.3635 -0.0122
  896SOL    HW112452   3.198   8.168   2.641 -0.0738  1.1115 -0.5157
  896SOL    HW212453   3.047   8.131   2.592 -0.9684  1.1084  2.2107
  897SOL     OW12454   3.728   5.448   1.841  0.4557  0.3386 -0.0790
  897SOL    HW112455   3.727   5.442   1.941  1.2794 -0.5037 -0.1105
  897SOL    HW212456   3.634   5.453   1.807  0.1607  0.3172  0.7186
  898SOL     OW12457   3.394   0.407   1.291  0.2027 -0.2234  0.4084
  898SOL    HW112458   3.306   0.453   1.303  0.4545  0.2144  0.5555
  898SOL    HW212459   3.416   0.354   1.373  0.8834  1.0219  1.0346
  899SOL     OW12460   2.818   4.859   0.677 -0.2948  0.2886  0.0794
  899SOL    HW112461   2.830   4.953   0.708 -2.6934  0.8343 -0.5732
  899SOL    HW212462   2.775   4.805   0.749  0.4743 -0.1569  0.2099
  900SOL     OW12463   2.958   6.954   2.484  0.2061  0.1856  0.6796
  900SOL    HW112464   3.056   6.959   2.465  0.0713  2.1169  0.3906
  900SOL    HW212465   2.935   6.862   2.515  1.8453 -0.7101 -0.6817
  901SOL     OW12466   2.346   0.294   1.743 -0.3745  0.1642 -0.0516
  901SOL    HW112467   2.349   0.196   1.760 -0.4361  0.4183  1.4274
  901SOL    HW212468   2.257   0.330   1.770 -0.0707  0.7677  0.1588
  902SOL     OW12469   2.931   0.555   0.165  0.5354  0.0249 -0.2526
  902SOL    HW112470   2.836   0.551   0.136 -0.2477  0.8835  2.0624
  902SOL    HW212471   2.986   0.599   0.094 -0.4390 -2.0440 -2.3626
  903SOL     OW12472   3.393   9.571   1.950 -0.8689  0.0033 -0.0395
  903SOL    HW112473   3.325   9.615   1.891 -1.2589 -0.0381  0.3760
  903SOL    HW212474   3.405   9.626   2.033 -1.4323 -0.7322  0.5279
  904SOL     OW12475   2.894   6.543   0.665  0.2977 -0.2559 -0.0495
  904SOL    HW112476   2.888   6.508   0.572  2.4157 -0.5124 -0.1106
  904SOL    HW212477   2.859   6.474   0.728  0.0903 -0.6145 -0.5545
  905SOL     OW12478   3.760   1.299   0.059  0.2234  0.6075 -0.3677
  905SOL    HW112479   3.661   1.314   0.069  0.1512  0.4455 -0.8625
  905SOL    HW212480   3.807   1.387   0.060  0.2488  0.6028  1.7545
  906SOL     OW12481   3.289   3.074   1.612 -0.2945 -0.4355  0.1851
  906SOL    HW112482   3.258   3.022   1.532  1.7011 -2.1310  0.4679
  906SOL    HW212483   3.387   3.093   1.603 -0.5605  1.5027  1.0865
  907SOL     OW12484   4.171   8.586   0.206  0.5234 -0.6667 -0.2543
  907SOL    HW112485   4.172   8.568   0.108 -2.4135  1.0062 -0.6648
  907SOL    HW212486   4.112   8.519   0.252  2.0337 -1.5566  0.4121
  908SOL     OW12487   2.982   2.857   0.285  0.3434 -0.4821 -0.0873
  908SOL    HW112488   2.999   2.807   0.201  2.1192  1.6841 -1.0549
  908SOL    HW212489   2.905   2.919   0.273  2.0457  1.5165 -0.8895
  909SOL     OW12490   3.978   2.890   0.343  0.0310 -0.3155 -0.3804
  909SOL    HW112491   4.049   2.960   0.341 -2.9271  2.8424  0.2267
  909SOL    HW212492   3.983   2.840   0.430  0.7262  0.7077  0.1778
  910SOL     OW12493   3.684   1.129   1.847 -0.0317 -0.0989  0.1911
  910SOL    HW112494   3.708   1.135   1.750 -1.1913  0.2072 -0.0898
  910SOL    HW212495   3.752   1.178   1.901  0.6744 -0.3491 -0.4628
  911SOL     OW12496   2.848   3.124   2.337  0.0008 -0.1183 -0.0376
  911SOL    HW112497   2.837   3.217   2.371 -2.5363 -1.0723  1.9513
  911SOL    HW212498   2.930   3.083   2.377  0.9417  1.1217 -0.6668
  912SOL     OW12499   3.582   3.639   2.606  0.1863 -0.3410  0.0277
  912SOL    HW112500   3.618   3.732   2.606 -1.3231  0.2665 -1.8415
  912SOL    HW212501   3.651   3.577   2.568  0.5249  0.2865 -0.3967
  913SOL     OW12502   2.873   4.750   2.071 -0.0239  0.3960  0.5041
  913SOL    HW112503   2.917   4.665   2.099  1.9648  1.4023  0.5407
  913SOL    HW212504   2.935   4.802   2.012 -1.5530  1.4248 -0.2491
  914SOL     OW12505   2.104   8.673   2.606  0.4022  0.4511  0.4397
  914SOL    HW112506   2.090   8.718   2.518  2.2958  0.5204  0.1445
  914SOL    HW212507   2.075   8.577   2.600  0.7357  0.3928 -0.3342
  915SOL     OW12508   2.586   6.330   1.398 -0.2307  0.0319  0.2107
  915SOL    HW112509   2.596   6.285   1.486 -0.6127  3.2510  1.9892
  915SOL    HW212510   2.493   6.367   1.390  0.2255  0.9691 -0.9247
  916SOL     OW12511   2.820   2.217   0.840 -0.2403 -0.2130 -0.2298
  916SOL    HW112512   2.745   2.278   0.816 -0.9709 -1.2847 -0.7585
  916SOL    HW212513   2.894   2.269   0.883 -1.5682  0.7542  0.9301
  917SOL     OW12514   4.669   2.561   2.022 -0.1365 -0.3617 -0.2097
  917SOL    HW112515   4.637   2.467   2.027 -0.4184 -0.2835 -0.4845
  917SOL    HW212516   4.713   2.577   1.934 -0.1022 -0.2356 -0.1703
  918SOL     OW12517   3.391   8.138   2.254  0.5085  0.2842 -0.3349
  918SOL    HW112518   3.300   8.107   2.278  1.6027 -1.1554  2.1015
  918SOL    HW212519   3.387   8.191   2.169 -2.7156  1.1792  0.3307
  919SOL     OW12520   3.357   9.217   0.261 -0.2391  0.6869 -0.0068
  919SOL    HW112521   3.261   9.196   0.243 -0.7995  2.4199  0.7991
  919SOL    HW212522   3.407   9.132   0.277 -1.8211 -0.1934  0.4664
  920SOL     OW12523   3.471   4.827   2.441  0.6013 -0.4129 -0.0028
  920SOL    HW112524   3.495   4.766   2.366  0.9677 -0.9800  0.5679
  920SOL    HW212525   3.511   4.792   2.526  0.6626  0.5305  0.3562
  921SOL     OW12526   2.639   0.736   0.326  0.0240 -0.4347  0.1036
  921SOL    HW112527   2.731   0.762   0.356 -0.8441  0.4043  2.1384
  921SOL    HW212528   2.572   0.768   0.393 -2.1840  2.8010 -3.4510
  922SOL     OW12529   3.288   9.057   0.898 -0.2525 -0.0433 -0.2292
  922SOL    HW112530   3.386   9.072   0.911 -0.3905  0.6523  0.0185
  922SOL    HW212531   3.245   9.035   0.986 -0.6161  1.3808 -0.0428
  923SOL     OW12532   2.866   5.142   0.532  0.3695 -0.5192 -0.0495
  923SOL    HW112533   2.810   5.132   0.614  2.6946 -5.0143  1.1596
  923SOL    HW212534   2.831   5.079   0.461  1.0821  0.0815 -0.9437
  924SOL     OW12535   3.450   7.406   0.412  0.3841  1.2519 -1.0947
  924SOL    HW112536   3.425   7.402   0.509  1.8097 -2.0556 -0.8243
  924SOL    HW212537   3.528   7.468   0.401  2.4975 -1.0707  0.4200
  925SOL     OW12538   3.175   3.154   0.738  0.1601  1.0044  0.1503
  925SOL    HW112539   3.138   3.167   0.646 -1.2801 -1.3666  0.3617
  925SOL    HW212540   3.256   3.094   0.733  0.9608  2.0649  0.2715
  926SOL     OW12541   2.801   3.097   0.353  0.2555  0.8300  1.1690
  926SOL    HW112542   2.703   3.086   0.335  0.4015  1.0750  0.1684
  926SOL    HW212543   2.824   3.054   0.440 -0.6948  0.5269  1.2794
  927SOL     OW12544   2.668   1.803   2.228 -0.5947 -0.2529  0.5562
  927SOL    HW112545   2.614   1.725   2.260  0.0388 -1.2666 -0.7401
  927SOL    HW212546   2.645   1.822   2.132  0.7008 -0.1520  0.2487
  928SOL     OW12547   3.232   8.068   0.496 -0.2826  0.9808  0.5646
  928SOL    HW112548   3.170   8.001   0.457  0.5173  0.5352  0.0496
  928SOL    HW212549   3.228   8.064   0.596  1.2337 -1.2258  0.5624
  929SOL     OW12550   2.918   9.771   0.414 -0.3399 -0.4147  0.6225
  929SOL    HW112551   3.013   9.747   0.431 -1.0526 -3.2574  0.9642
  929SOL    HW212552   2.877   9.805   0.499 -0.2327 -1.3995  1.0742
  930SOL     OW12553   3.104   2.018   0.648 -0.3974 -0.2487  0.2873
  930SOL    HW112554   3.090   1.986   0.742 -0.9576  0.4124  0.4357
  930SOL    HW212555   3.034   2.086   0.625 -1.5137 -1.8845 -1.3138
  931SOL     OW12556   3.357   8.250   2.600  0.3035  0.2050  0.1902
  931SOL    HW112557   3.302   8.333   2.592  0.8880  0.4721 -1.3352
  931SOL    HW212558   3.413   8.240   2.517 -1.3859 -2.8745 -0.6584
  932SOL     OW12559   2.920   7.025   1.278  0.4442  0.0090  0.3222
  932SOL    HW112560   2.943   6.939   1.322  0.6830 -0.2188 -0.2440
  932SOL    HW212561   2.924   7.015   1.178 -0.0514  0.5287  0.2414
  933SOL     OW12562   3.389   9.580   2.287 -0.2445  0.2930 -0.2611
  933SOL    HW112563   3.298   9.548   2.264  0.6101 -2.4327  0.0388
  933SOL    HW212564   3.429   9.522   2.358  2.7369 -0.1877 -2.2289
  934SOL     OW12565   2.210   5.457   2.736 -0.3078  0.1596 -0.8765
  934SOL    HW112566   2.157   5.529   2.782 -0.7619 -0.5318 -0.3172
  934SOL    HW212567   2.296   5.443   2.784 -1.0679 -1.0258  0.1863
  935SOL     OW12568   3.449   8.698   1.304 -0.5785 -0.1533  0.6621
  935SOL    HW112569   3.420   8.729   1.213 -0.2416 -2.9575 -0.4221
  935SOL    HW212570   3.447   8.776   1.367  2.4456  2.6618 -2.4684
  936SOL     OW12571   2.184   7.107   1.609  0.4883  0.1112 -0.3297
  936SOL    HW112572   2.268   7.106   1.663 -1.1378  2.4798  2.3952
  936SOL    HW212573   2.167   7.016   1.570  2.2347 -1.3934  2.3260
  937SOL     OW12574   3.441   0.693   1.643  0.3813 -0.0205 -0.4009
  937SOL    HW112575   3.521   0.636   1.663  1.2525  1.2042 -0.3912
  937SOL    HW212576   3.359   0.635   1.643  1.2016 -1.2096  0.0195
  938SOL     OW12577   3.629   2.580   2.101 -0.3959 -0.3346 -0.3346
  938SOL    HW112578   3.550   2.554   2.046  0.1259 -0.0479 -1.2247
  938SOL    HW212579   3.623   2.677   2.125  0.2167 -0.0550 -1.2980
  939SOL     OW12580   2.587   0.314   2.264 -0.0810  0.6181 -0.9808
  939SOL    HW112581   2.642   0.245   2.218  0.3089  1.3469 -1.6310
  939SOL    HW212582   2.631   0.404   2.254 -1.4120  1.2232 -1.5725
  940SOL     OW12583   4.430   2.941   2.273  0.5008  0.0827  0.6349
  940SOL    HW112584   4.459   2.862   2.326  1.0394  0.5434  1.0331
  940SOL    HW212585   4.454   2.928   2.177 -1.8067 -1.4163  0.2231
  941SOL     OW12586   3.869   2.936   0.090  0.4461 -0.1270 -0.0793
  941SOL    HW112587   3.775   2.968   0.092  0.3135 -0.4239 -1.1127
  941SOL    HW212588   3.897   2.907   0.182 -0.9294 -1.3528 -0.0403
  942SOL     OW12589   3.264   3.164   2.597 -0.2573  0.0822  0.0556
  942SOL    HW112590   3.354   3.187   2.560 -1.4163  1.9243 -1.7421
  942SOL    HW212591   3.268   3.165   2.697  1.2143  2.3857  0.0094
  943SOL     OW12592   3.255   2.567   0.853  0.7103 -0.0338 -0.1171
  943SOL    HW112593   3.175   2.627   0.858  1.2290  0.8526 -1.6489
  943SOL    HW212594   3.319   2.604   0.785  1.8019 -1.4540  0.1111
  944SOL     OW12595   3.895   2.481   2.167  0.2243 -0.5971  0.2943
  944SOL    HW112596   3.932   2.573   2.173 -2.1965  0.4476 -0.0481
  944SOL    HW212597   3.801   2.485   2.133  0.2069 -3.2277 -0.0839
  945SOL     OW12598   4.184   1.078   0.566 -0.8980  0.1013  0.8344
  945SOL    HW112599   4.169   1.137   0.646  0.6317 -0.6710  1.7161
  945SOL    HW212600   4.139   1.118   0.486 -2.2120  1.0345  2.0129
  946SOL     OW12601   2.568   7.804   0.382 -0.8681 -0.2414 -0.6344
  946SOL    HW112602   2.618   7.786   0.297 -1.2337  0.5316 -1.0166
  946SOL    HW212603   2.483   7.751   0.382  0.0835 -1.8185  0.1657
  947SOL     OW12604   3.342   3.667   1.559  0.2238 -1.0492 -0.0418
  947SOL    HW112605   3.324   3.636   1.652  0.1275 -0.1662  0.2430
  947SOL    HW212606   3.431   3.712   1.555 -0.4856  0.3904  0.0043
  948SOL     OW12607   3.459   4.006   0.293 -0.6110  0.6062  0.1030
  948SOL    HW112608   3.381   4.005   0.230 -0.2854  0.0343 -0.2972
  948SOL    HW212609   3.542   4.031   0.243 -0.8962  3.4834  0.9714
  949SOL     OW12610   2.389   6.244   0.462 -0.2968 -0.5074  0.2763
  949SOL    HW112611   2.446   6.299   0.523 -0.4531 -2.2852  2.0821
  949SOL    HW212612   2.292   6.263   0.481 -0.3427  0.0423 -0.4764
  950SOL     OW12613   3.232   4.987   0.421 -0.1544 -0.5460 -0.3811
  950SOL    HW112614   3.238   4.933   0.337  0.2103  1.5327 -1.7219
  950SOL    HW212615   3.137   5.013   0.437 -0.2680 -1.2113  0.0201
  951SOL     OW12616   3.640   1.761   2.727  0.1406  0.1339 -0.0846
  951SOL    HW112617   3.717   1.815   2.694 -0.4468  1.3618  0.4950
  951SOL    HW212618   3.559   1.780   2.671  0.1199 -0.7135 -0.3421
  952SOL     OW12619   3.434   4.472   1.339  0.3846  0.6191 -0.1858
  952SOL    HW112620   3.364   4.503   1.275  0.5272  2.2878  0.4567
  952SOL    HW212621   3.394   4.410   1.406 -0.4009  1.3201 -0.0119
  953SOL     OW12622   4.221   3.479   0.933  0.1167 -0.5117 -0.7894
  953SOL    HW112623   4.187   3.406   0.991 -0.0355  0.7259  0.7101
  953SOL    HW212624   4.167   3.484   0.849 -0.8218 -1.1429 -0.2223
  954SOL     OW12625   3.838   9.006   1.159 -0.3158  0.4677  0.1687
  954SOL    HW112626   3.786   8.948   1.097 -0.3614  0.3515  0.3150
  954SOL    HW212627   3.839   8.965   1.251  0.8897 -0.0626 -0.0630
  955SOL     OW12628   4.276   9.091   2.112  0.1996 -0.2120  0.5385
  955SOL    HW112629   4.185   9.127   2.130 -0.0394 -0.4132 -0.2244
  955SOL    HW212630   4.302   9.027   2.183 -0.7111 -0.9992  0.1650
  956SOL     OW12631   3.230   4.470   1.115 -0.3813 -1.1041  0.0343
  956SOL    HW112632   3.171   4.507   1.043  0.1543 -1.7642 -0.7396
  956SOL    HW212633   3.196   4.380   1.142 -1.0812 -0.5080  1.2121
  957SOL     OW12634   3.742   2.210   0.376  0.2619 -0.2954 -0.0320
  957SOL    HW112635   3.664   2.270   0.399 -1.6842 -1.8712 -2.3208
  957SOL    HW212636   3.709   2.116   0.366  2.3925 -0.9081 -1.5099
  958SOL     OW12637   2.878   6.964   1.003  0.0761 -1.3597  1.0167
  958SOL    HW112638   2.869   6.920   0.914  0.5680  0.7844 -0.1264
  958SOL    HW212639   2.835   7.055   1.000  0.5195 -1.0656  2.8134
  959SOL     OW12640   2.800   9.793   0.735 -0.2606  0.3060 -0.4688
  959SOL    HW112641   2.737   9.825   0.807 -1.1155 -0.9629 -0.6387
  959SOL    HW212642   2.781   9.697   0.715  2.6247 -0.4686  0.3800
  960SOL     OW12643   3.085   8.039   2.283 -0.2016 -0.1746 -0.3970
  960SOL    HW112644   3.145   7.996   2.350  0.0845 -0.3252 -0.7461
  960SOL    HW212645   3.024   8.103   2.329  0.2262 -0.0225 -0.0376
  961SOL     OW12646   4.237   2.375   2.554 -0.5103  0.3759 -0.0439
  961SOL    HW112647   4.256   2.404   2.647  0.2121  1.3438 -0.4867
  961SOL    HW212648   4.168   2.435   2.513 -0.6374  0.1165 -0.2118
  962SOL     OW12649   3.229   4.568   2.711  0.5435 -0.6884  0.4242
  962SOL    HW112650   3.321   4.594   2.740  1.4365 -2.2702 -0.9253
  962SOL    HW212651   3.211   4.603   2.619 -0.2360 -0.3629  0.6870
  963SOL     OW12652   3.104   5.650   2.579  1.0171 -0.1444 -0.2389
  963SOL    HW112653   3.085   5.552   2.567  0.9016 -0.0456 -0.9039
  963SOL    HW212654   3.114   5.692   2.489 -0.3097  0.7258  0.0114
  964SOL     OW12655   3.202   8.515   1.719  0.5289  0.2183 -0.0446
  964SOL    HW112656   3.239   8.480   1.633  1.0675 -2.2586  1.1498
  964SOL    HW212657   3.114   8.472   1.738 -0.2319  1.7720 -0.0227
  965SOL     OW12658   2.985   4.698   1.163  0.0768  0.0260  0.5629
  965SOL    HW112659   3.058   4.741   1.110 -0.6577  0.3604 -0.1742
  965SOL    HW212660   3.018   4.682   1.256  0.9687  0.5047  0.3417
  966SOL     OW12661   2.737   8.699   2.454 -0.0660 -0.4647 -0.3815
  966SOL    HW112662   2.707   8.666   2.544 -1.0597  0.0708 -0.5106
  966SOL    HW212663   2.711   8.633   2.384 -0.6268 -0.1611 -0.4551
  967SOL     OW12664   3.258   1.866   1.180  0.6385  0.5835  0.0009
  967SOL    HW112665   3.291   1.893   1.090  2.5099  1.4506  0.9141
  967SOL    HW212666   3.258   1.766   1.187  2.8781  0.5535 -0.1301
  968SOL     OW12667   3.228   8.908   1.168  0.4161 -0.3293  0.2123
  968SOL    HW112668   3.133   8.887   1.146  0.2504  3.1195 -2.6655
  968SOL    HW212669   3.231   8.976   1.241  0.6909 -0.0348 -0.0762
  969SOL     OW12670   4.984   4.036   0.006  0.1019  0.2190  0.4145
  969SOL    HW112671   4.943   3.997  -0.076 -3.1110  3.7760  0.2299
  969SOL    HW212672   4.928   4.013   0.086  1.2329 -0.1615  1.1187
  970SOL     OW12673   2.327   8.501   2.302  0.1387  0.3023 -0.1405
  970SOL    HW112674   2.371   8.450   2.376  1.1745 -0.2602 -1.1248
  970SOL    HW212675   2.329   8.598   2.323 -1.8629 -0.0251  1.7641
  971SOL     OW12676   2.571   9.157   1.619 -0.0079  0.1692 -0.6802
  971SOL    HW112677   2.572   9.189   1.525  1.0326 -1.2433 -1.1811
  971SOL    HW212678   2.613   9.066   1.623  1.0359  0.7038  1.3117
  972SOL     OW12679   3.192   4.311   0.200 -0.3928 -0.6718  0.5909
  972SOL    HW112680   3.275   4.364   0.221 -0.8456 -0.1778  1.1365
  972SOL    HW212681   3.218   4.225   0.156  0.6082 -1.7763  3.2112
  973SOL     OW12682   2.686   0.113   1.240 -0.2095  0.0457  0.0276
  973SOL    HW112683   2.752   0.176   1.281 -0.7847 -0.5148  1.8610
  973SOL    HW212684   2.614   0.165   1.194 -0.3900  0.7306  1.0686
  974SOL     OW12685   3.536   1.131   2.419 -0.5350 -0.7118  0.2155
  974SOL    HW112686   3.569   1.176   2.501 -2.1760 -0.2071  0.6146
  974SOL    HW212687   3.454   1.178   2.385  0.3937 -0.6019 -1.9966
  975SOL     OW12688   3.713   3.637   0.648 -0.2517 -0.6396  0.5005
  975SOL    HW112689   3.619   3.661   0.672  0.2900  1.5831  0.5859
  975SOL    HW212690   3.771   3.645   0.729  0.0807 -1.6685  0.3701
  976SOL     OW12691   2.979   4.037   0.015 -0.0945 -0.0857  0.5373
  976SOL    HW112692   2.953   4.129  -0.015  0.7487  0.3041  0.9874
  976SOL    HW212693   2.932   4.016   0.101 -0.6891 -0.2855  0.1692
  977SOL     OW12694   3.170   9.630   1.473 -0.1116 -0.3672  0.3816
  977SOL    HW112695   3.131   9.551   1.427 -1.3952  0.3833  0.1702
  977SOL    HW212696   3.099   9.698   1.490  0.6636  0.0550  2.0283
  978SOL     OW12697   2.606   9.793   2.508  0.3185 -0.1375  0.8649
  978SOL    HW112698   2.541   9.865   2.485 -0.3653 -1.0041 -0.0180
  978SOL    HW212699   2.699   9.822   2.484  0.0815  0.5442  0.7655
  979SOL     OW12700   2.990   1.388   1.623 -0.1034  0.2421 -0.3362
  979SOL    HW112701   3.084   1.418   1.634  0.8219 -1.8802 -2.0246
  979SOL    HW212702   2.968   1.320   1.693 -0.6445  1.3001  0.5322
  980SOL     OW12703   3.050   2.553   0.078  0.6697  0.4098  0.2786
  980SOL    HW112704   2.969   2.542   0.135 -1.7981 -1.2624 -3.3514
  980SOL    HW212705   3.103   2.468   0.078  1.5899  0.9763  1.3995
  981SOL     OW12706   2.321   6.849   2.848  0.2033 -0.2981 -0.1905
  981SOL    HW112707   2.346   6.934   2.893 -0.0340  0.9790 -2.4035
  981SOL    HW212708   2.392   6.825   2.781 -0.8781 -0.5724 -1.2555
  982SOL     OW12709   2.821   8.816   0.348 -0.4515 -0.4847 -0.7115
  982SOL    HW112710   2.742   8.806   0.410  1.4383  0.2774  1.9205
  982SOL    HW212711   2.802   8.887   0.281 -1.5067  0.6982  0.7962
  983SOL     OW12712   2.885   0.180   2.454 -0.3900 -0.6174 -0.2147
  983SOL    HW112713   2.786   0.168   2.446 -0.2447 -1.2645 -1.0807
  983SOL    HW212714   2.932   0.100   2.417  0.4917  0.4988 -1.5666
  984SOL     OW12715   4.437   3.742   1.248  0.3021  0.0520 -0.3314
  984SOL    HW112716   4.533   3.748   1.276 -0.3661 -1.4402  2.4531
  984SOL    HW212717   4.428   3.675   1.175  1.2771 -0.5062  0.0405
  985SOL     OW12718   3.231   5.997   0.253 -0.1958  0.0659 -0.4118
  985SOL    HW112719   3.212   5.902   0.225 -0.4202 -1.1872  3.7236
  985SOL    HW212720   3.319   6.001   0.299 -0.8763  1.5639  0.7880
  986SOL     OW12721   2.536   8.242   2.270 -0.5139  0.2626  0.3432
  986SOL    HW112722   2.512   8.279   2.359 -0.1811 -0.3319  0.6825
  986SOL    HW212723   2.454   8.236   2.213 -0.5856  1.4454  0.3005
  987SOL     OW12724   3.120   8.437   2.315 -0.3863 -0.4120  0.9323
  987SOL    HW112725   3.187   8.447   2.242  0.9899  0.3235  2.2654
  987SOL    HW212726   3.098   8.527   2.353 -1.8126 -0.6919  0.7910
  988SOL     OW12727   2.651   0.393   2.765 -0.4014 -0.6365 -0.1264
  988SOL    HW112728   2.679   0.449   2.843  0.3330  0.1251 -0.9242
  988SOL    HW212729   2.712   0.411   2.688 -1.8205 -0.5405 -1.2293
  989SOL     OW12730   3.672   7.597   0.425  0.2262  0.2830 -0.1992
  989SOL    HW112731   3.720   7.672   0.380 -2.6682  1.8485 -0.7751
  989SOL    HW212732   3.599   7.633   0.482 -0.9828 -2.0834 -0.1870
  990SOL     OW12733   3.121   8.429   0.282  0.1999 -0.0734 -0.8792
  990SOL    HW112734   3.063   8.508   0.262 -0.7417 -0.2830  0.8758
  990SOL    HW212735   3.185   8.414   0.207 -0.0766  1.9378 -1.5378
  991SOL     OW12736   3.229   9.734   0.215 -0.3965  0.1676  0.0386
  991SOL    HW112737   3.180   9.648   0.205 -0.2784  0.2294 -1.1684
  991SOL    HW212738   3.170   9.810   0.186 -0.3946  0.4622  0.8054
  992SOL     OW12739   3.818   1.520   1.112 -0.1473  0.8257  0.5138
  992SOL    HW112740   3.904   1.469   1.105 -1.1052 -0.6696 -0.6824
  992SOL    HW212741   3.759   1.478   1.181 -1.9729 -1.2980 -2.2498
  993SOL     OW12742   3.308   4.872   0.657 -0.0842  0.1420  0.2350
  993SOL    HW112743   3.266   4.920   0.580  0.4970 -0.4545 -0.4657
  993SOL    HW212744   3.388   4.822   0.625 -1.3536 -2.2618  0.6992
  994SOL     OW12745   2.854   0.860   2.029 -0.7649  0.3846  0.0443
  994SOL    HW112746   2.888   0.943   2.073  0.7731  0.4021 -1.1491
  994SOL    HW212747   2.757   0.847   2.052 -0.1217  0.5950  3.0902
  995SOL     OW12748   4.488   1.738   1.989 -0.3479  0.4941  0.3918
  995SOL    HW112749   4.401   1.781   2.014 -1.0234 -0.7510  0.2259
  995SOL    HW212750   4.478   1.693   1.900  1.1679  2.3771 -0.7552
  996SOL     OW12751   3.548   9.934   0.108 -0.1433  0.3394  0.2893
  996SOL    HW112752   3.645   9.917   0.094  0.0589  1.4032  0.3985
  996SOL    HW212753   3.503   9.848   0.134  0.6653 -0.2608 -0.2755
  997SOL     OW12754   2.479   8.845   2.686 -0.1335  0.5808 -0.5650
  997SOL    HW112755   2.388   8.830   2.726 -0.7260  0.6459 -1.8505
  997SOL    HW212756   2.525   8.919   2.734 -0.8019  0.6187  0.0298
  998SOL     OW12757   2.483   9.887   1.956 -0.2325  0.2529  0.2881
  998SOL    HW112758   2.475   9.972   2.008  0.2372  0.1919  0.4592
  998SOL    HW212759   2.394   9.842   1.952  0.4071 -1.5112  4.0206
  999SOL     OW12760   3.122   2.252   0.373 -0.4776  0.4024 -0.4063
  999SOL    HW112761   3.058   2.251   0.450  0.7811 -0.7538  0.6622
  999SOL    HW212762   3.178   2.335   0.378  0.5491 -0.3275  0.7742
 1000SOL     OW12763   3.455   3.655   0.668  0.1139  0.5292 -0.2870
 1000SOL    HW112764   3.456   3.678   0.571 -0.7795 -0.1874 -0.4805
 1000SOL    HW212765   3.377   3.700   0.712 -1.1370 -1.3445 -0.4943
 1001SOL     OW12766   3.622   0.643   2.498  0.9042  0.6339 -0.1921
 1001SOL    HW112767   3.616   0.645   2.598  1.0927 -0.4106 -0.1511
 1001SOL    HW212768   3.663   0.728   2.465 -2.4171  2.5239  0.3633
 1002SOL     OW12769   3.133   2.991   1.146 -0.6016 -0.2830  0.0322
 1002SOL    HW112770   3.206   2.955   1.088  1.1989  1.1801  1.3544
 1002SOL    HW212771   3.158   3.082   1.180 -2.5981 -0.1750  1.3108
 1003SOL     OW12772   4.234   4.216   1.449  0.8770  0.7399  0.6881
 1003SOL    HW112773   4.222   4.137   1.389  0.2818  0.6157  0.9754
 1003SOL    HW212774   4.235   4.299   1.394  0.9061  0.5837  0.4486
 1004SOL     OW12775   4.714   2.737   1.616 -0.8392  0.1303 -0.3172
 1004SOL    HW112776   4.802   2.693   1.638 -1.5323 -1.4186 -0.5724
 1004SOL    HW212777   4.701   2.736   1.516 -1.6716 -0.6704 -0.1986
 1005SOL     OW12778   3.696   2.996   0.772  0.5759 -0.9975 -0.1474
 1005SOL    HW112779   3.626   3.067   0.771  1.2390 -0.3376 -0.3937
 1005SOL    HW212780   3.782   3.034   0.807  0.9624 -1.6518 -0.3628
 1006SOL     OW12781   4.366   8.598   0.417  0.4666 -0.4819 -0.1252
 1006SOL    HW112782   4.380   8.568   0.322  4.0881 -0.2843  0.2908
 1006SOL    HW212783   4.305   8.677   0.417  0.0761 -0.7267 -2.2405
 1007SOL     OW12784   3.373   3.873   1.988  0.5512 -0.1532 -0.3790
 1007SOL    HW112785   3.319   3.947   1.949 -0.6434 -0.7452  0.1330
 1007SOL    HW212786   3.379   3.798   1.922  2.5580  0.7392 -1.2778
 1008SOL     OW12787   2.147   8.873   2.362 -0.8242 -0.1422 -0.2045
 1008SOL    HW112788   2.136   8.973   2.355  2.0889  0.2537  0.3524
 1008SOL    HW212789   2.244   8.851   2.369 -1.3062 -3.2113 -2.5809
 1009SOL     OW12790   3.067   4.779   2.529  0.1976  0.0414 -0.0570
 1009SOL    HW112791   2.970   4.753   2.535  0.3236 -0.2331  0.9210
 1009SOL    HW212792   3.084   4.824   2.442 -0.5778 -0.8968 -0.7011
 1010SOL     OW12793   3.982   2.592   1.792  0.1598  0.2041  0.2950
 1010SOL    HW112794   3.909   2.560   1.732  0.9160  1.2768 -1.2255
 1010SOL    HW212795   3.945   2.657   1.858 -0.4176  0.0510  0.1209
 1011SOL     OW12796   3.633   4.272   1.877  0.0325  0.4568 -0.1541
 1011SOL    HW112797   3.597   4.252   1.968  0.7860 -1.3947 -0.2293
 1011SOL    HW212798   3.562   4.254   1.809 -0.1342  0.6153 -0.0206
 1012SOL     OW12799   4.411   1.236   0.390  0.6366 -0.4017  0.1082
 1012SOL    HW112800   4.374   1.144   0.400  1.2151 -0.7414 -0.8262
 1012SOL    HW212801   4.389   1.272   0.299  1.5719 -0.1495 -0.0278
 1013SOL     OW12802   2.933   2.781   2.847 -0.4283  0.1820  0.4395
 1013SOL    HW112803   2.993   2.705   2.872  0.5554  1.2256  1.3250
 1013SOL    HW212804   2.904   2.770   2.752  0.8248 -0.5785  0.1266
 1014SOL     OW12805   3.886   2.639   1.444  0.3632  0.2302  0.0646
 1014SOL    HW112806   3.829   2.602   1.371  0.3775  0.2942  0.0213
 1014SOL    HW212807   3.873   2.738   1.450  0.1082  0.1803  0.3679
 1015SOL     OW12808   1.998   7.426   1.321 -0.0357  0.1345  0.5406
 1015SOL    HW112809   2.072   7.380   1.370  0.1152 -0.2435 -0.0261
 1015SOL    HW212810   2.015   7.524   1.318  0.4088  0.0561  0.4818
 1016SOL     OW12811   2.714   4.656   1.199  0.0143 -0.6323 -0.0387
 1016SOL    HW112812   2.684   4.561   1.206 -0.5275 -0.4778 -0.2445
 1016SOL    HW212813   2.812   4.658   1.179  0.8346 -1.1377  3.5227
 1017SOL     OW12814   2.766   8.360   1.432 -0.2791  0.3303  0.0338
 1017SOL    HW112815   2.710   8.406   1.364  1.7330  1.6139 -0.7846
 1017SOL    HW212816   2.761   8.261   1.417  0.1071  0.5914 -1.9475
 1018SOL     OW12817   3.435   0.753   0.049 -0.6947 -1.1084 -0.7641
 1018SOL    HW112818   3.463   0.712  -0.038 -0.3555 -3.1740  0.2913
 1018SOL    HW212819   3.511   0.807   0.086 -0.5210 -0.9754 -1.3153
 1019SOL     OW12820   3.049   4.638   1.442  0.7663  0.0527 -0.5360
 1019SOL    HW112821   3.136   4.687   1.443  0.9977 -0.3538  1.7399
 1019SOL    HW212822   3.033   4.596   1.532 -0.4756 -2.1642 -1.7449
 1020SOL     OW12823   3.331   9.856   1.875 -0.7514  0.2215  0.2504
 1020SOL    HW112824   3.390   9.897   1.945  0.3396  0.1101 -0.5726
 1020SOL    HW212825   3.379   9.858   1.787 -1.5852 -0.8228 -0.2351
 1021SOL     OW12826   3.055   9.399   0.517  0.2356 -0.1703 -0.3665
 1021SOL    HW112827   3.012   9.474   0.567 -0.8010  0.3194 -1.9294
 1021SOL    HW212828   3.151   9.391   0.545  0.1714  1.2960  0.3354
 1022SOL     OW12829   3.876   2.755   1.031  0.1479 -0.2169 -0.4645
 1022SOL    HW112830   3.779   2.768   1.053  0.8209  0.1025  2.5178
 1022SOL    HW212831   3.892   2.661   1.002 -0.8839 -0.5600  0.0539
 1023SOL     OW12832   4.424   3.318   1.164 -0.7685 -0.0493 -0.3422
 1023SOL    HW112833   4.347   3.282   1.112 -0.7577 -1.0588  0.3018
 1023SOL    HW212834   4.467   3.243   1.215 -0.7389  0.9011  1.0563
 1024SOL     OW12835   3.401   2.030   1.363 -0.2158 -0.0591 -0.0403
 1024SOL    HW112836   3.341   1.974   1.307  0.0704 -0.6046  0.1946
 1024SOL    HW212837   3.426   2.113   1.313 -0.3300 -0.3244 -0.5363
 1025SOL     OW12838   3.832   4.835   0.419  0.2983  0.0334 -0.4650
 1025SOL    HW112839   3.796   4.888   0.496  2.3182 -2.3113  2.1730
 1025SOL    HW212840   3.866   4.898   0.349  0.0542  2.2339  1.3254
 1026SOL     OW12841   3.816   8.717   2.657 -0.2587 -0.1277  0.1297
 1026SOL    HW112842   3.835   8.787   2.587 -1.4252  0.1820  0.0994
 1026SOL    HW212843   3.876   8.731   2.735 -1.2734  1.6592  0.6235
 1027SOL     OW12844   4.153   2.605   1.518  0.3268 -0.4206 -0.0599
 1027SOL    HW112845   4.197   2.658   1.446  0.9112 -1.1095 -0.2126
 1027SOL    HW212846   4.055   2.600   1.501  0.3086  0.3695 -0.1981
 1028SOL     OW12847   3.039   4.929   1.944 -0.1088  0.4184  0.3115
 1028SOL    HW112848   3.028   4.910   1.847 -2.6588  1.4814  0.3635
 1028SOL    HW212849   3.072   5.022   1.956  1.0104  0.0103  0.4510
 1029SOL     OW12850   3.196   6.892   2.179 -0.1289  0.5380  1.1320
 1029SOL    HW112851   3.194   6.976   2.123 -1.2576  0.8220  1.5839
 1029SOL    HW212852   3.256   6.906   2.257  0.8211  0.4220  0.4298
 1030SOL     OW12853   2.637   4.605   0.337  0.3904 -0.4616  0.1581
 1030SOL    HW112854   2.593   4.669   0.400  2.1085  1.7837 -0.8049
 1030SOL    HW212855   2.571   4.538   0.305 -1.7490  1.4126  0.5121
 1031SOL     OW12856   4.006   0.474   1.932 -1.1661 -0.1861 -0.2562
 1031SOL    HW112857   4.037   0.536   1.860 -0.0169 -1.1420 -0.6009
 1031SOL    HW212858   3.939   0.521   1.990 -3.6570 -0.0275 -3.1302
 1032SOL     OW12859   2.276   8.570   1.381  0.6764 -0.3346 -0.0267
 1032SOL    HW112860   2.350   8.508   1.410  0.6235 -0.5394 -0.3222
 1032SOL    HW212861   2.222   8.598   1.461  1.2546  0.0531  0.2340
 1033SOL     OW12862   4.027   8.641   1.008  0.8754  0.0819 -0.3744
 1033SOL    HW112863   4.042   8.738   0.986  1.3396 -0.1317 -1.0321
 1033SOL    HW212864   3.937   8.613   0.974  0.4171  0.4737  0.4962
 1034SOL     OW12865   3.110   6.065   1.681 -0.1543 -0.5884 -0.1614
 1034SOL    HW112866   3.089   6.022   1.769  0.3877 -1.1715 -0.3169
 1034SOL    HW212867   3.157   6.000   1.622  1.2031  0.3899 -0.1885
 1035SOL     OW12868   3.283   4.463   1.937  0.2358 -0.6939 -0.1798
 1035SOL    HW112869   3.248   4.395   2.001  0.1311 -1.2962 -0.8784
 1035SOL    HW212870   3.323   4.539   1.989 -1.0962 -0.5134  0.6058
 1036SOL     OW12871   3.585   9.401   1.254  0.1586  0.0245 -0.1456
 1036SOL    HW112872   3.504   9.358   1.214 -0.2777  0.1644  0.5832
 1036SOL    HW212873   3.668   9.357   1.217 -0.2571 -0.4895 -0.4731
 1037SOL     OW12874   3.486   3.187   0.760  0.1289 -0.2476  0.4771
 1037SOL    HW112875   3.453   3.213   0.669 -2.5715 -0.7800  1.2470
 1037SOL    HW212876   3.471   3.263   0.823  0.2325 -0.5627  0.8793
 1038SOL     OW12877   2.845   5.159   1.738  0.7112  0.3003 -0.1407
 1038SOL    HW112878   2.774   5.103   1.782  0.3103  1.2078  0.3963
 1038SOL    HW212879   2.885   5.109   1.661 -0.5139 -0.2325 -0.4450
 1039SOL     OW12880   4.800   3.855   2.749  0.4295 -0.0360 -0.1152
 1039SOL    HW112881   4.847   3.867   2.661 -0.1474 -3.0036 -0.9227
 1039SOL    HW212882   4.701   3.855   2.733  0.1853  3.4264  1.1670
 1040SOL     OW12883   2.583   8.670   1.993  0.0085 -0.3563  0.0207
 1040SOL    HW112884   2.665   8.645   1.942 -0.7878 -0.6676 -1.1168
 1040SOL    HW212885   2.502   8.648   1.940 -0.7927  2.2026  0.0914
 1041SOL     OW12886   8.971   3.059   2.811  0.1401 -0.2339 -0.4762
 1041SOL    HW112887   8.873   3.080   2.814 -0.0857 -1.3369  0.2408
 1041SOL    HW212888   9.016   3.098   2.892  0.1475 -0.3979 -0.3999
 1042SOL     OW12889   3.804   3.544   0.914  0.1277  0.4879  0.0299
 1042SOL    HW112890   3.729   3.526   0.978 -1.4023  0.5939 -1.6957
 1042SOL    HW212891   3.824   3.462   0.862  1.0201  0.5473  0.2757
 1043SOL     OW12892   4.393   2.809   1.411  0.5683 -0.3689  0.1139
 1043SOL    HW112893   4.386   2.784   1.507  0.2514  0.4072  0.2919
 1043SOL    HW212894   4.475   2.767   1.372  0.6669 -0.7289  0.7077
 1044SOL     OW12895   3.090   9.335   0.259 -0.1393  0.6358 -0.2422
 1044SOL    HW112896   3.092   9.358   0.356 -0.3484 -0.6233  0.0676
 1044SOL    HW212897   3.036   9.403   0.210 -0.3791  1.0459  0.5842
 1045SOL     OW12898   3.596   4.026   0.809 -0.1242  0.1732 -0.7022
 1045SOL    HW112899   3.583   4.008   0.711  1.1011 -2.7656 -0.3732
 1045SOL    HW212900   3.690   4.057   0.825  0.0475 -0.5606 -0.2973
 1046SOL     OW12901   2.889   2.380   2.695 -0.0434  0.0542  0.0217
 1046SOL    HW112902   2.981   2.377   2.655  0.2428 -1.1233  0.7500
 1046SOL    HW212903   2.892   2.345   2.788 -0.8940  1.8542  0.7461
 1047SOL     OW12904   3.422   3.482   2.742  0.0650  0.0740 -0.0319
 1047SOL    HW112905   3.489   3.542   2.698 -0.1618 -0.9085 -1.7595
 1047SOL    HW212906   3.464   3.395   2.765  0.3446  0.7944  2.3136
 1048SOL     OW12907   4.030   9.027   0.360  0.3567 -0.3604 -0.1659
 1048SOL    HW112908   3.949   9.046   0.415  0.0022 -1.3656 -0.3355
 1048SOL    HW212909   4.042   9.100   0.292 -0.3565 -0.1647 -0.0891
 1049SOL     OW12910   2.353   9.131   1.750  0.4508  0.9552  0.0993
 1049SOL    HW112911   2.431   9.162   1.696  0.4710  1.6261  0.4990
 1049SOL    HW212912   2.369   9.153   1.847  0.3488 -0.0930  0.3543
 1050SOL     OW12913   2.473   8.320   2.818  0.1204 -0.4908 -0.0996
 1050SOL    HW112914   2.434   8.257   2.885  0.2074 -1.4005 -0.9028
 1050SOL    HW212915   2.533   8.385   2.865 -1.3120  0.0941  0.9632
 1051SOL     OW12916   3.372   2.670   1.967  0.6160 -0.4175 -0.2687
 1051SOL    HW112917   3.299   2.623   2.018 -0.8539  0.0144 -1.9239
 1051SOL    HW212918   3.385   2.762   2.004 -1.4848  0.4444 -1.5626
 1052SOL     OW12919   2.111   9.129   2.301 -0.1038 -0.3762  0.0359
 1052SOL    HW112920   2.163   9.202   2.345 -1.2069  1.3088 -1.4192
 1052SOL    HW212921   2.032   9.167   2.253  0.1750 -2.3505 -2.0851
 1053SOL     OW12922   2.947   8.236   2.400 -0.0282  0.1070 -0.1932
 1053SOL    HW112923   3.007   8.308   2.366 -0.0435  0.2027 -0.0207
 1053SOL    HW212924   2.877   8.275   2.460 -1.0322  0.1458 -1.3867
 1054SOL     OW12925   4.374   1.409   0.177  0.3475  0.3205 -0.4069
 1054SOL    HW112926   4.369   1.504   0.146  0.9101  0.6014  0.3424
 1054SOL    HW212927   4.283   1.367   0.173  0.1640  0.7862 -1.0703
 1055SOL     OW12928   3.149   9.325   2.509 -0.5528  0.2447 -0.1416
 1055SOL    HW112929   3.122   9.384   2.433  0.8213  0.8481 -0.1594
 1055SOL    HW212930   3.099   9.238   2.502 -0.5332  0.3400 -1.6583
 1056SOL     OW12931   3.698   1.453   0.750  0.3324  0.2447  0.8376
 1056SOL    HW112932   3.602   1.474   0.768 -0.0937  0.7036 -1.8568
 1056SOL    HW212933   3.755   1.530   0.778 -0.5249  1.8903 -1.7912
 1057SOL     OW12934   2.816   7.063   0.492 -0.8615 -0.4439  0.5171
 1057SOL    HW112935   2.848   6.971   0.467 -1.8862 -0.4455 -0.8687
 1057SOL    HW212936   2.869   7.131   0.442 -3.0447 -0.4511 -1.9346
 1058SOL     OW12937   3.648   9.860   1.330 -0.1347 -0.6216 -0.0823
 1058SOL    HW112938   3.689   9.823   1.247 -0.4686 -1.0222 -0.0715
 1058SOL    HW212939   3.551   9.836   1.333 -0.8891  2.1530 -1.1642
 1059SOL     OW12940   3.433   9.825   2.184  0.0197 -0.0201  0.2660
 1059SOL    HW112941   3.528   9.839   2.155  0.1592 -2.7018 -0.6989
 1059SOL    HW212942   3.424   9.736   2.229 -1.4827  1.4313  2.9900
 1060SOL     OW12943   3.687   9.888   2.075 -0.3852  0.3158  0.9671
 1060SOL    HW112944   3.740   9.870   1.991 -1.7923  0.3932  0.0536
 1060SOL    HW212945   3.750   9.915   2.148  0.7411  1.4783 -0.3923
 1061SOL     OW12946   3.063   4.774   2.812 -0.2262  0.7183 -0.0254
 1061SOL    HW112947   3.096   4.680   2.822  0.0453  1.0314  2.2185
 1061SOL    HW212948   3.096   4.812   2.725 -0.9323 -1.4651 -1.2958
 1062SOL     OW12949   3.359   0.112   1.204  0.1695  0.0864 -0.5643
 1062SOL    HW112950   3.277   0.168   1.193 -0.4247 -0.6422  0.1156
 1062SOL    HW212951   3.344   0.044   1.276  0.4017 -1.8223 -2.2829
 1063SOL     OW12952   2.462   7.979   2.103  0.2831 -0.4219  0.2903
 1063SOL    HW112953   2.396   7.930   2.160 -3.6061  2.9700 -1.0229
 1063SOL    HW212954   2.499   8.056   2.155  1.9680 -1.2899  0.4210
 1064SOL     OW12955   4.023   9.184   2.206  0.6396  0.6541 -0.2080
 1064SOL    HW112956   4.039   9.201   2.303  0.4638  1.0794 -0.2527
 1064SOL    HW212957   3.938   9.228   2.177 -0.6076 -1.5852  0.0088
 1065SOL     OW12958   3.676   3.264   1.731  0.1316 -0.3362 -0.7293
 1065SOL    HW112959   3.590   3.238   1.686 -0.4723 -1.8875  1.2754
 1065SOL    HW212960   3.745   3.194   1.712 -0.1568 -1.0600  0.7829
 1066SOL     OW12961   2.205   8.157   0.241 -0.1850 -0.5986  1.6785
 1066SOL    HW112962   2.297   8.118   0.253  0.1465 -0.4229 -0.1369
 1066SOL    HW212963   2.137   8.084   0.246  0.2451 -1.0700  0.8306
 1067SOL     OW12964   2.645   0.270   1.796  0.3088 -0.1751  0.2159
 1067SOL    HW112965   2.709   0.205   1.755 -0.1318 -0.5372  0.0986
 1067SOL    HW212966   2.555   0.259   1.754 -0.1516 -0.5603  1.2907
 1068SOL     OW12967   4.053   0.636   1.101  0.3350  0.6965 -0.4166
 1068SOL    HW112968   4.122   0.563   1.097 -0.1970 -0.1831  3.8807
 1068SOL    HW212969   3.995   0.631   1.020  2.1627 -1.8118 -1.6450
 1069SOL     OW12970   3.585   0.664   0.996 -0.1519 -0.1519 -0.6626
 1069SOL    HW112971   3.641   0.746   0.992  0.4588 -0.5305 -0.0330
 1069SOL    HW212972   3.559   0.636   0.903  0.6362  0.0654 -0.9494
 1070SOL     OW12973   3.059   1.498   2.477 -0.3601 -0.5744 -0.1043
 1070SOL    HW112974   3.041   1.468   2.384 -1.7435 -0.7137  0.1998
 1070SOL    HW212975   2.981   1.476   2.535  1.0715 -1.8226  1.4123
 1071SOL     OW12976   2.874   9.374   1.601  0.0629 -0.3670 -0.4760
 1071SOL    HW112977   2.884   9.275   1.594 -1.3226 -0.4908 -0.8280
 1071SOL    HW212978   2.878   9.402   1.697 -1.3606 -0.9735 -0.2289
 1072SOL     OW12979   2.606   8.505   0.368 -0.1239 -0.0993  0.0644
 1072SOL    HW112980   2.535   8.545   0.425  1.0065  0.8432  0.8436
 1072SOL    HW212981   2.696   8.531   0.404  0.6482 -2.5210  0.0085
 1073SOL     OW12982   2.683   6.876   0.232  0.1100  0.6044 -0.3474
 1073SOL    HW112983   2.590   6.852   0.261  0.1761  0.5170 -0.2052
 1073SOL    HW212984   2.748   6.847   0.303  0.0106  3.0635  0.8005
 1074SOL     OW12985   3.337   0.032   0.540  0.3106 -0.0464 -0.2388
 1074SOL    HW112986   3.245   0.072   0.540 -0.3603 -1.5348  0.1544
 1074SOL    HW212987   3.405   0.104   0.544 -0.8629  1.0642  0.0065
 1075SOL     OW12988   4.559   2.560   0.517 -0.5616 -0.2872  0.6789
 1075SOL    HW112989   4.468   2.599   0.520 -0.9511 -0.9167 -1.6810
 1075SOL    HW212990   4.625   2.630   0.487 -0.3434  0.0415  1.9202
 1076SOL     OW12991   2.943   9.783   1.535 -1.0614 -0.3791 -0.0932
 1076SOL    HW112992   2.924   9.864   1.590 -0.1910  0.2585 -0.7035
 1076SOL    HW212993   2.875   9.712   1.555 -1.0216 -0.0037  1.4468
 1077SOL     OW12994   3.770   9.341   2.190 -0.4522 -0.1899 -0.7755
 1077SOL    HW112995   3.780   9.375   2.096 -0.6796 -1.8510 -1.4228
 1077SOL    HW212996   3.680   9.367   2.225 -1.0336 -1.0233 -1.6363
 1078SOL     OW12997   3.538   9.320   2.630 -0.4060  0.4293  0.7216
 1078SOL    HW112998   3.544   9.340   2.728 -1.5534 -1.1340  1.1413
 1078SOL    HW212999   3.604   9.249   2.606 -0.8925  0.0139  0.5985
 1079SOL     OW13000   2.883   1.964   1.684 -0.1572 -0.1023 -0.3755
 1079SOL    HW113001   2.848   2.013   1.604 -0.0638  0.2794 -0.1844
 1079SOL    HW213002   2.981   1.982   1.694 -0.0928 -0.4480 -0.3922
 1080SOL     OW13003   2.655   5.528   0.400 -0.5366  0.6941 -0.3239
 1080SOL    HW113004   2.592   5.559   0.471 -1.2539 -1.8241  0.2083
 1080SOL    HW213005   2.607   5.524   0.312 -0.3212  1.5284 -0.4767
 1081SOL     OW13006   4.766   2.507   0.730 -0.2511  0.0733 -0.2687
 1081SOL    HW113007   4.736   2.588   0.781 -0.4847 -1.1372  1.5957
 1081SOL    HW213008   4.734   2.513   0.636 -1.6219  1.4088  0.2610
 1082SOL     OW13009   3.816   8.958   2.505  0.3390 -0.1029  0.9486
 1082SOL    HW113010   3.783   8.945   2.412  2.7415  0.3445 -0.0090
 1082SOL    HW213011   3.867   9.044   2.511 -0.5983  0.3538  2.9283
 1083SOL     OW13012   3.978   2.512   0.679 -0.3041  0.1983  0.5773
 1083SOL    HW113013   3.957   2.492   0.583 -0.9413  1.6590  0.3993
 1083SOL    HW213014   3.892   2.518   0.730 -0.0140  0.4937  1.0254
 1084SOL     OW13015   3.288   4.058   2.345  0.1797  0.0504 -0.0352
 1084SOL    HW113016   3.344   3.981   2.316  1.8972  0.8654  1.0389
 1084SOL    HW213017   3.258   4.044   2.439  0.3140  0.5932  0.0892
 1085SOL     OW13018   4.151   4.608   1.863  0.0816 -0.7304  0.0203
 1085SOL    HW113019   4.234   4.652   1.830 -0.7622 -0.8514 -2.3337
 1085SOL    HW213020   4.108   4.556   1.789 -3.1376  0.9099  0.6179
 1086SOL     OW13021   3.123   6.718   0.401  0.0556 -0.3214 -0.1551
 1086SOL    HW113022   3.147   6.793   0.340 -0.5916  0.1314  0.1281
 1086SOL    HW213023   3.134   6.748   0.496 -0.3145 -0.5384 -0.0407
 1087SOL     OW13024   3.347   1.937   0.518  0.4250  1.0347  0.4890
 1087SOL    HW113025   3.275   1.998   0.551  1.1198  0.9499  2.1868
 1087SOL    HW213026   3.311   1.844   0.509  0.5492  0.8243  2.1510
 1088SOL     OW13027   3.665   3.043   0.229  0.6206  0.4516  0.1374
 1088SOL    HW113028   3.578   3.013   0.190  0.3726  0.1012  0.9398
 1088SOL    HW213029   3.673   3.009   0.323  2.6705 -1.5037 -0.7070
 1089SOL     OW13030   2.593   4.816   0.514 -0.0386 -0.1489 -0.3941
 1089SOL    HW113031   2.674   4.829   0.571  0.1144  1.6638 -0.9920
 1089SOL    HW213032   2.556   4.905   0.487 -1.8088 -0.9617 -0.7328
 1090SOL     OW13033   4.628   2.656   2.705  0.6002  0.3985  0.2109
 1090SOL    HW113034   4.679   2.739   2.687  1.2654 -0.3035 -1.1855
 1090SOL    HW213035   4.546   2.654   2.648  1.7481 -0.9505 -1.4231
 1091SOL     OW13036   4.715   3.695   0.952  0.2888 -0.0184  0.0047
 1091SOL    HW113037   4.630   3.657   0.988  0.5113  0.7081  1.3244
 1091SOL    HW213038   4.694   3.765   0.884 -0.1358 -0.9147 -0.8085
 1092SOL     OW13039   3.147   0.238   0.559  0.4328 -0.1376  0.1214
 1092SOL    HW113040   3.120   0.252   0.464  0.7633  0.5913  0.1297
 1092SOL    HW213041   3.078   0.276   0.620  0.1770 -0.6858  0.1810
 1093SOL     OW13042   2.607   8.609   2.676  0.6845  0.0716  0.7129
 1093SOL    HW113043   2.551   8.689   2.697  1.4219  0.5691  0.8066
 1093SOL    HW213044   2.651   8.576   2.759  1.5055  0.4352  0.4343
 1094SOL     OW13045   4.235   3.895   1.630 -0.5108 -0.3615 -0.0624
 1094SOL    HW113046   4.289   3.978   1.618 -0.1040 -0.7668 -1.0825
 1094SOL    HW213047   4.295   3.815   1.633 -1.0030 -0.7685 -0.7272
 1095SOL     OW13048   3.256   2.065   2.612 -0.2057  0.2129 -0.3552
 1095SOL    HW113049   3.181   2.008   2.646 -0.4263  0.4459 -0.4500
 1095SOL    HW213050   3.227   2.111   2.527  0.7868 -1.3748 -1.5712
 1096SOL     OW13051   2.907   9.683   1.976  0.6434  1.0648  0.1426
 1096SOL    HW113052   2.897   9.585   1.958 -0.9509  1.4291 -1.1418
 1096SOL    HW213053   2.993   9.716   1.937  1.1709  0.1935  0.5563
 1097SOL     OW13054   4.369   0.690   0.828  0.4488 -0.6170  0.0565
 1097SOL    HW113055   4.277   0.724   0.807  1.2585 -0.0263 -2.8573
 1097SOL    HW213056   4.425   0.767   0.859  0.9278 -0.1962 -1.7601
 1098SOL     OW13057   3.907   0.789   1.286 -0.3906 -0.3937  0.4438
 1098SOL    HW113058   3.942   0.723   1.219  0.0338  0.3077 -0.0336
 1098SOL    HW213059   3.855   0.740   1.356 -0.7120 -1.1642 -0.3062
 1099SOL     OW13060   3.014   4.761   0.466 -0.2294 -0.2870  0.3261
 1099SOL    HW113061   2.967   4.834   0.418 -0.6309 -0.0476  1.0825
 1099SOL    HW213062   2.986   4.760   0.562 -2.1721 -3.0458 -0.2110
 1100SOL     OW13063   2.498   6.512   2.360 -0.2238 -0.6114 -0.0556
 1100SOL    HW113064   2.577   6.496   2.301  0.8932 -0.8097  1.4598
 1100SOL    HW213065   2.443   6.586   2.322 -0.8722 -2.3205 -2.6465
 1101SOL     OW13066   3.398   2.660   0.261  0.0362 -0.7724 -0.6271
 1101SOL    HW113067   3.487   2.622   0.284 -0.2976 -1.2216 -0.0354
 1101SOL    HW213068   3.408   2.755   0.231  0.6828 -0.7336 -0.2867
 1102SOL     OW13069   2.326   8.989   0.602 -0.3402  0.1147 -0.0992
 1102SOL    HW113070   2.390   8.980   0.525  0.0081  1.4578  0.0321
 1102SOL    HW213071   2.292   9.083   0.607 -1.8852 -0.4425  0.1931
 1103SOL     OW13072   2.787   1.609   2.812  0.1067  0.6177  0.2189
 1103SOL    HW113073   2.885   1.619   2.795  0.1344 -2.3011 -1.6678
 1103SOL    HW213074   2.739   1.690   2.777  1.7047  1.4927 -0.0040
 1104SOL     OW13075   2.663   9.410   1.111 -0.0044 -0.5660  0.0927
 1104SOL    HW113076   2.627   9.385   1.021  0.4598 -1.9096  0.2735
 1104SOL    HW213077   2.733   9.481   1.099  0.5058 -1.1813 -0.6775
 1105SOL     OW13078   3.488   4.644   0.362  0.0857 -0.5323  0.5063
 1105SOL    HW113079   3.399   4.663   0.320 -0.5872  0.5608  2.3543
 1105SOL    HW213080   3.561   4.675   0.301 -0.8321 -0.4181 -0.5476
 1106SOL     OW13081   2.887   6.822   1.479 -0.6384 -0.1342  0.2856
 1106SOL    HW113082   2.843   6.732   1.478 -0.3624 -0.2693  0.0841
 1106SOL    HW213083   2.955   6.825   1.552 -1.2913  0.2246  0.8801
 1107SOL     OW13084   2.987   2.801   1.758  0.2891  0.5980  0.7973
 1107SOL    HW113085   3.082   2.830   1.754  0.1957  0.7941  0.0194
 1107SOL    HW213086   2.935   2.865   1.815  0.4525  0.9460  0.5539
 1108SOL     OW13087   2.851   5.019   1.066 -0.0844 -0.2682 -0.1436
 1108SOL    HW113088   2.943   4.986   1.045 -0.3701 -1.8718  0.9983
 1108SOL    HW213089   2.855   5.115   1.094  0.9777  0.2543 -1.9840
 1109SOL     OW13090   3.185   3.838   0.490 -0.2715  0.5631  0.0614
 1109SOL    HW113091   3.213   3.905   0.559  0.8617  0.1658  0.0052
 1109SOL    HW213092   3.267   3.795   0.451 -0.9019  1.0955 -1.8443
 1110SOL     OW13093   3.287   4.758   1.425  0.6311 -0.1897 -0.3481
 1110SOL    HW113094   3.328   4.813   1.352  1.8743  2.2099  2.0497
 1110SOL    HW213095   3.356   4.699   1.466 -0.1207 -1.7202 -1.2249
 1111SOL     OW13096   2.658   7.067   1.399  0.1582  0.9390  0.3705
 1111SOL    HW113097   2.576   7.032   1.353  0.5996  1.0298 -0.4829
 1111SOL    HW213098   2.738   7.053   1.341  0.8794  0.1259  1.5398
 1112SOL     OW13099   2.886   0.207   1.383 -0.0800  0.8256 -0.3324
 1112SOL    HW113100   2.978   0.170   1.384 -0.8257 -1.1260 -0.5800
 1112SOL    HW213101   2.839   0.184   1.469 -1.4226 -1.2056 -1.5457
 1113SOL     OW13102   2.183   8.720   0.505  0.2499 -0.3387 -0.7986
 1113SOL    HW113103   2.256   8.654   0.487  2.7405  2.2248 -0.2706
 1113SOL    HW213104   2.221   8.804   0.543 -3.0466  0.8619  0.0531
 1114SOL     OW13105   3.118   2.862   0.557  0.3928 -0.3170 -1.1253
 1114SOL    HW113106   3.112   2.818   0.468  1.6457 -1.3588 -0.7076
 1114SOL    HW213107   3.199   2.921   0.560 -0.1222  0.3934 -0.9668
 1115SOL     OW13108   3.223   3.287   1.735 -0.6570 -0.2063 -0.2246
 1115SOL    HW113109   3.129   3.290   1.770 -0.9384 -0.8224 -0.9325
 1115SOL    HW213110   3.237   3.203   1.683  0.3604 -0.2283  0.0642
 1116SOL     OW13111   3.395   8.204   1.302 -0.5000 -0.0353 -0.5669
 1116SOL    HW113112   3.343   8.209   1.387 -1.2253  1.4938 -1.0631
 1116SOL    HW213113   3.432   8.295   1.280  0.3968 -0.5942 -1.4392
 1117SOL     OW13114   4.573   2.520   1.171  0.4110 -0.8931  0.2447
 1117SOL    HW113115   4.552   2.446   1.235  0.3176 -0.1259  1.1147
 1117SOL    HW213116   4.612   2.482   1.087 -0.6049 -2.0008  0.2713
 1118SOL     OW13117   3.965   3.952   1.566 -0.3463 -0.0451  0.2477
 1118SOL    HW113118   3.906   3.887   1.615  1.4537 -1.2580  0.8372
 1118SOL    HW213119   4.061   3.935   1.590  0.2311  2.1763 -0.3783
 1119SOL     OW13120   4.279   0.709   1.772  0.4857 -0.1728  0.4640
 1119SOL    HW113121   4.352   0.711   1.840  0.6429  0.5097  0.2692
 1119SOL    HW213122   4.269   0.615   1.738  0.7476 -0.4205  1.0503
 1120SOL     OW13123   2.191   8.630   1.634 -0.7471  0.0971  0.1362
 1120SOL    HW113124   2.241   8.569   1.695  0.6331 -1.4274 -2.4221
 1120SOL    HW213125   2.196   8.724   1.669  1.9129 -0.3893  1.1923
 1121SOL     OW13126   3.875   4.193   1.163 -0.9885  0.1155  0.1204
 1121SOL    HW113127   3.780   4.209   1.135 -1.2452 -1.5284  0.0042
 1121SOL    HW213128   3.876   4.170   1.261 -0.9821 -2.2806 -0.4292
 1122SOL     OW13129   4.067   3.573   1.248  1.3478 -0.2519 -0.5995
 1122SOL    HW113130   4.023   3.652   1.291  0.6126 -1.5330  1.0847
 1122SOL    HW213131   4.086   3.593   1.152 -0.2093  1.4164 -0.5858
 1123SOL     OW13132   2.259   7.610   2.131  0.3979 -0.4651  0.0951
 1123SOL    HW113133   2.273   7.545   2.206  2.6422  1.2994  1.2651
 1123SOL    HW213134   2.219   7.694   2.167  0.4322 -0.0345 -0.8635
 1124SOL     OW13135   3.683   1.490   2.188  0.6041 -0.3213 -0.6532
 1124SOL    HW113136   3.716   1.583   2.174  1.4960 -0.7135 -1.1699
 1124SOL    HW213137   3.583   1.492   2.200  0.7282  0.7901  0.2900
 1125SOL     OW13138   3.887   2.785   2.214 -0.1990  0.0942 -0.2917
 1125SOL    HW113139   3.983   2.811   2.207 -0.7776  2.3683 -0.2108
 1125SOL    HW213140   3.833   2.863   2.246 -2.1947 -0.9087 -1.0789
 1126SOL     OW13141   4.287   1.676   0.117 -0.5051  0.7621 -0.6151
 1126SOL    HW113142   4.206   1.702   0.169  1.9882  0.2732  3.7467
 1126SOL    HW213143   4.345   1.756   0.103 -0.4719  0.6014 -1.4664
 1127SOL     OW13144   3.130   5.257   2.025  0.4871  0.5871  0.2341
 1127SOL    HW113145   3.178   5.292   2.106 -1.7412  1.7548  1.0911
 1127SOL    HW213146   3.032   5.274   2.034 -0.0354 -1.0847 -1.8201
 1128SOL     OW13147   3.763   0.634   1.450 -0.0024 -0.4311 -0.2238
 1128SOL    HW113148   3.711   0.593   1.375  1.2286 -1.2845 -0.6360
 1128SOL    HW213149   3.727   0.601   1.538 -0.7744 -0.2519 -0.4681
 1129SOL     OW13150   3.076   3.342   2.834 -0.2916 -0.1226  0.0024
 1129SOL    HW113151   3.014   3.266   2.857  0.0486 -0.3250  0.2496
 1129SOL    HW213152   3.032   3.401   2.766 -0.2487 -0.9698 -0.7716
 1130SOL     OW13153   3.352   7.892   2.679 -0.1396 -0.4447 -0.3649
 1130SOL    HW113154   3.423   7.886   2.749  1.1129 -0.5922 -1.6358
 1130SOL    HW213155   3.271   7.937   2.718  1.3346  1.4887  0.5670
 1131SOL     OW13156   4.325   4.127   1.061  0.1536 -0.1474  0.3824
 1131SOL    HW113157   4.335   4.109   1.159  0.1466  1.2142  0.6471
 1131SOL    HW213158   4.255   4.198   1.047  1.2729  0.8148 -0.4886
 1132SOL     OW13159   2.579   4.208   0.517 -0.4590 -0.2239 -0.7291
 1132SOL    HW113160   2.620   4.202   0.608 -2.1191  1.3139  0.1464
 1132SOL    HW213161   2.640   4.165   0.450  1.8821  0.7328  0.7375
 1133SOL     OW13162   3.982   8.389   0.237  0.1888  0.3428  0.5232
 1133SOL    HW113163   3.957   8.349   0.149 -0.1565  1.6076  0.0271
 1133SOL    HW213164   4.021   8.319   0.296 -4.6941 -1.8647  1.4210
 1134SOL     OW13165   2.388   8.599   1.811 -0.0718 -0.5027  0.4305
 1134SOL    HW113166   2.323   8.669   1.843  0.9550  0.3181  0.7558
 1134SOL    HW213167   2.431   8.630   1.726  0.6835 -0.5507  0.7935
 1135SOL     OW13168   3.071   2.466   1.441 -0.1296 -0.2940  0.1734
 1135SOL    HW113169   3.043   2.374   1.467  0.6080 -0.2752  1.0340
 1135SOL    HW213170   3.007   2.532   1.481 -0.8365 -0.4405 -0.6959
 1136SOL     OW13171   3.432   4.415   1.622  0.3573 -0.2598  0.0448
 1136SOL    HW113172   3.464   4.489   1.563  0.6546 -0.7577 -0.4252
 1136SOL    HW213173   3.364   4.450   1.687  0.5306  0.4286 -0.1485
 1137SOL     OW13174   2.891   8.528   1.606  0.1611  0.0948  0.3676
 1137SOL    HW113175   2.947   8.596   1.558 -0.6975  0.4628 -0.1362
 1137SOL    HW213176   2.842   8.472   1.540 -1.0144  0.5869  0.7912
 1138SOL     OW13177   3.803   9.629   0.784 -0.2738 -0.8019 -0.1641
 1138SOL    HW113178   3.805   9.664   0.878  0.5179  1.0890 -0.8719
 1138SOL    HW213179   3.720   9.661   0.738  0.0283 -0.5636 -0.5447
 1139SOL     OW13180   2.926   8.453   2.093  0.5043  0.2363  0.5967
 1139SOL    HW113181   2.867   8.514   2.146 -0.1724 -0.8304  1.0828
 1139SOL    HW213182   3.022   8.472   2.115  0.4978  3.2730 -1.5878
 1140SOL     OW13183   4.408   1.996   2.641 -0.1888 -0.4042  0.0279
 1140SOL    HW113184   4.433   2.074   2.584 -1.2765  1.5231  2.1240
 1140SOL    HW213185   4.325   1.953   2.605 -0.4958  0.4066 -0.2391
 1141SOL     OW13186   3.183   4.549   2.419  0.0688  0.3766  0.6072
 1141SOL    HW113187   3.141   4.639   2.428 -1.2445 -0.0140 -1.2862
 1141SOL    HW213188   3.112   4.480   2.401  1.3643 -0.4518 -1.6621
 1142SOL     OW13189   3.054   8.778   1.774  0.1234 -0.1582 -0.8300
 1142SOL    HW113190   3.088   8.684   1.784  1.3208  0.3246 -0.2600
 1142SOL    HW213191   2.988   8.781   1.699 -0.8497 -1.6896 -0.0704
 1143SOL     OW13192   3.226   0.478   0.030  0.1303 -0.0623 -0.4754
 1143SOL    HW113193   3.210   0.380   0.044 -1.7741  0.1201 -1.1000
 1143SOL    HW213194   3.252   0.520   0.116  1.9880 -1.2977 -0.4193
 1144SOL     OW13195   2.322   5.496   2.477  0.2887  0.3202  0.3131
 1144SOL    HW113196   2.307   5.469   2.572  0.5402 -0.0098  0.2586
 1144SOL    HW213197   2.266   5.439   2.417 -0.7700  1.3058  0.3406
 1145SOL     OW13198   2.680   2.715   2.496  0.4102  0.1564  0.3856
 1145SOL    HW113199   2.673   2.801   2.547  0.2137  0.8818 -0.8410
 1145SOL    HW213200   2.621   2.719   2.416  0.5452 -1.0567  0.2204
 1146SOL     OW13201   2.688   4.495   1.753  0.8434 -0.0203 -0.0272
 1146SOL    HW113202   2.665   4.402   1.725 -0.0826  0.3539 -0.5227
 1146SOL    HW213203   2.653   4.511   1.845  0.4065  0.0612 -0.2061
 1147SOL     OW13204   3.710   4.302   0.261 -0.3229  0.0926 -0.4251
 1147SOL    HW113205   3.769   4.261   0.331 -0.2159  1.0343  0.0495
 1147SOL    HW213206   3.680   4.232   0.197  1.0524 -0.4508 -0.4763
 1148SOL     OW13207   2.605   1.322   2.045 -0.7181 -0.4202  0.0860
 1148SOL    HW113208   2.521   1.354   2.002 -0.8577 -0.6856  0.1583
 1148SOL    HW213209   2.667   1.399   2.059 -0.8259 -0.2699 -0.2402
 1149SOL     OW13210   4.222   8.593   0.820 -0.2187  0.1899  0.0229
 1149SOL    HW113211   4.147   8.597   0.886 -1.5471 -2.1212 -1.2909
 1149SOL    HW213212   4.215   8.671   0.758 -0.8366  0.6161  0.6092
 1150SOL     OW13213   3.549   9.106   0.917  0.0851 -0.3725 -0.3380
 1150SOL    HW113214   3.608   9.028   0.938 -0.7903 -1.7746 -2.7919
 1150SOL    HW213215   3.583   9.187   0.964  3.2285 -1.4215 -0.6596
 1151SOL     OW13216   3.543   1.518   2.665  0.3292 -0.4761 -0.2122
 1151SOL    HW113217   3.446   1.537   2.649  0.1074 -2.0169 -0.8698
 1151SOL    HW213218   3.585   1.594   2.714 -1.0748  0.4696 -0.4436
 1152SOL     OW13219   3.432   9.368   0.034 -0.0283 -0.2900  0.4789
 1152SOL    HW113220   3.346   9.396  -0.008  1.4084  1.5581 -1.3147
 1152SOL    HW213221   3.413   9.302   0.107 -2.8858 -0.4745 -0.3617
 1153SOL     OW13222   4.414   2.722   2.481 -0.5836 -0.5474 -0.0824
 1153SOL    HW113223   4.418   2.649   2.413 -0.5645 -0.5865 -0.0396
 1153SOL    HW213224   4.319   2.754   2.489 -0.6705 -0.8714  0.2154
 1154SOL     OW13225   3.519   9.642   1.065  0.5709 -0.0013 -0.1447
 1154SOL    HW113226   3.556   9.556   1.100 -1.7773 -0.8322  0.3852
 1154SOL    HW213227   3.479   9.695   1.141  0.4071  0.7363 -0.7328
 1155SOL     OW13228   2.760   2.094   2.611  0.0748 -0.0189 -0.1621
 1155SOL    HW113229   2.744   2.192   2.597 -0.5349 -0.1945 -0.7415
 1155SOL    HW213230   2.791   2.054   2.525  0.2677 -0.3468  0.0618
 1156SOL     OW13231   2.822   9.841   1.292 -0.1878  0.5930 -0.2358
 1156SOL    HW113232   2.771   9.926   1.278  2.9574  2.4221 -1.2581
 1156SOL    HW213233   2.846   9.833   1.389  1.4953  2.1615 -0.4740
 1157SOL     OW13234   3.494   9.137   2.290 -0.2100  0.3704  0.4025
 1157SOL    HW113235   3.584   9.101   2.265  0.6285  1.4117  1.8271
 1157SOL    HW213236   3.424   9.092   2.235  1.2421  0.1225 -1.3081
 1158SOL     OW13237   3.410   9.780   0.857  0.2075  0.1013  0.0470
 1158SOL    HW113238   3.444   9.703   0.912  0.9230 -1.3087 -2.2861
 1158SOL    HW213239   3.313   9.795   0.877  0.3429 -0.6818  1.3579
 1159SOL     OW13240   3.693   0.871   0.110 -0.0402  0.5001  0.5363
 1159SOL    HW113241   3.717   0.776   0.132 -1.8506 -0.2007 -0.4166
 1159SOL    HW213242   3.775   0.927   0.111  0.9067 -0.8602  2.1943
 1160SOL     OW13243   4.242   3.861   0.937  0.1124 -0.6459 -0.0939
 1160SOL    HW113244   4.165   3.804   0.965  1.4429 -1.3733  2.2082
 1160SOL    HW213245   4.246   3.942   0.995  0.1195  0.2144 -1.2799
 1161SOL     OW13246   3.773   3.495   2.495  0.1555  0.1296 -0.2385
 1161SOL    HW113247   3.784   3.409   2.545 -2.2720 -0.8247 -1.2878
 1161SOL    HW213248   3.843   3.501   2.424  0.5176 -0.8435  0.0183
 1162SOL     OW13249   2.842   1.945   2.378 -0.5857 -0.2914  0.3025
 1162SOL    HW113250   2.768   1.903   2.326 -0.0199 -1.1909  0.2070
 1162SOL    HW213251   2.926   1.892   2.365  0.6150  1.9415 -1.3706
 1163SOL     OW13252   2.611   9.316   0.853  0.5047 -0.3421 -0.3082
 1163SOL    HW113253   2.587   9.225   0.886  0.2808 -0.6528 -1.3396
 1163SOL    HW213254   2.653   9.310   0.763  0.3117  0.5920 -0.4683
 1164SOL     OW13255   3.397   3.442   0.843  0.0251  0.3607  0.0958
 1164SOL    HW113256   3.448   3.503   0.783  0.6420 -1.4583 -1.2806
 1164SOL    HW213257   3.300   3.446   0.821  0.0564  0.9009  0.0616
 1165SOL     OW13258   2.982   4.496   2.071 -0.3687  0.3793  0.0652
 1165SOL    HW113259   2.930   4.428   2.021  0.6408 -0.9194  0.7662
 1165SOL    HW213260   3.070   4.458   2.099  1.3001  2.7496 -1.6998
 1166SOL     OW13261   5.420   2.768   1.562 -0.2287 -0.3989 -0.0172
 1166SOL    HW113262   5.326   2.770   1.529 -0.3433 -0.1022  0.3312
 1166SOL    HW213263   5.467   2.688   1.524 -1.0461 -1.3521  0.9729
 1167SOL     OW13264   3.522   7.780   0.580 -0.3841  0.3073 -0.0961
 1167SOL    HW113265   3.427   7.789   0.611 -0.7332  2.4203 -1.6680
 1167SOL    HW213266   3.584   7.813   0.651 -0.8634 -0.2743  0.5965
 1168SOL     OW13267   3.234   0.552   1.737 -0.0260 -0.4945  0.3378
 1168SOL    HW113268   3.157   0.586   1.791  1.3674  2.8934  0.3037
 1168SOL    HW213269   3.290   0.492   1.794 -0.3991  0.3751  1.6577
 1169SOL     OW13270   2.393   6.726   2.202 -0.0367 -1.4577  0.2588
 1169SOL    HW113271   2.393   6.812   2.150 -2.0818 -0.1667  2.3365
 1169SOL    HW213272   2.431   6.653   2.145  2.2796  0.9203 -1.3438
 1170SOL     OW13273   3.351   9.471   0.368 -0.0074 -0.6244 -0.3231
 1170SOL    HW113274   3.344   9.381   0.324 -0.8301 -0.6149 -0.2364
 1170SOL    HW213275   3.396   9.535   0.307  1.8357 -1.4377  0.1500
 1171SOL     OW13276   2.911   3.459   2.641 -0.3349 -0.0815  0.2971
 1171SOL    HW113277   2.864   3.541   2.607  0.1199  0.8287  1.8390
 1171SOL    HW213278   2.940   3.404   2.563 -0.8986  1.0783 -0.7584
 1172SOL     OW13279   2.693   0.148   2.105 -0.2538  0.4481 -0.3000
 1172SOL    HW113280   2.699   0.165   2.007  1.0060  1.6075 -0.0250
 1172SOL    HW213281   2.751   0.070   2.130  0.9513  1.3761 -0.1802
 1173SOL     OW13282   2.957   8.103   0.473 -0.3553  0.2217 -0.1514
 1173SOL    HW113283   2.991   8.192   0.502 -0.4860  0.3106 -0.2705
 1173SOL    HW213284   2.932   8.049   0.554  1.7458 -0.5279  0.0400
 1174SOL     OW13285   3.565   9.768   0.638 -0.1132 -0.0471 -0.7557
 1174SOL    HW113286   3.565   9.859   0.598  0.4733 -0.0199 -0.7032
 1174SOL    HW213287   3.501   9.764   0.715  0.3891  0.5203 -0.3059
 1175SOL     OW13288   3.999   2.227   2.144  0.3215  0.6877 -0.7550
 1175SOL    HW113289   3.988   2.185   2.234 -0.5575 -0.7889 -1.5318
 1175SOL    HW213290   3.949   2.314   2.141 -0.7894  0.0763 -0.2451
 1176SOL     OW13291   2.729   4.045   0.336  0.1244 -0.4820  0.4155
 1176SOL    HW113292   2.782   4.112   0.284 -0.4085 -1.1587 -1.0466
 1176SOL    HW213293   2.790   3.974   0.371  0.0869 -1.9700 -2.3642
 1177SOL     OW13294   3.198   2.198   2.381 -0.2073  0.2905 -0.1087
 1177SOL    HW113295   3.176   2.113   2.333  2.3285 -0.7735  0.5072
 1177SOL    HW213296   3.183   2.276   2.320 -3.6315 -0.4565 -0.3186
 1178SOL     OW13297   2.706   4.478   1.475  0.0166 -0.2308 -0.3518
 1178SOL    HW113298   2.678   4.529   1.556 -1.0214  1.9112 -1.9700
 1178SOL    HW213299   2.767   4.535   1.420 -1.4134 -0.5641 -2.3588
 1179SOL     OW13300   2.740   7.287   1.234 -0.2435  0.1441 -0.3770
 1179SOL    HW113301   2.744   7.227   1.314  0.1138 -1.6462 -1.7231
 1179SOL    HW213302   2.653   7.338   1.235 -1.5988 -2.1102 -0.4316
 1180SOL     OW13303   3.599   0.378   0.390 -0.5098  0.5509  0.0135
 1180SOL    HW113304   3.694   0.360   0.415 -0.7572  0.9029  1.2240
 1180SOL    HW213305   3.597   0.423   0.300  0.4305  0.1058 -0.2451
 1181SOL     OW13306   2.942   2.274   0.585 -0.3256  0.0669 -0.4716
 1181SOL    HW113307   2.873   2.233   0.645 -0.2080 -0.2599 -0.5537
 1181SOL    HW213308   2.951   2.371   0.605  0.5193 -0.2633  0.8241
 1182SOL     OW13309   2.768   4.852   2.299  0.0160 -0.3575 -0.3487
 1182SOL    HW113310   2.704   4.925   2.277  0.5241  0.1144 -0.2632
 1182SOL    HW213311   2.813   4.821   2.216  0.3708 -0.0379 -0.2764
 1183SOL     OW13312   4.224   2.278   2.007 -0.5153  0.1739  0.4308
 1183SOL    HW113313   4.142   2.249   2.056  0.2417 -0.2532  1.4598
 1183SOL    HW213314   4.199   2.310   1.915 -1.7586 -0.4502  0.5519
 1184SOL     OW13315   3.150   9.917   2.776  0.3253 -0.4363  0.0264
 1184SOL    HW113316   3.113  10.009   2.770  1.4373 -0.0198 -0.5265
 1184SOL    HW213317   3.234   9.910   2.721  0.0769 -1.8587 -0.1995
 1185SOL     OW13318   3.986   8.295   2.748  0.3798 -0.0034 -1.1799
 1185SOL    HW113319   4.038   8.217   2.714 -0.6249 -1.1804 -0.0655
 1185SOL    HW213320   3.890   8.287   2.720 -0.3106 -0.6000  1.2189
 1186SOL     OW13321   2.819   5.275   1.153 -0.0181 -0.7319  0.0202
 1186SOL    HW113322   2.889   5.300   1.220  0.3972 -0.5666 -0.4770
 1186SOL    HW213323   2.738   5.332   1.168  0.3217 -0.2219 -0.0523
 1187SOL     OW13324   3.123   1.310   0.011  0.3758 -0.5205  0.0944
 1187SOL    HW113325   3.028   1.340   0.012  0.8356  1.1024  3.3529
 1187SOL    HW213326   3.131   1.223   0.062  0.7654 -0.1415  0.6888
 1188SOL     OW13327   3.846   2.781   1.939  0.0611 -0.5625  0.3099
 1188SOL    HW113328   3.754   2.789   1.902 -0.4961 -0.5608  1.6998
 1188SOL    HW213329   3.842   2.770   2.038  1.5983  0.6550  0.5299
 1189SOL     OW13330   3.050   2.996   2.481 -0.0399 -0.1682  0.4572
 1189SOL    HW113331   3.060   2.902   2.515  2.0358 -0.9992 -2.2040
 1189SOL    HW213332   3.135   3.046   2.497  1.0951 -0.6477 -3.4301
 1190SOL     OW13333   3.205   1.454   1.310 -0.0453 -0.1471  0.7965
 1190SOL    HW113334   3.169   1.486   1.222  0.3981 -0.5709  0.4589
 1190SOL    HW213335   3.152   1.494   1.385  1.1442  2.2312  0.4280
 1191SOL     OW13336   3.936   2.025   0.522 -0.1011  0.5321  0.6253
 1191SOL    HW113337   3.863   2.029   0.590  0.2280 -0.9714  1.0737
 1191SOL    HW213338   3.914   2.086   0.446 -0.4037  2.3352  2.1273
 1192SOL     OW13339   2.223   9.954   2.093 -0.5477 -0.1611 -0.0168
 1192SOL    HW113340   2.211   9.937   2.191  2.6059 -0.8905  0.2930
 1192SOL    HW213341   2.244  10.050   2.078 -0.0258 -0.2545  0.1204
 1193SOL     OW13342   3.096   9.296   2.007  0.4590 -0.1735  0.0819
 1193SOL    HW113343   3.195   9.309   2.005  0.5287 -1.0118 -2.7555
 1193SOL    HW213344   3.071   9.215   1.955 -1.8390  0.7931 -0.3991
 1194SOL     OW13345   2.277   8.561   1.106 -0.5089 -0.3821 -0.3183
 1194SOL    HW113346   2.181   8.582   1.128 -0.4806  0.8106 -1.2491
 1194SOL    HW213347   2.329   8.548   1.190 -0.9791  1.3589  0.2509
 1195SOL     OW13348   3.010   8.661   2.424  0.2194  0.5894 -0.2043
 1195SOL    HW113349   3.060   8.747   2.431  0.1342  0.6554 -0.4133
 1195SOL    HW213350   2.912   8.679   2.434  0.2657  0.4083  0.6730
 1196SOL     OW13351   2.458   5.792   2.482  0.3395 -0.5918  0.1157
 1196SOL    HW113352   2.489   5.790   2.577  1.5144 -0.8657 -0.2762
 1196SOL    HW213353   2.400   5.712   2.465  1.0145 -1.1161  0.2891
 1197SOL     OW13354   2.907   9.424   1.863  0.9573  0.3003  0.1347
 1197SOL    HW113355   2.954   9.379   1.939 -1.4060 -3.0702 -0.3067
 1197SOL    HW213356   2.816   9.384   1.852  0.1915  2.6926 -2.7030
 1198SOL     OW13357   2.942   4.202   0.951  0.0467 -0.0917  0.0820
 1198SOL    HW113358   2.967   4.223   0.856 -0.1162 -0.3645 -0.0219
 1198SOL    HW213359   2.853   4.242   0.971  0.6710  1.0995  0.5317
 1199SOL     OW13360   3.304   4.980   2.198 -0.0275  0.6154  0.4421
 1199SOL    HW113361   3.350   4.926   2.268 -1.2172 -0.5314  0.3678
 1199SOL    HW213362   3.350   4.968   2.110  0.4186  0.6598  0.6722
 1200SOL     OW13363   3.499   0.063   2.397 -0.3184  0.7535 -0.7719
 1200SOL    HW113364   3.432   0.007   2.446 -1.1480  1.3205 -1.2488
 1200SOL    HW213365   3.451   0.133   2.344  0.7374  2.6639  0.7311
 1201SOL     OW13366   2.987   9.114   1.598 -0.0633  0.4165  0.3117
 1201SOL    HW113367   3.077   9.076   1.614 -0.2834 -0.6168 -0.8525
 1201SOL    HW213368   2.929   9.046   1.554 -1.4638  1.0110  1.1921
 1202SOL     OW13369   4.271   2.628   0.496 -0.0703 -0.2774 -0.2925
 1202SOL    HW113370   4.222   2.578   0.567 -2.8328 -0.2833 -2.1047
 1202SOL    HW213371   4.226   2.613   0.408  1.0093  2.7751 -1.4277
 1203SOL     OW13372   2.710   7.048   2.062 -0.9099  0.2831  0.4807
 1203SOL    HW113373   2.781   6.991   2.103 -0.9432  0.8524  1.3471
 1203SOL    HW213374   2.753   7.124   2.014 -0.8401 -0.7976 -1.2041
 1204SOL     OW13375   2.461   7.582   1.945  0.2756  0.6418 -0.2312
 1204SOL    HW113376   2.386   7.593   2.011  0.4918  2.8737 -0.3281
 1204SOL    HW213377   2.427   7.598   1.853  0.9181  1.8896 -0.2555
 1205SOL     OW13378   4.367   1.926   0.058 -0.5503  0.6102  0.3683
 1205SOL    HW113379   4.375   1.973  -0.030 -2.2074  1.0733  0.4537
 1205SOL    HW213380   4.441   1.956   0.118 -0.3812  1.5556 -0.2873
 1206SOL     OW13381   2.891   5.436   0.478 -0.1235 -0.5875 -0.3949
 1206SOL    HW113382   2.889   5.343   0.513 -1.4690 -0.4758 -0.1568
 1206SOL    HW213383   2.809   5.454   0.424  0.4963  0.2147 -1.0896
 1207SOL     OW13384   3.635   2.350   1.888  0.2151 -0.2146  0.4896
 1207SOL    HW113385   3.552   2.348   1.944 -0.6060 -1.5551 -0.7169
 1207SOL    HW213386   3.702   2.286   1.925 -0.4662 -1.3713 -0.2268
 1208SOL     OW13387   2.496   3.918   0.034  0.2298  0.1854  0.8036
 1208SOL    HW113388   2.415   3.972   0.056  0.2097 -0.0601  1.3426
 1208SOL    HW213389   2.519   3.859   0.111  1.9882  1.5770  1.3819
 1209SOL     OW13390   4.864   2.408   2.487  0.3614  0.5005  0.0133
 1209SOL    HW113391   4.872   2.323   2.434 -1.9609  0.3585 -0.1791
 1209SOL    HW213392   4.767   2.430   2.499  0.8898  1.6738  2.4088
 1210SOL     OW13393   3.111   1.418   1.064 -0.2006 -0.2278  0.3162
 1210SOL    HW113394   3.022   1.463   1.067 -0.2922 -0.1992 -1.7865
 1210SOL    HW213395   3.106   1.329   1.109 -1.8958 -1.1709 -1.6705
 1211SOL     OW13396   2.187   9.513   1.943 -0.1477  0.1581  0.4052
 1211SOL    HW113397   2.107   9.496   2.001  0.3608 -2.7135  0.2982
 1211SOL    HW213398   2.159   9.513   1.847 -0.2314  0.5766  0.4252
 1212SOL     OW13399   4.366   4.475   2.707 -0.0043 -0.1996  0.4061
 1212SOL    HW113400   4.431   4.543   2.674 -0.2330 -0.2831 -0.2092
 1212SOL    HW213401   4.361   4.480   2.807  0.3222  0.3695  0.3944
 1213SOL     OW13402   4.036   2.951   1.094  0.5439 -0.4675 -0.0050
 1213SOL    HW113403   3.968   2.885   1.062  0.7889 -1.3843  1.3079
 1213SOL    HW213404   4.018   2.974   1.190 -0.0389  2.0472 -0.6803
 1214SOL     OW13405   3.455   3.629   0.153  0.9502 -0.1696 -0.3044
 1214SOL    HW113406   3.555   3.627   0.151  0.9429 -2.6888 -0.4883
 1214SOL    HW213407   3.419   3.602   0.063  0.1367 -0.6467  0.1520
 1215SOL     OW13408   3.247   3.093   0.289  0.0545  0.0075 -1.1428
 1215SOL    HW113409   3.273   3.022   0.355  0.8124  0.2800 -1.1401
 1215SOL    HW213410   3.182   3.156   0.331  1.2680  0.7369 -0.3328
 1216SOL     OW13411   2.531   6.664   0.532  0.3772 -0.4123 -0.2616
 1216SOL    HW113412   2.550   6.569   0.559 -0.3983 -0.1944  1.0755
 1216SOL    HW213413   2.489   6.665   0.441 -0.2269 -1.4020 -0.0047
 1217SOL     OW13414   3.361   9.288   1.973 -0.1852 -0.3085 -0.6065
 1217SOL    HW113415   3.418   9.216   2.011 -1.2777 -1.7482 -1.6518
 1217SOL    HW213416   3.393   9.377   2.006  0.3043 -1.3493  1.8202
 1218SOL     OW13417   3.352   3.519   1.794  0.3098  0.1261 -0.6677
 1218SOL    HW113418   3.297   3.441   1.764 -0.3757 -0.0635  1.0550
 1218SOL    HW213419   3.343   3.531   1.893  1.8359  1.2890 -0.6476
 1219SOL     OW13420   4.594   2.295   0.557  0.1855  0.1311 -0.9728
 1219SOL    HW113421   4.565   2.390   0.559  0.7860  0.3125 -1.1536
 1219SOL    HW213422   4.664   2.280   0.627 -1.9473 -0.8233  1.0646
 1220SOL     OW13423   3.949   0.993   0.885  0.1855  0.3999 -0.0967
 1220SOL    HW113424   4.014   0.979   0.960  1.4642 -0.0397 -1.2681
 1220SOL    HW213425   3.951   1.089   0.857  0.7487  0.2699 -0.5055
 1221SOL     OW13426   4.493   3.077   1.251 -0.3549  0.4616  0.5615
 1221SOL    HW113427   4.585   3.037   1.250  0.2928  1.9314 -1.8682
 1221SOL    HW213428   4.426   3.007   1.229  0.1541 -0.5993  2.2532
 1222SOL     OW13429   2.931   5.070   1.380 -0.6786  0.3816  0.6947
 1222SOL    HW113430   3.007   5.133   1.392  0.4223 -0.9192  0.6458
 1222SOL    HW213431   2.907   5.064   1.284  0.0184 -0.1862  0.5514
 1223SOL     OW13432   3.755   1.927   1.350 -0.7185 -0.0142  0.2650
 1223SOL    HW113433   3.689   1.978   1.404 -0.6253 -0.1437  0.5003
 1223SOL    HW213434   3.726   1.926   1.254 -1.8991 -1.4182  0.6174
 1224SOL     OW13435   4.084   3.278   1.340 -0.4935  0.1910 -0.5264
 1224SOL    HW113436   4.166   3.232   1.373 -0.4130  0.4222 -0.4053
 1224SOL    HW213437   4.068   3.361   1.394 -0.1812  0.7402 -1.2705
 1225SOL     OW13438   4.500   1.743   2.559  0.4080  0.1806  0.3143
 1225SOL    HW113439   4.512   1.830   2.606  0.3886  0.1299  0.4125
 1225SOL    HW213440   4.575   1.681   2.583  0.8512  0.4459 -0.3708
 1226SOL     OW13441   3.242   9.118   1.397 -0.3183 -0.1618  0.1695
 1226SOL    HW113442   3.209   9.165   1.479  2.5665  1.2039  0.6005
 1226SOL    HW213443   3.284   9.032   1.423 -2.3731 -1.3416 -0.2674
 1227SOL     OW13444   2.881   0.455   2.631  0.0015  0.3550 -0.5575
 1227SOL    HW113445   2.942   0.534   2.626  1.8057 -0.9078  0.6109
 1227SOL    HW213446   2.858   0.424   2.539  3.1829 -0.6560 -1.0610
 1228SOL     OW13447   3.232   3.322   1.154 -0.0550 -0.0851 -0.9939
 1228SOL    HW113448   3.188   3.385   1.090 -0.2696 -1.2974 -2.0510
 1228SOL    HW213449   3.228   3.361   1.246 -1.0386  1.0094 -1.4792
 1229SOL     OW13450   3.688   3.539   1.807 -0.3456  0.8879 -0.0733
 1229SOL    HW113451   3.691   3.439   1.812  0.4115  1.0166  3.1813
 1229SOL    HW213452   3.594   3.569   1.795 -0.7292 -0.1795  0.1967
 1230SOL     OW13453   2.358   7.183   2.457 -0.2449  0.8916 -0.0119
 1230SOL    HW113454   2.449   7.159   2.423 -0.1146 -0.2553  1.1200
 1230SOL    HW213455   2.349   7.156   2.553 -2.4986 -0.9939 -0.6823
 1231SOL     OW13456   3.495   9.620   0.187  0.0190 -0.2151  0.2672
 1231SOL    HW113457   3.405   9.663   0.176  1.8004  3.5430 -0.4193
 1231SOL    HW213458   3.507   9.551   0.116 -2.5674 -1.3146  0.8162
 1232SOL     OW13459   3.289   8.956   1.794 -1.0135 -0.4065  0.0560
 1232SOL    HW113460   3.241   9.041   1.773 -0.5824 -0.2056 -0.1338
 1232SOL    HW213461   3.227   8.893   1.840 -0.5155  1.1799  3.0410
 1233SOL     OW13462   4.144   4.462   1.263  0.0029  0.2015 -0.2638
 1233SOL    HW113463   4.061   4.487   1.312 -0.1158  0.2843 -0.5108
 1233SOL    HW213464   4.122   4.436   1.169  0.4180  1.5533 -0.7439
 1234SOL     OW13465   3.535   8.972   2.523 -0.6259 -0.0081  0.5081
 1234SOL    HW113466   3.519   9.048   2.459  0.5620  0.7734  1.1387
 1234SOL    HW213467   3.631   8.944   2.519 -0.7440 -0.5469  1.3180
 1235SOL     OW13468   3.321   7.668   0.351 -0.0366 -0.0026 -0.5285
 1235SOL    HW113469   3.327   7.575   0.389  0.0508  1.0031  1.9939
 1235SOL    HW213470   3.388   7.679   0.279  2.1112 -0.9479  1.2619
 1236SOL     OW13471   3.268   4.792   1.119  0.0493 -0.0269 -0.3258
 1236SOL    HW113472   3.310   4.703   1.132  1.4619  0.8716  1.5824
 1236SOL    HW213473   3.301   4.832   1.033 -1.4801 -1.7798 -1.7759
 1237SOL     OW13474   2.570   9.744   1.026  0.0941 -0.2884  0.0538
 1237SOL    HW113475   2.555   9.757   1.124 -0.4699 -1.1231  0.0817
 1237SOL    HW213476   2.630   9.817   0.991 -2.5500  2.0686  0.2924
 1238SOL     OW13477   2.414   7.527   0.813  0.1029 -0.3680 -0.4924
 1238SOL    HW113478   2.369   7.467   0.880 -0.4361  0.5739  0.0052
 1238SOL    HW213479   2.346   7.562   0.749  0.0557  1.3727  0.4993
 1239SOL     OW13480   4.168   2.812   2.455 -0.2771 -0.4754  0.5002
 1239SOL    HW113481   4.106   2.884   2.423 -0.0950 -0.4439  0.2175
 1239SOL    HW213482   4.132   2.723   2.428 -0.0033 -0.4375 -0.0124
 1240SOL     OW13483   4.211   0.771   1.531  0.3247 -0.3261  0.0695
 1240SOL    HW113484   4.272   0.848   1.511  1.2087 -1.2733 -0.9256
 1240SOL    HW213485   4.223   0.743   1.626  0.5868  0.2440  0.2087
 1241SOL     OW13486   2.951   3.190   2.098  0.0899  0.2606  0.6551
 1241SOL    HW113487   3.049   3.176   2.109  0.5659  0.4854 -2.8292
 1241SOL    HW213488   2.905   3.180   2.187  3.1232 -0.7027  2.1543
 1242SOL     OW13489   3.498   1.645   1.644  0.1231 -0.1909 -0.0201
 1242SOL    HW113490   3.588   1.684   1.662  0.9611 -2.1754  0.1420
 1242SOL    HW213491   3.499   1.547   1.665 -1.6274 -0.5574 -1.5682
 1243SOL     OW13492   3.502   1.297   0.140  0.5322 -0.4322  0.0469
 1243SOL    HW113493   3.446   1.288   0.057 -1.2153 -0.3400  1.1994
 1243SOL    HW213494   3.502   1.210   0.189 -0.4138  0.1959  1.1801
 1244SOL     OW13495   2.421   9.380   0.120  0.3046  0.3155 -0.1480
 1244SOL    HW113496   2.388   9.417   0.207  0.3958 -0.9462  0.4324
 1244SOL    HW213497   2.519   9.397   0.112  0.7021 -1.3628  0.9426
 1245SOL     OW13498   1.991   9.484   2.273 -0.1647 -0.0243  0.3128
 1245SOL    HW113499   1.965   9.560   2.334  0.7206  0.0410  0.6173
 1245SOL    HW213500   2.068   9.434   2.314  0.8019  0.3481 -1.0089
 1246SOL     OW13501   2.974   7.866   2.675 -0.4204 -0.3580  0.1092
 1246SOL    HW113502   2.882   7.902   2.657 -0.6327  0.4232  2.5732
 1246SOL    HW213503   3.042   7.937   2.656 -0.2884 -0.9800 -1.8471
 1247SOL     OW13504   4.332   4.323   0.398  0.7327 -0.0623  0.3221
 1247SOL    HW113505   4.329   4.290   0.492  0.1484 -3.2691 -0.7357
 1247SOL    HW213506   4.425   4.310   0.362  1.2052  2.0772  0.7541
 1248SOL     OW13507   2.882   7.703   1.052  0.1634 -0.5233  0.0199
 1248SOL    HW113508   2.953   7.661   0.996  0.4741 -0.7071  0.5461
 1248SOL    HW213509   2.924   7.753   1.127 -0.1310  2.1316 -1.5193
 1249SOL     OW13510   3.751   1.712   1.551  0.0417 -0.1132  0.4670
 1249SOL    HW113511   3.792   1.624   1.528  0.0744  0.6059 -2.5107
 1249SOL    HW213512   3.779   1.780   1.483 -0.1725  2.1435  2.5749
 1250SOL     OW13513   3.501   8.243   2.013  0.1193  0.1113  0.3166
 1250SOL    HW113514   3.548   8.272   1.930 -1.8603  1.2035 -0.4398
 1250SOL    HW213515   3.460   8.153   1.999 -1.5463  0.9694 -0.4440
 1251SOL     OW13516   3.364   3.183   1.968 -0.6504  0.1180  0.4380
 1251SOL    HW113517   3.355   3.084   1.958  3.0303 -0.2951  0.3492
 1251SOL    HW213518   3.327   3.228   1.887  1.0065 -1.4564 -1.2508
 1252SOL     OW13519   4.355   8.427   0.617  0.8324  0.8019  0.0060
 1252SOL    HW113520   4.384   8.485   0.541 -2.0084 -0.4631 -2.1814
 1252SOL    HW213521   4.310   8.482   0.687  1.5434  1.7241 -0.2682
 1253SOL     OW13522   3.383   8.774   0.189  0.4309 -0.5184  0.0466
 1253SOL    HW113523   3.474   8.774   0.148 -0.1117 -0.2369 -1.1670
 1253SOL    HW213524   3.365   8.685   0.231 -0.2447 -1.9168 -3.1085
 1254SOL     OW13525   3.958   0.193   0.208  0.1534 -0.3621  0.2703
 1254SOL    HW113526   3.888   0.174   0.277  0.0899  0.6029  0.4720
 1254SOL    HW213527   4.048   0.187   0.249  0.0796  1.1126  0.6505
 1255SOL     OW13528   2.459   8.068   0.225  0.0826 -0.8506 -0.4731
 1255SOL    HW113529   2.495   7.983   0.188  1.5894 -0.5733  0.3573
 1255SOL    HW213530   2.477   8.073   0.323  1.7479  1.2797 -0.8443
 1256SOL     OW13531   4.318   1.570   0.651  0.0326 -0.1716 -0.1916
 1256SOL    HW113532   4.392   1.515   0.611 -1.8963 -0.9520 -2.8248
 1256SOL    HW213533   4.259   1.511   0.706 -0.8682 -0.3337 -1.3289
 1257SOL     OW13534   3.400   2.909   0.143 -0.5145 -0.5456  0.2468
 1257SOL    HW113535   3.312   2.954   0.133 -0.7642 -1.0392  0.2048
 1257SOL    HW213536   3.429   2.873   0.054 -0.0740 -0.0280  0.1741
 1258SOL     OW13537   2.769   4.727   2.736 -0.3176 -0.4645  0.3972
 1258SOL    HW113538   2.868   4.724   2.752 -0.4509  0.7851  1.5279
 1258SOL    HW213539   2.741   4.822   2.724 -1.2765 -0.8764 -0.7038
 1259SOL     OW13540   3.377   1.332   0.865  0.6303 -0.0298  0.1646
 1259SOL    HW113541   3.388   1.431   0.869  0.0527  0.0250  0.3620
 1259SOL    HW213542   3.336   1.306   0.778 -0.7580  0.0515  0.7785
  10.00000  10.00000   2.85800
