chitosan Film  in water:acetic acid 2%
21218
    1CHTO  H203    1   5.925   6.841   2.511
    1CHTO   O82    2   5.893   6.759   2.545
    1CHTO  C123    3   5.988   6.704   2.637
    1CHTO  H227    4   6.003   6.775   2.720
    1CHTO   O77    5   5.920   6.585   2.687
    1CHTO  C118    6   5.993   6.515   2.789
    1CHTO  H222    7   6.016   6.583   0.052
    1CHTO  C125    8   5.903   6.398   0.024
    1CHTO   O84    9   5.788   6.448   0.092
    1CHTO  H205   10   5.736   6.376   0.122
    1CHTO  C114   11   6.124   6.460   2.729
    1CHTO  H218   12   6.099   6.391   2.648
    1CHTO  C116   13   6.209   6.575   2.669
    1CHTO  H220   14   6.247   6.638   2.752
    1CHTO   O79   15   6.325   6.517   2.606
    1CHTO  H201   16   6.383   6.584   2.576
    1CHTO  C120   17   6.125   6.664   2.569
    1CHTO  H224   18   6.106   6.602   2.479
    1CHTO   N21   19   6.203   6.783   2.524
    1CHTO  H211   20   6.260   6.758   2.436
    1CHTO  H212   21   6.137   6.866   2.503
    1CHTO   O75   22   6.189   6.392   0.017
    1CHTO  C112   23   6.241   6.244   2.796
    1CHTO  H216   24   6.288   6.249   2.696
    1CHTO   O73   25   6.127   6.157   2.797
    1CHTO  C113   26   6.155   6.025   2.749
    1CHTO  H217   27   6.191   6.033   2.644
    1CHTO  C124   28   6.023   5.946   2.745
    1CHTO   O83   29   5.958   5.937   0.053
    1CHTO  H204   30   5.879   5.888   0.044
    1CHTO  C109   31   6.262   5.952   0.015
    1CHTO  H213   32   6.213   5.926   0.111
    1CHTO  C110   33   6.386   6.044   0.043
    1CHTO  H214   34   6.449   6.045   2.774
    1CHTO   O78   35   6.465   5.985   0.148
    1CHTO  H200   36   6.502   5.904   0.120
    1CHTO  C111   37   6.346   6.190   0.080
    1CHTO  H215   38   6.299   6.189   0.179
    1CHTO   N19   39   6.463   6.282   0.089
    1CHTO  H207   40   6.513   6.289   2.814
    1CHTO  H208   41   6.430   6.381   0.120
    1CHTO   O74   42   6.297   5.829   2.765
    1CHTO  C115   43   6.363   5.714   0.029
    1CHTO  H219   44   6.354   5.732   0.137
    1CHTO   O76   45   6.292   5.576   0.005
    1CHTO  C122   46   6.280   5.543   2.686
    1CHTO  H226   47   6.194   5.598   2.647
    1CHTO  C126   48   6.242   5.391   2.677
    1CHTO   O85   49   6.214   5.349   2.543
    1CHTO  H206   50   6.191   5.258   2.543
    1CHTO  C121   51   6.410   5.577   2.600
    1CHTO  H225   52   6.432   5.492   2.533
    1CHTO   O81   53   6.381   5.688   2.513
    1CHTO  H202   54   6.365   5.766   2.563
    1CHTO  C119   55   6.536   5.605   2.688
    1CHTO  H223   56   6.559   5.506   2.730
    1CHTO  C117   57   6.514   5.707   2.807
    1CHTO  H221   58   6.540   5.809   2.782
    1CHTO   N20   59   6.603   5.673   0.104
    1CHTO  H209   60   6.594   5.749   0.180
    1CHTO  H210   61   6.576   5.577   0.145
    1CHTO   O80   62   6.664   5.634   2.605
    1CHTO  C103   63   6.788   5.553   2.628
    1CHTO  H190   64   6.798   5.526   2.733
    1CHTO  C101   65   6.800   5.423   2.541
    1CHTO  H188   66   6.787   5.450   2.436
    1CHTO   O68   67   6.687   5.327   2.580
    1CHTO  H168   68   6.688   5.252   2.524
    1CHTO   C99   69   6.945   5.358   2.558
    1CHTO  H186   70   6.957   5.324   2.663
    1CHTO   N17   71   6.968   5.238   2.471
    1CHTO  H174   72   7.064   5.194   2.494
    1CHTO  H175   73   6.889   5.166   2.486
    1CHTO   C97   74   7.055   5.466   2.537
    1CHTO  H184   75   7.056   5.493   2.430
    1CHTO   O64   76   7.032   5.581   2.621
    1CHTO  C104   77   6.908   5.649   2.594
    1CHTO  H191   78   6.902   5.678   2.489
    1CHTO  C108   79   6.904   5.779   2.674
    1CHTO   O71   80   7.002   5.872   2.628
    1CHTO  H171   81   7.088   5.842   2.650
    1CHTO   O62   82   7.186   5.422   2.578
    1CHTO   C91   83   7.297   5.487   2.514
    1CHTO  H178   84   7.262   5.583   2.476
    1CHTO   C92   85   7.339   5.403   2.389
    1CHTO  H179   86   7.249   5.372   2.334
    1CHTO   O66   87   7.409   5.489   2.298
    1CHTO  H166   88   7.425   5.446   2.217
    1CHTO   C93   89   7.431   5.279   2.421
    1CHTO  H180   90   7.474   5.246   2.326
    1CHTO   N16   91   7.359   5.161   2.473
    1CHTO  H172   92   7.428   5.080   2.491
    1CHTO  H173   93   7.283   5.130   2.402
    1CHTO   C94   94   7.549   5.322   2.516
    1CHTO  H181   95   7.600   5.236   2.559
    1CHTO   O61   96   7.506   5.401   2.629
    1CHTO   C95   97   7.419   5.515   2.611
    1CHTO  H182   98   7.377   5.541   2.708
    1CHTO  C106   99   7.500   5.642   2.564
    1CHTO   O69  100   7.596   5.681   2.662
    1CHTO  H169  101   7.644   5.755   2.632
    1CHTO   O63  102   7.652   5.404   2.430
    1CHTO   C96  103   7.796   5.370   2.461
    1CHTO  H183  104   7.801   5.328   2.561
    1CHTO   C98  105   7.892   5.493   2.457
    1CHTO  H185  106   7.849   5.575   2.516
    1CHTO   O67  107   8.015   5.458   2.523
    1CHTO  H167  108   8.070   5.534   2.531
    1CHTO  C102  109   7.925   5.542   2.308
    1CHTO  H189  110   8.011   5.610   2.318
    1CHTO   N18  111   7.819   5.622   2.243
    1CHTO  H176  112   7.798   5.710   2.302
    1CHTO  H177  113   7.851   5.653   2.144
    1CHTO  C105  114   7.970   5.421   2.221
    1CHTO  H192  115   7.972   5.451   2.116
    1CHTO   O65  116   7.885   5.304   2.230
    1CHTO  C100  117   7.839   5.257   2.358
    1CHTO  H187  118   7.748   5.197   2.336
    1CHTO  C107  119   7.940   5.158   2.421
    1CHTO   O70  120   7.955   5.040   2.341
    1CHTO  H170  121   7.876   4.989   2.345
    1CHTO   O57  122   8.116   5.395   2.268
    1CHTO   C85  123   8.212   5.337   2.179
    1CHTO  H157  124   8.160   5.316   2.083
    1CHTO   C83  125   8.257   5.198   2.235
    1CHTO  H155  126   8.171   5.131   2.230
    1CHTO   O56  127   8.290   5.212   2.375
    1CHTO  H135  128   8.307   5.128   2.413
    1CHTO   C81  129   8.371   5.140   2.148
    1CHTO  H153  130   8.336   5.133   2.046
    1CHTO   N14  131   8.407   5.000   2.183
    1CHTO  H141  132   8.446   4.995   2.282
    1CHTO  H142  133   8.320   4.937   2.176
    1CHTO   C79  134   8.494   5.238   2.151
    1CHTO  H151  135   8.571   5.196   2.088
    1CHTO   O52  136   8.454   5.366   2.092
    1CHTO   C86  137   8.339   5.430   2.156
    1CHTO  H158  138   8.378   5.465   2.253
    1CHTO   C90  139   8.299   5.558   2.079
    1CHTO   O60  140   8.261   5.528   1.944
    1CHTO  H138  141   8.237   5.607   1.900
    1CHTO   O50  142   8.549   5.259   2.283
    1CHTO   C73  143   8.669   5.292   2.353
    1CHTO  H145  144   8.729   5.364   2.294
    1CHTO   C74  145   8.755   5.164   2.378
    1CHTO  H146  146   8.776   5.119   2.280
    1CHTO   O54  147   8.883   5.205   2.432
    1CHTO  H133  148   8.872   5.246   2.516
    1CHTO   C75  149   8.674   5.066   2.473
    1CHTO  H147  150   8.583   5.034   2.420
    1CHTO   N13  151   8.746   4.940   2.504
    1CHTO  H139  152   8.769   4.887   2.413
    1CHTO  H140  153   8.685   4.876   2.566
    1CHTO   C76  154   8.627   5.143   2.605
    1CHTO  H148  155   8.716   5.168   2.663
    1CHTO   O49  156   8.556   5.266   2.569
    1CHTO   C77  157   8.633   5.357   2.490
    1CHTO  H149  158   8.725   5.384   2.542
    1CHTO   C88  159   8.556   5.489   2.473
    1CHTO   O58  160   8.530   5.553   2.604
    1CHTO  H136  161   8.480   5.631   2.591
    1CHTO   O51  162   8.520   5.051   2.691
    1CHTO   C78  163   8.433   5.134   2.799
    1CHTO  H150  164   8.417   5.239   2.766
    1CHTO   C80  165   8.501   5.136   0.117
    1CHTO  H152  166   8.509   5.031   0.154
    1CHTO   O55  167   8.634   5.189   0.101
    1CHTO  H134  168   8.631   5.278   0.073
    1CHTO   C84  169   8.416   5.222   0.220
    1CHTO  H156  170   8.423   5.326   0.187
    1CHTO   N15  171   8.472   5.218   0.359
    1CHTO  H143  172   8.474   5.118   0.396
    1CHTO  H144  173   8.572   5.258   0.360
    1CHTO   C87  174   8.266   5.181   0.220
    1CHTO  H159  175   8.252   5.090   0.279
    1CHTO   O53  176   8.212   5.156   0.074
    1CHTO   C82  177   8.294   5.071   2.813
    1CHTO  H154  178   8.301   4.972   0.038
    1CHTO   C89  179   8.227   5.053   2.674
    1CHTO   O59  180   8.102   4.985   2.685
    1CHTO  H137  181   8.116   4.896   2.708
    1CHTO   O45  182   8.172   5.302   0.292
    1CHTO   C67  183   8.150   5.420   0.212
    1CHTO  H124  184   8.241   5.442   0.156
    1CHTO   C65  185   8.031   5.400   0.111
    1CHTO  H122  186   7.988   5.303   0.134
    1CHTO   O44  187   8.087   5.395   2.798
    1CHTO  H102  188   8.118   5.480   2.773
    1CHTO   C63  189   7.915   5.504   0.133
    1CHTO  H120  190   7.872   5.487   0.232
    1CHTO   N11  191   7.794   5.486   0.046
    1CHTO  H108  192   7.819   5.507   2.764
    1CHTO  H109  193   7.757   5.386   0.053
    1CHTO   C61  194   7.976   5.649   0.133
    1CHTO  H118  195   7.896   5.716   0.169
    1CHTO   O40  196   8.088   5.663   0.225
    1CHTO   C68  197   8.127   5.547   0.305
    1CHTO  H125  198   8.046   5.526   0.379
    1CHTO   C72  199   8.253   5.587   0.385
    1CHTO   O48  200   8.288   5.491   0.485
    1CHTO  H105  201   8.368   5.517   0.527
    1CHTO   O38  202   8.022   5.690   0.003
    1CHTO   C55  203   8.015   5.831   2.793
    1CHTO  H112  204   8.018   5.887   0.068
    1CHTO   C56  205   7.883   5.861   2.710
    1CHTO  H113  206   7.857   5.770   2.654
    1CHTO   O42  207   7.774   5.881   2.801
    1CHTO  H100  208   7.755   5.802   0.028
    1CHTO   C57  209   7.893   5.987   2.614
    1CHTO  H114  210   7.798   6.040   2.617
    1CHTO   N10  211   7.914   5.952   2.471
    1CHTO  H106  212   7.819   5.938   2.421
    1CHTO  H107  213   7.971   5.860   2.462
    1CHTO   C58  214   8.005   6.082   2.664
    1CHTO  H115  215   8.017   6.166   2.591
    1CHTO   O37  216   8.134   6.019   2.684
    1CHTO   C59  217   8.141   5.878   2.714
    1CHTO  H116  218   8.150   5.822   2.621
    1CHTO   C70  219   8.268   5.853   2.797
    1CHTO   O46  220   8.388   5.882   2.724
    1CHTO  H103  221   8.400   5.819   2.655
    1CHTO   O39  222   7.959   6.144   2.805
    1CHTO   C60  223   7.872   6.259   2.795
    1CHTO  H117  224   7.861   6.290   2.691
    1CHTO   C62  225   7.729   6.226   0.030
    1CHTO  H119  226   7.689   6.145   2.785
    1CHTO   O43  227   7.739   6.175   0.165
    1CHTO  H101  228   7.783   6.092   0.165
    1CHTO   C66  229   7.636   6.356   0.018
    1CHTO  H123  230   7.634   6.388   2.734
    1CHTO   N12  231   7.494   6.328   0.053
    1CHTO  H110  232   7.487   6.294   0.155
    1CHTO  H111  233   7.434   6.416   0.037
    1CHTO   C69  234   7.697   6.471   0.101
    1CHTO  H126  235   7.704   6.442   0.208
    1CHTO   O41  236   7.840   6.500   0.045
    1CHTO   C64  237   7.933   6.379   0.052
    1CHTO  H121  238   7.949   6.350   0.158
    1CHTO   C71  239   8.071   6.419   2.813
    1CHTO   O47  240   8.130   6.527   0.066
    1CHTO  H104  241   8.155   6.497   0.152
    1CHTO   O34  242   7.611   6.604   0.092
    1CHTO   C49  243   7.632   6.753   0.063
    1CHTO   H91  244   7.692   6.758   2.792
    1CHTO   C47  245   7.708   6.819   0.180
    1CHTO   H89  246   7.730   6.923   0.148
    1CHTO   O33  247   7.832   6.749   0.201
    1CHTO   H70  248   7.889   6.761   0.127
    1CHTO   C45  249   7.612   6.821   0.310
    1CHTO   H87  250   7.580   6.718   0.330
    1CHTO    N8  251   7.680   6.873   0.431
    1CHTO   H75  252   7.768   6.814   0.452
    1CHTO   H76  253   7.709   6.976   0.417
    1CHTO   C43  254   7.477   6.903   0.275
    1CHTO   H85  255   7.412   6.893   0.362
    1CHTO   O29  256   7.415   6.848   0.156
    1CHTO   C50  257   7.496   6.824   0.039
    1CHTO   H92  258   7.437   6.759   2.793
    1CHTO   C54  259   7.515   6.953   2.774
    1CHTO   O36  260   7.390   7.007   2.732
    1CHTO   H72  261   7.342   7.039   2.806
    1CHTO   O27  262   7.501   7.044   0.259
    1CHTO   C37  263   7.454   7.174   0.223
    1CHTO   H79  264   7.466   7.191   0.115
    1CHTO   C38  265   7.302   7.192   0.255
    1CHTO   H80  266   7.286   7.168   0.361
    1CHTO   O31  267   7.229   7.099   0.174
    1CHTO   H68  268   7.245   7.011   0.202
    1CHTO   C39  269   7.255   7.340   0.227
    1CHTO   H81  270   7.258   7.355   0.119
    1CHTO    N7  271   7.112   7.365   0.270
    1CHTO   H73  272   7.103   7.350   0.377
    1CHTO   H74  273   7.082   7.465   0.243
    1CHTO   C40  274   7.354   7.447   0.291
    1CHTO   H82  275   7.338   7.448   0.399
    1CHTO   O26  276   7.490   7.415   0.257
    1CHTO   C41  277   7.534   7.282   0.299
    1CHTO   H83  278   7.517   7.271   0.407
    1CHTO   C52  279   7.686   7.269   0.273
    1CHTO   O35  280   7.764   7.358   0.358
    1CHTO   H71  281   7.855   7.348   0.338
    1CHTO   O28  282   7.325   7.582   0.246
    1CHTO   C42  283   7.387   7.648   0.131
    1CHTO   H84  284   7.432   7.569   0.072
    1CHTO   C44  285   7.503   7.748   0.164
    1CHTO   H86  286   7.462   7.832   0.221
    1CHTO   O32  287   7.598   7.679   0.249
    1CHTO   H69  288   7.560   7.661   0.332
    1CHTO   C48  289   7.571   7.805   0.033
    1CHTO   H90  290   7.623   7.723   2.804
    1CHTO    N9  291   7.678   7.908   0.064
    1CHTO   H77  292   7.756   7.863   0.123
    1CHTO   H78  293   7.634   7.991   0.117
    1CHTO   C51  294   7.463   7.861   2.752
    1CHTO   H93  295   7.422   7.953   2.795
    1CHTO   O30  296   7.361   7.762   2.731
    1CHTO   C46  297   7.287   7.723   0.039
    1CHTO   H88  298   7.254   7.814   0.089
    1CHTO   C53  299   7.163   7.639   2.820
    1CHTO   O72  300   7.198   7.518   2.751
    1CHTO  H199  301   7.233   7.539   2.667
    1CHTO   O22  302   7.525   7.891   2.625
    1CHTO   C31  303   7.469   7.865   2.490
    1CHTO   H59  304   7.413   7.769   2.498
    1CHTO   C29  305   7.370   7.971   2.439
    1CHTO   H57  306   7.424   8.067   2.433
    1CHTO   O21  307   7.266   7.988   2.538
    1CHTO   H37  308   7.211   8.061   2.515
    1CHTO   C27  309   7.312   7.934   2.297
    1CHTO   H55  310   7.248   7.845   2.307
    1CHTO    N5  311   7.229   8.043   2.238
    1CHTO   H43  312   7.290   8.132   2.223
    1CHTO   H44  313   7.146   8.065   2.303
    1CHTO   C25  314   7.429   7.893   2.200
    1CHTO   H53  315   7.488   7.983   2.174
    1CHTO   O17  316   7.518   7.796   2.262
    1CHTO   C32  317   7.579   7.842   2.382
    1CHTO   H60  318   7.630   7.936   2.363
    1CHTO   C36  319   7.685   7.736   2.424
    1CHTO   O25  320   7.769   7.782   2.530
    1CHTO   H40  321   7.824   7.852   2.500
    1CHTO   O15  322   7.376   7.830   2.071
    1CHTO   C19  323   7.300   7.805   1.950
    1CHTO   H47  324   7.230   7.890   1.945
    1CHTO   C20  325   7.384   7.801   1.819
    1CHTO   H48  326   7.462   7.723   1.823
    1CHTO   O19  327   7.450   7.928   1.809
    1CHTO   H35  328   7.508   7.928   1.735
    1CHTO   C21  329   7.292   7.771   1.694
    1CHTO   H49  330   7.219   7.852   1.684
    1CHTO    N4  331   7.366   7.765   1.565
    1CHTO   H41  332   7.441   7.687   1.570
    1CHTO   H42  333   7.414   7.859   1.545
    1CHTO   C22  334   7.212   7.641   1.724
    1CHTO   H50  335   7.284   7.560   1.739
    1CHTO   O14  336   7.134   7.661   1.842
    1CHTO   C23  337   7.211   7.677   1.961
    1CHTO   H51  338   7.272   7.587   1.974
    1CHTO   C34  339   7.115   7.686   2.080
    1CHTO   O23  340   7.043   7.563   2.095
    1CHTO   H38  341   6.985   7.570   2.169
    1CHTO   O16  342   7.114   7.606   1.624
    1CHTO   C24  343   7.119   7.448   1.581
    1CHTO   H52  344   7.210   7.399   1.615
    1CHTO   C26  345   7.111   7.441   1.427
    1CHTO   H54  346   7.024   7.502   1.393
    1CHTO   O20  347   7.230   7.502   1.372
    1CHTO   H36  348   7.306   7.454   1.397
    1CHTO   C30  349   7.092   7.295   1.375
    1CHTO   H58  350   7.186   7.239   1.388
    1CHTO    N6  351   7.064   7.292   1.228
    1CHTO   H45  352   6.975   7.348   1.206
    1CHTO   H46  353   7.147   7.335   1.174
    1CHTO   C33  354   6.985   7.217   1.456
    1CHTO   H61  355   6.884   7.254   1.432
    1CHTO   O18  356   7.007   7.235   1.597
    1CHTO   C28  357   6.999   7.371   1.643
    1CHTO   H56  358   6.906   7.417   1.611
    1CHTO   C35  359   7.005   7.370   1.797
    1CHTO   O24  360   6.893   7.304   1.857
    1CHTO   H39  361   6.896   7.212   1.838
    1CHTO    O9  362   6.984   7.077   1.420
    1CHTO   C13  363   6.911   6.974   1.523
    1CHTO   H26  364   6.823   7.025   1.567
    1CHTO   C11  365   7.015   6.926   1.635
    1CHTO   H24  366   7.018   7.004   1.713
    1CHTO    O8  367   7.147   6.915   1.578
    1CHTO    H3  368   7.148   6.850   1.511
    1CHTO    C9  369   6.964   6.793   1.697
    1CHTO   H22  370   6.862   6.814   1.732
    1CHTO    N2  371   7.036   6.754   1.821
    1CHTO   H10  372   6.989   6.667   1.865
    1CHTO   H11  373   7.037   6.836   1.891
    1CHTO    C7  374   6.956   6.681   1.585
    1CHTO   H20  375   6.863   6.626   1.610
    1CHTO    O4  376   6.943   6.736   1.452
    1CHTO   C14  377   6.852   6.848   1.444
    1CHTO   H27  378   6.756   6.818   1.490
    1CHTO   C18  379   6.824   6.876   1.295
    1CHTO   O13  380   6.723   6.977   1.279
    1CHTO    H7  381   6.708   6.993   1.188
    1CHTO    O2  382   7.085   6.566   1.587
    1CHTO    C1  383   7.185   6.568   1.483
    1CHTO   H14  384   7.198   6.671   1.445
    1CHTO    C2  385   7.152   6.472   1.360
    1CHTO   H15  386   7.127   6.374   1.404
    1CHTO    O6  387   7.037   6.523   1.291
    1CHTO    H1  388   7.011   6.465   1.222
    1CHTO    C3  389   7.279   6.458   1.262
    1CHTO   H16  390   7.298   6.555   1.214
    1CHTO    N1  391   7.254   6.359   1.151
    1CHTO    H8  392   7.340   6.355   1.086
    1CHTO    H9  393   7.235   6.261   1.193
    1CHTO    C4  394   7.409   6.425   1.344
    1CHTO   H17  395   7.399   6.324   1.386
    1CHTO    O1  396   7.426   6.522   1.448
    1CHTO    C5  397   7.321   6.525   1.546
    1CHTO   H18  398   7.309   6.425   1.588
    1CHTO   C16  399   7.367   6.620   1.660
    1CHTO   O11  400   7.398   6.752   1.613
    1CHTO    H5  401   7.320   6.795   1.584
    1CHTO    O3  402   7.528   6.437   1.264
    1CHTO    C6  403   7.635   6.338   1.285
    1CHTO   H19  404   7.607   6.260   1.357
    1CHTO    C8  405   7.668   6.268   1.149
    1CHTO   H21  406   7.676   6.344   1.072
    1CHTO    O7  407   7.557   6.182   1.119
    1CHTO    H2  408   7.567   6.145   1.033
    1CHTO   C12  409   7.805   6.187   1.156
    1CHTO   H25  410   7.785   6.100   1.222
    1CHTO    N3  411   7.842   6.132   1.021
    1CHTO   H12  412   7.851   6.024   1.026
    1CHTO   H13  413   7.934   6.176   0.985
    1CHTO   C15  414   7.917   6.275   1.221
    1CHTO   H28  415   7.945   6.359   1.157
    1CHTO   O10  416   8.041   6.195   1.257
    1CHTO    H4  417   8.080   6.160   1.179
    1CHTO    O5  418   7.874   6.322   1.350
    1CHTO   C10  419   7.761   6.410   1.344
    1CHTO   H23  420   7.787   6.495   1.280
    1CHTO   C17  421   7.738   6.465   1.485
    1CHTO   O12  422   7.712   6.361   1.581
    1CHTO    H6  423   7.698   6.400   1.666
    2CHTO  H203  424   6.582   4.411   0.651
    2CHTO   O82  425   6.629   4.420   0.571
    2CHTO  C123  426   6.549   4.484   0.470
    2CHTO  H227  427   6.610   4.496   0.379
    2CHTO   O77  428   6.443   4.387   0.446
    2CHTO  C118  429   6.346   4.430   0.349
    2CHTO  H222  430   6.397   4.465   0.259
    2CHTO  C125  431   6.260   4.303   0.312
    2CHTO   O84  432   6.195   4.245   0.426
    2CHTO  H205  433   6.259   4.208   0.484
    2CHTO  C114  434   6.266   4.547   0.411
    2CHTO  H218  435   6.224   4.516   0.506
    2CHTO  C116  436   6.364   4.666   0.436
    2CHTO  H220  437   6.396   4.708   0.338
    2CHTO   O79  438   6.291   4.771   0.502
    2CHTO  H201  439   6.346   4.847   0.513
    2CHTO  C120  440   6.491   4.622   0.520
    2CHTO  H224  441   6.456   4.611   0.626
    2CHTO   N21  442   6.594   4.729   0.520
    2CHTO  H211  443   6.653   4.724   0.610
    2CHTO  H212  444   6.658   4.720   0.433
    2CHTO   O75  445   6.162   4.585   0.318
    2CHTO  C112  446   6.013   4.519   0.346
    2CHTO  H216  447   6.020   4.448   0.431
    2CHTO   O73  448   5.974   4.453   0.225
    2CHTO  C113  449   5.855   4.375   0.236
    2CHTO  H217  450   5.865   4.301   0.318
    2CHTO  C124  451   5.841   4.297   0.105
    2CHTO   O83  452   5.954   4.212   0.079
    2CHTO  H204  453   5.939   4.163   0.000
    2CHTO  C109  454   5.734   4.470   0.263
    2CHTO  H213  455   5.721   4.533   0.174
    2CHTO  C110  456   5.764   4.559   0.389
    2CHTO  H214  457   5.759   4.495   0.478
    2CHTO   O78  458   5.658   4.655   0.402
    2CHTO  H200  459   5.657   4.714   0.329
    2CHTO  C111  460   5.904   4.627   0.380
    2CHTO  H215  461   5.902   4.700   0.298
    2CHTO   N19  462   5.940   4.703   0.503
    2CHTO  H207  463   5.944   4.636   0.588
    2CHTO  H208  464   6.036   4.752   0.490
    2CHTO   O74  465   5.610   4.394   0.286
    2CHTO  C115  466   5.518   4.367   0.150
    2CHTO  H219  467   5.562   4.414   0.062
    2CHTO   O76  468   5.511   4.213   0.116
    2CHTO  C122  469   5.425   4.176   0.007
    2CHTO  H226  470   5.418   4.067   0.008
    2CHTO  C126  471   5.491   4.213   2.689
    2CHTO   O85  472   5.616   4.147   2.667
    2CHTO  H206  473   5.680   4.179   2.728
    2CHTO  C121  474   5.280   4.234   0.022
    2CHTO  H225  475   5.225   4.216   2.747
    2CHTO   O81  476   5.211   4.166   0.127
    2CHTO  H202  477   5.200   4.075   0.105
    2CHTO  C119  478   5.282   4.388   0.048
    2CHTO  H223  479   5.326   4.433   2.779
    2CHTO  C117  480   5.374   4.426   0.171
    2CHTO  H221  481   5.342   4.389   0.268
    2CHTO   N20  482   5.383   4.576   0.186
    2CHTO  H209  483   5.339   4.607   0.280
    2CHTO  H210  484   5.335   4.627   0.104
    2CHTO   O80  485   5.138   4.450   0.048
    2CHTO  C103  486   5.090   4.533   2.746
    2CHTO  H190  487   5.159   4.613   2.724
    2CHTO  C101  488   5.062   4.452   2.613
    2CHTO  H188  489   5.007   4.361   2.639
    2CHTO   O68  490   5.199   4.410   2.551
    2CHTO  H168  491   5.184   4.351   2.479
    2CHTO   C99  492   4.974   4.537   2.511
    2CHTO  H186  493   5.031   4.628   2.480
    2CHTO   N17  494   4.939   4.463   2.384
    2CHTO  H174  495   4.832   4.459   2.369
    2CHTO  H175  496   4.989   4.507   2.300
    2CHTO   C97  497   4.848   4.590   2.585
    2CHTO  H184  498   4.789   4.503   2.618
    2CHTO   O64  499   4.889   4.672   2.696
    2CHTO  C104  500   4.956   4.599   2.799
    2CHTO  H191  501   4.891   4.521   0.019
    2CHTO  C108  502   4.985   4.694   0.097
    2CHTO   O71  503   5.066   4.806   0.060
    2CHTO  H171  504   5.020   4.861   0.000
    2CHTO   O62  505   4.767   4.679   2.505
    2CHTO   C91  506   4.630   4.694   2.548
    2CHTO  H178  507   4.607   4.617   2.622
    2CHTO   C92  508   4.536   4.665   2.426
    2CHTO  H179  509   4.564   4.570   2.378
    2CHTO   O66  510   4.403   4.645   2.475
    2CHTO  H166  511   4.398   4.567   2.527
    2CHTO   C93  512   4.532   4.784   2.322
    2CHTO  H180  513   4.438   4.773   2.265
    2CHTO   N16  514   4.639   4.779   2.219
    2CHTO  H172  515   4.597   4.772   2.120
    2CHTO  H173  516   4.706   4.696   2.237
    2CHTO   C94  517   4.531   4.924   2.396
    2CHTO  H181  518   4.628   4.974   2.391
    2CHTO   O61  519   4.499   4.910   2.535
    2CHTO   C95  520   4.597   4.838   2.611
    2CHTO  H182  521   4.689   4.897   2.615
    2CHTO  C106  522   4.543   4.826   2.757
    2CHTO   O69  523   4.644   4.776   0.025
    2CHTO  H169  524   4.610   4.772   0.113
    2CHTO   O63  525   4.422   5.015   2.327
    2CHTO   C96  526   4.410   5.158   2.393
    2CHTO  H183  527   4.486   5.168   2.471
    2CHTO   C98  528   4.272   5.186   2.456
    2CHTO  H185  529   4.192   5.164   2.383
    2CHTO   O67  530   4.253   5.092   2.564
    2CHTO  H167  531   4.243   5.005   2.530
    2CHTO  C102  532   4.258   5.337   2.510
    2CHTO  H189  533   4.324   5.343   2.597
    2CHTO   N18  534   4.122   5.372   2.560
    2CHTO  H176  535   4.050   5.362   2.480
    2CHTO  H177  536   4.122   5.473   2.598
    2CHTO  C105  537   4.310   5.437   2.402
    2CHTO  H192  538   4.235   5.447   2.323
    2CHTO   O65  539   4.435   5.399   2.343
    2CHTO  C100  540   4.439   5.268   2.284
    2CHTO  H187  541   4.362   5.262   2.206
    2CHTO  C107  542   4.576   5.248   2.215
    2CHTO   O70  543   4.685   5.256   2.308
    2CHTO  H170  544   4.766   5.243   2.263
    2CHTO   O57  545   4.334   5.574   2.478
    2CHTO   C85  546   4.258   5.692   2.446
    2CHTO  H157  547   4.152   5.660   2.435
    2CHTO   C83  548   4.299   5.750   2.307
    2CHTO  H155  549   4.267   5.679   2.230
    2CHTO   O56  550   4.443   5.757   2.298
    2CHTO  H135  551   4.476   5.820   2.359
    2CHTO   C81  552   4.228   5.886   2.282
    2CHTO  H153  553   4.120   5.869   2.288
    2CHTO   N14  554   4.249   5.940   2.145
    2CHTO  H141  555   4.191   6.029   2.131
    2CHTO  H142  556   4.219   5.867   2.072
    2CHTO   C79  557   4.268   5.988   2.395
    2CHTO  H151  558   4.212   6.080   2.377
    2CHTO   O52  559   4.223   5.936   2.525
    2CHTO   C86  560   4.274   5.803   2.557
    2CHTO  H158  561   4.381   5.819   2.580
    2CHTO   C90  562   4.210   5.752   2.689
    2CHTO   O60  563   4.252   5.830   2.801
    2CHTO  H138  564   4.211   5.797   0.058
    2CHTO   O50  565   4.408   6.019   2.400
    2CHTO   C73  566   4.474   6.140   2.440
    2CHTO  H145  567   4.405   6.204   2.498
    2CHTO   C74  568   4.521   6.221   2.315
    2CHTO  H146  569   4.432   6.238   2.252
    2CHTO   O54  570   4.565   6.351   2.360
    2CHTO  H133  571   4.589   6.404   2.286
    2CHTO   C75  572   4.633   6.139   2.239
    2CHTO  H147  573   4.588   6.045   2.203
    2CHTO   N13  574   4.684   6.207   2.117
    2CHTO  H139  575   4.729   6.301   2.143
    2CHTO  H140  576   4.758   6.145   2.069
    2CHTO   C76  577   4.751   6.100   2.340
    2CHTO  H148  578   4.799   6.192   2.374
    2CHTO   O49  579   4.695   6.030   2.456
    2CHTO   C77  580   4.598   6.107   2.530
    2CHTO  H149  581   4.643   6.200   2.563
    2CHTO   C88  582   4.561   6.030   2.657
    2CHTO   O58  583   4.470   6.109   2.743
    2CHTO  H136  584   4.449   6.059   2.820
    2CHTO   O51  585   4.860   5.996   2.266
    2CHTO   C78  586   4.933   5.891   2.362
    2CHTO  H150  587   4.892   5.895   2.465
    2CHTO   C80  588   5.085   5.917   2.369
    2CHTO  H152  589   5.127   5.907   2.266
    2CHTO   O55  590   5.104   6.052   2.413
    2CHTO  H134  591   5.194   6.075   2.409
    2CHTO   C84  592   5.154   5.812   2.465
    2CHTO  H156  593   5.116   5.829   2.566
    2CHTO   N15  594   5.304   5.829   2.472
    2CHTO  H143  595   5.346   5.757   2.540
    2CHTO  H144  596   5.328   5.927   2.507
    2CHTO   C87  597   5.117   5.667   2.425
    2CHTO  H159  598   5.169   5.638   2.333
    2CHTO   O53  599   4.962   5.655   2.401
    2CHTO   C82  600   4.909   5.749   2.308
    2CHTO  H154  601   4.955   5.736   2.210
    2CHTO   C89  602   4.758   5.722   2.292
    2CHTO   O59  603   4.734   5.590   2.240
    2CHTO  H137  604   4.641   5.576   2.234
    2CHTO   O45  605   5.163   5.558   2.547
    2CHTO   C67  606   5.056   5.488   2.614
    2CHTO  H124  607   4.964   5.547   2.607
    2CHTO   C65  608   5.030   5.347   2.549
    2CHTO  H122  609   5.125   5.317   2.504
    2CHTO   O44  610   4.934   5.368   2.445
    2CHTO  H102  611   4.926   5.291   2.392
    2CHTO   C63  612   4.999   5.234   2.656
    2CHTO  H120  613   5.093   5.205   2.703
    2CHTO   N11  614   4.952   5.103   2.601
    2CHTO  H108  615   4.855   5.114   2.559
    2CHTO  H109  616   5.020   5.068   2.526
    2CHTO   C61  617   4.910   5.294   2.771
    2CHTO  H118  618   4.900   5.214   0.026
    2CHTO   O40  619   4.973   5.407   0.017
    2CHTO   C68  620   5.084   5.475   2.769
    2CHTO  H125  621   5.177   5.417   2.786
    2CHTO   C72  622   5.105   5.614   0.015
    2CHTO   O48  623   4.986   5.695   0.015
    2CHTO  H105  624   4.964   5.719   2.747
    2CHTO   O38  625   4.779   5.333   2.723
    2CHTO   C55  626   4.678   5.355   0.004
    2CHTO  H112  627   4.726   5.391   0.097
    2CHTO   C56  628   4.593   5.223   0.029
    2CHTO  H113  629   4.550   5.193   2.752
    2CHTO   O42  630   4.679   5.116   0.072
    2CHTO  H100  631   4.739   5.093   0.003
    2CHTO   C57  632   4.479   5.250   0.135
    2CHTO  H114  633   4.528   5.263   0.232
    2CHTO   N10  634   4.384   5.136   0.151
    2CHTO  H106  635   4.433   5.042   0.133
    2CHTO  H107  636   4.343   5.136   0.251
    2CHTO   C58  637   4.401   5.380   0.101
    2CHTO  H115  638   4.335   5.362   0.013
    2CHTO   O37  639   4.490   5.490   0.073
    2CHTO   C59  640   4.579   5.468   2.782
    2CHTO  H116  641   4.522   5.439   2.694
    2CHTO   C70  642   4.649   5.601   2.753
    2CHTO   O46  643   4.719   5.602   2.628
    2CHTO  H103  644   4.657   5.599   2.557
    2CHTO   O39  645   4.312   5.426   0.231
    2CHTO   C60  646   4.206   5.517   0.199
    2CHTO  H117  647   4.236   5.581   0.116
    2CHTO   C62  648   4.075   5.442   0.158
    2CHTO  H119  649   4.102   5.381   0.069
    2CHTO   O43  650   4.035   5.354   0.264
    2CHTO  H101  651   3.961   5.304   0.238
    2CHTO   C66  652   3.962   5.549   0.117
    2CHTO  H123  653   4.002   5.613   0.038
    2CHTO   N12  654   3.841   5.485   0.061
    2CHTO  H110  655   3.866   5.430   2.792
    2CHTO  H111  656   3.796   5.420   0.135
    2CHTO   C69  657   3.931   5.641   0.238
    2CHTO  H126  658   3.888   5.580   0.321
    2CHTO   O41  659   4.066   5.710   0.288
    2CHTO   C64  660   4.179   5.612   0.320
    2CHTO  H121  661   4.151   5.550   0.408
    2CHTO   C71  662   4.307   5.691   0.355
    2CHTO   O47  663   4.288   5.772   0.472
    2CHTO  H104  664   4.230   5.843   0.452
    2CHTO   O34  665   3.824   5.756   0.199
    2CHTO   C49  666   3.859   5.900   0.159
    2CHTO   H91  667   3.967   5.904   0.147
    2CHTO   C47  668   3.816   5.994   0.274
    2CHTO   H89  669   3.857   6.095   0.249
    2CHTO   O33  670   3.878   5.949   0.396
    2CHTO   H70  671   3.844   5.865   0.421
    2CHTO   C45  672   3.655   6.000   0.280
    2CHTO   H87  673   3.617   5.897   0.288
    2CHTO    N8  674   3.603   6.077   0.397
    2CHTO   H75  675   3.548   6.012   0.463
    2CHTO   H76  676   3.684   6.124   0.451
    2CHTO   C43  677   3.601   6.056   0.140
    2CHTO   H85  678   3.492   6.053   0.147
    2CHTO   O29  679   3.650   5.974   0.032
    2CHTO   C50  680   3.791   5.942   0.025
    2CHTO   H92  681   3.800   5.857   2.776
    2CHTO   C54  682   3.866   6.055   2.769
    2CHTO   O36  683   4.005   6.026   2.748
    2CHTO   H72  684   4.014   5.955   2.687
    2CHTO   O27  685   3.636   6.195   0.120
    2CHTO   C37  686   3.580   6.318   0.071
    2CHTO   H79  687   3.559   6.310   2.783
    2CHTO   C38  688   3.445   6.351   0.142
    2CHTO   H80  689   3.460   6.344   0.251
    2CHTO   O31  690   3.348   6.252   0.102
    2CHTO   H68  691   3.370   6.169   0.139
    2CHTO   C39  692   3.392   6.496   0.106
    2CHTO   H81  693   3.363   6.496   0.001
    2CHTO    N7  694   3.271   6.535   0.186
    2CHTO   H73  695   3.294   6.537   0.291
    2CHTO   H74  696   3.235   6.632   0.154
    2CHTO   C40  697   3.508   6.603   0.122
    2CHTO   H82  698   3.531   6.618   0.227
    2CHTO   O26  699   3.623   6.560   0.047
    2CHTO   C41  700   3.681   6.435   0.093
    2CHTO   H83  701   3.705   6.442   0.200
    2CHTO   C52  702   3.812   6.412   0.015
    2CHTO   O35  703   3.909   6.519   0.037
    2CHTO   H71  704   3.985   6.502   2.806
    2CHTO   O28  705   3.475   6.730   0.062
    2CHTO   C42  706   3.527   6.857   0.116
    2CHTO   H84  707   3.514   6.926   0.032
    2CHTO   C44  708   3.680   6.859   0.151
    2CHTO   H86  709   3.702   6.774   0.216
    2CHTO   O32  710   3.750   6.840   0.027
    2CHTO   H69  711   3.843   6.833   0.042
    2CHTO   C48  712   3.725   6.990   0.227
    2CHTO   H90  713   3.713   7.076   0.160
    2CHTO    N9  714   3.870   6.988   0.265
    2CHTO   H77  715   3.897   7.080   0.315
    2CHTO   H78  716   3.890   6.903   0.329
    2CHTO   C51  717   3.630   7.008   0.350
    2CHTO   H93  718   3.634   6.916   0.410
    2CHTO   O30  719   3.499   7.032   0.298
    2CHTO   C46  720   3.437   6.911   0.233
    2CHTO   H88  721   3.424   6.833   0.308
    2CHTO   C53  722   3.299   6.960   0.183
    2CHTO   O72  723   3.219   6.857   0.125
    2CHTO  H199  724   3.193   6.795   0.192
    2CHTO   O22  725   3.657   7.124   0.433
    2CHTO   C31  726   3.623   7.120   0.577
    2CHTO   H59  727   3.633   7.225   0.613
    2CHTO   C29  728   3.477   7.077   0.607
    2CHTO   H57  729   3.461   6.980   0.558
    2CHTO   O21  730   3.389   7.171   0.543
    2CHTO   H37  731   3.301   7.141   0.547
    2CHTO   C27  732   3.447   7.061   0.762
    2CHTO   H55  733   3.453   7.160   0.809
    2CHTO    N5  734   3.311   7.005   0.787
    2CHTO   H43  735   3.252   7.075   0.844
    2CHTO   H44  736   3.316   6.910   0.838
    2CHTO   C25  737   3.561   6.973   0.825
    2CHTO   H53  738   3.558   6.873   0.778
    2CHTO   O17  739   3.690   7.035   0.799
    2CHTO   C32  740   3.725   7.036   0.660
    2CHTO   H60  741   3.726   6.934   0.622
    2CHTO   C36  742   3.868   7.094   0.648
    2CHTO   O25  743   3.963   7.013   0.718
    2CHTO   H40  744   4.048   7.050   0.709
    2CHTO   O15  745   3.546   6.957   0.979
    2CHTO   C19  746   3.511   6.834   1.048
    2CHTO   H47  747   3.432   6.790   0.986
    2CHTO   C20  748   3.627   6.730   1.063
    2CHTO   H48  749   3.710   6.770   1.123
    2CHTO   O19  750   3.679   6.703   0.931
    2CHTO   H35  751   3.613   6.662   0.878
    2CHTO   C21  752   3.575   6.598   1.133
    2CHTO   H49  753   3.500   6.552   1.068
    2CHTO    N4  754   3.681   6.495   1.154
    2CHTO   H41  755   3.777   6.530   1.117
    2CHTO   H42  756   3.655   6.403   1.104
    2CHTO   C22  757   3.504   6.636   1.265
    2CHTO   H50  758   3.578   6.676   1.335
    2CHTO   O14  759   3.402   6.734   1.241
    2CHTO   C23  760   3.448   6.859   1.188
    2CHTO   H51  761   3.521   6.902   1.259
    2CHTO   C34  762   3.329   6.955   1.180
    2CHTO   O23  763   3.275   6.984   1.310
    2CHTO   H38  764   3.233   6.907   1.345
    2CHTO   O16  765   3.433   6.525   1.326
    2CHTO   C24  766   3.392   6.560   1.479
    2CHTO   H52  767   3.404   6.666   1.502
    2CHTO   C26  768   3.477   6.476   1.576
    2CHTO   H54  769   3.456   6.368   1.559
    2CHTO   O20  770   3.616   6.501   1.547
    2CHTO   H36  771   3.670   6.446   1.600
    2CHTO   C30  772   3.437   6.513   1.723
    2CHTO   H58  773   3.461   6.618   1.741
    2CHTO    N6  774   3.516   6.434   1.822
    2CHTO   H45  775   3.451   6.373   1.884
    2CHTO   H46  776   3.572   6.501   1.886
    2CHTO   C33  777   3.283   6.498   1.742
    2CHTO   H61  778   3.256   6.392   1.737
    2CHTO   O18  779   3.210   6.567   1.638
    2CHTO   C28  780   3.243   6.526   1.504
    2CHTO   H56  781   3.229   6.419   1.494
    2CHTO   C35  782   3.150   6.598   1.403
    2CHTO   O24  783   3.014   6.557   1.416
    2CHTO   H39  784   2.961   6.604   1.355
    2CHTO    O9  785   3.241   6.542   1.874
    2CHTO   C13  786   3.165   6.689   1.895
    2CHTO   H26  787   3.067   6.683   1.844
    2CHTO   C11  788   3.253   6.810   1.840
    2CHTO   H24  789   3.257   6.802   1.730
    2CHTO    O8  790   3.389   6.801   1.888
    2CHTO    H3  791   3.429   6.722   1.857
    2CHTO    C9  792   3.182   6.942   1.878
    2CHTO   H22  793   3.080   6.934   1.836
    2CHTO    N2  794   3.239   7.063   1.814
    2CHTO   H10  795   3.340   7.080   1.849
    2CHTO   H11  796   3.239   7.052   1.706
    2CHTO    C7  797   3.172   6.952   2.034
    2CHTO   H20  798   3.114   7.046   2.052
    2CHTO    O4  799   3.098   6.841   2.090
    2CHTO   C14  800   3.131   6.706   2.050
    2CHTO   H27  801   3.041   6.646   2.071
    2CHTO   C18  802   3.244   6.650   2.141
    2CHTO   O13  803   3.203   6.645   2.278
    2CHTO    H7  804   3.273   6.611   2.331
    2CHTO    O2  805   3.320   6.961   2.104
    2CHTO    C1  806   3.334   7.009   2.239
    2CHTO   H14  807   3.303   6.928   2.309
    2CHTO    C2  808   3.252   7.141   2.274
    2CHTO   H15  809   3.260   7.206   2.185
    2CHTO    O6  810   3.114   7.106   2.295
    2CHTO    H1  811   3.105   7.048   2.368
    2CHTO    C3  812   3.311   7.219   2.402
    2CHTO   H16  813   3.290   7.159   2.493
    2CHTO    N1  814   3.246   7.354   2.422
    2CHTO    H8  815   3.199   7.358   2.519
    2CHTO    H9  816   3.174   7.374   2.345
    2CHTO    C4  817   3.467   7.227   2.391
    2CHTO   H17  818   3.492   7.286   2.303
    2CHTO    O1  819   3.521   7.095   2.382
    2CHTO    C5  820   3.488   7.028   2.259
    2CHTO   H18  821   3.524   7.088   2.175
    2CHTO   C16  822   3.562   6.892   2.257
    2CHTO   O11  823   3.704   6.909   2.253
    2CHTO    H5  824   3.730   6.945   2.169
    2CHTO    O3  825   3.529   7.285   2.508
    2CHTO    C6  826   3.655   7.357   2.483
    2CHTO   H19  827   3.702   7.327   2.389
    2CHTO    C8  828   3.629   7.511   2.478
    2CHTO   H21  829   3.574   7.540   2.567
    2CHTO    O7  830   3.549   7.537   2.361
    2CHTO    H2  831   3.521   7.626   2.360
    2CHTO   C12  832   3.766   7.591   2.473
    2CHTO   H25  833   3.814   7.566   2.376
    2CHTO    N3  834   3.744   7.739   2.474
    2CHTO   H12  835   3.839   7.791   2.470
    2CHTO   H13  836   3.682   7.768   2.390
    2CHTO   C15  837   3.858   7.541   2.590
    2CHTO   H28  838   3.818   7.568   2.688
    2CHTO   O10  839   4.005   7.595   2.579
    2CHTO    H4  840   4.040   7.576   2.494
    2CHTO    O5  841   3.877   7.399   2.582
    2CHTO   C10  842   3.756   7.323   2.596
    2CHTO   H23  843   3.711   7.345   2.693
    2CHTO   C17  844   3.792   7.173   2.595
    2CHTO   O12  845   3.877   7.138   2.704
    2CHTO    H6  846   3.963   7.173   2.689
    3CHTO  H203  847   7.975   1.912   2.048
    3CHTO   O82  848   7.931   1.862   2.114
    3CHTO  C123  849   7.904   1.730   2.066
    3CHTO  H227  850   7.999   1.682   2.038
    3CHTO   O77  851   7.847   1.664   2.183
    3CHTO  C118  852   7.822   1.523   2.165
    3CHTO  H222  853   7.914   1.473   2.132
    3CHTO  C125  854   7.781   1.467   2.306
    3CHTO   O84  855   7.779   1.324   2.310
    3CHTO  H205  856   7.866   1.290   2.300
    3CHTO  C114  857   7.712   1.506   2.059
    3CHTO  H218  858   7.620   1.552   2.096
    3CHTO  C116  859   7.749   1.578   1.925
    3CHTO  H220  860   7.829   1.518   1.874
    3CHTO   O79  861   7.635   1.575   1.837
    3CHTO  H201  862   7.564   1.623   1.874
    3CHTO  C120  863   7.800   1.726   1.948
    3CHTO  H224  864   7.710   1.785   1.976
    3CHTO   N21  865   7.855   1.787   1.824
    3CHTO  H211  866   7.806   1.747   1.737
    3CHTO  H212  867   7.845   1.894   1.828
    3CHTO   O75  868   7.694   1.364   2.047
    3CHTO  C112  869   7.559   1.307   1.966
    3CHTO  H216  870   7.583   1.301   1.859
    3CHTO   O73  871   7.450   1.398   1.991
    3CHTO  C113  872   7.330   1.361   1.922
    3CHTO  H217  873   7.353   1.347   1.814
    3CHTO  C124  874   7.232   1.478   1.932
    3CHTO   O83  875   7.120   1.464   1.845
    3CHTO  H204  876   7.148   1.473   1.756
    3CHTO  C109  877   7.276   1.229   1.983
    3CHTO  H213  878   7.257   1.249   2.090
    3CHTO  C110  879   7.384   1.118   1.966
    3CHTO  H214  880   7.392   1.094   1.860
    3CHTO   O78  881   7.339   0.998   2.033
    3CHTO  H200  882   7.398   0.928   2.017
    3CHTO  C111  883   7.522   1.164   2.021
    3CHTO  H215  884   7.515   1.172   2.131
    3CHTO   N19  885   7.633   1.069   1.992
    3CHTO  H207  886   7.678   1.034   2.084
    3CHTO  H208  887   7.598   0.985   1.935
    3CHTO   O74  888   7.150   1.191   1.920
    3CHTO  C115  889   7.045   1.120   2.017
    3CHTO  H219  890   7.090   1.036   2.071
    3CHTO   O76  891   6.994   1.218   2.131
    3CHTO  C122  892   6.890   1.307   2.087
    3CHTO  H226  893   6.930   1.367   2.005
    3CHTO  C126  894   6.858   1.408   2.202
    3CHTO   O85  895   6.971   1.488   2.238
    3CHTO  H206  896   7.036   1.435   2.279
    3CHTO  C121  897   6.760   1.228   2.040
    3CHTO  H225  898   6.684   1.231   2.121
    3CHTO   O81  899   6.706   1.295   1.925
    3CHTO  H202  900   6.675   1.380   1.949
    3CHTO  C119  901   6.791   1.079   2.005
    3CHTO  H223  902   6.803   1.027   2.101
    3CHTO  C117  903   6.926   1.066   1.927
    3CHTO  H221  904   6.931   1.125   1.836
    3CHTO   N20  905   6.956   0.925   1.884
    3CHTO  H209  906   6.956   0.917   1.776
    3CHTO  H210  907   6.884   0.855   1.926
    3CHTO   O80  908   6.666   1.001   1.943
    3CHTO  C103  909   6.542   0.974   2.027
    3CHTO  H190  910   6.561   0.994   2.132
    3CHTO  C101  911   6.413   1.054   1.980
    3CHTO  H188  912   6.410   1.053   1.871
    3CHTO   O68  913   6.427   1.202   2.026
    3CHTO  H168  914   6.426   1.207   2.120
    3CHTO   C99  915   6.279   0.986   2.035
    3CHTO  H186  916   6.277   0.993   2.146
    3CHTO   N17  917   6.153   1.051   1.984
    3CHTO  H174  918   6.067   1.005   2.030
    3CHTO  H175  919   6.155   1.157   2.006
    3CHTO   C97  920   6.282   0.835   2.003
    3CHTO  H184  921   6.287   0.823   1.893
    3CHTO   O64  922   6.396   0.776   2.067
    3CHTO  C104  923   6.521   0.818   2.011
    3CHTO  H191  924   6.528   0.791   1.905
    3CHTO  C108  925   6.634   0.741   2.082
    3CHTO   O71  926   6.620   0.600   2.065
    3CHTO  H171  927   6.544   0.569   2.112
    3CHTO   O62  928   6.172   0.761   2.058
    3CHTO   C91  929   6.133   0.642   1.987
    3CHTO  H178  930   6.154   0.657   1.881
    3CHTO   C92  931   5.979   0.628   1.996
    3CHTO  H179  932   5.948   0.629   2.102
    3CHTO   O66  933   5.921   0.747   1.937
    3CHTO  H166  934   5.940   0.751   1.846
    3CHTO   C93  935   5.932   0.495   1.925
    3CHTO  H180  936   5.967   0.501   1.821
    3CHTO   N16  937   5.785   0.482   1.918
    3CHTO  H172  938   5.753   0.470   1.816
    3CHTO  H173  939   5.750   0.399   1.979
    3CHTO   C94  940   6.000   0.370   1.994
    3CHTO  H181  941   5.932   0.319   2.063
    3CHTO   O61  942   6.113   0.405   2.077
    3CHTO   C95  943   6.205   0.508   2.035
    3CHTO  H182  944   6.269   0.534   2.119
    3CHTO  C106  945   6.302   0.455   1.922
    3CHTO   O69  946   6.381   0.345   1.970
    3CHTO  H169  947   6.438   0.317   1.901
    3CHTO   O63  948   6.050   0.267   1.881
    3CHTO   C96  949   5.970   0.126   1.870
    3CHTO  H183  950   6.021   0.066   1.793
    3CHTO   C98  951   5.821   0.138   1.828
    3CHTO  H185  952   5.768   0.203   1.898
    3CHTO   O67  953   5.819   0.205   1.701
    3CHTO  H167  954   5.731   0.221   1.674
    3CHTO  C102  955   5.750   9.995   1.819
    3CHTO  H189  956   5.797   9.943   1.735
    3CHTO   N18  957   5.605  10.000   1.786
    3CHTO  H176  958   5.552   0.057   1.861
    3CHTO  H177  959   5.591   0.044   1.689
    3CHTO  C105  960   5.779   9.914   1.949
    3CHTO  H192  961   5.723   9.957   2.032
    3CHTO   O65  962   5.918   9.913   1.985
    3CHTO  C100  963   5.977   0.043   2.004
    3CHTO  H187  964   5.921   0.096   2.082
    3CHTO  C107  965   6.123   0.026   2.053
    3CHTO   O70  966   6.128   9.965   2.182
    3CHTO  H170  967   6.101   9.876   2.176
    3CHTO   O57  968   5.728   9.756   1.918
    3CHTO   C85  969   5.675   9.668   2.018
    3CHTO  H157  970   5.678   9.567   1.970
    3CHTO   C83  971   5.523   9.698   2.041
    3CHTO  H155  972   5.469   9.673   1.949
    3CHTO   O56  973   5.502   9.839   2.063
    3CHTO  H135  974   5.527   9.888   1.987
    3CHTO   C81  975   5.470   9.610   2.157
    3CHTO  H153  976   5.489   9.506   2.131
    3CHTO   N14  977   5.322   9.617   2.175
    3CHTO  H141  978   5.277   9.523   2.152
    3CHTO  H142  979   5.279   9.693   2.113
    3CHTO   C79  980   5.550   9.644   2.288
    3CHTO  H151  981   5.510   9.580   2.367
    3CHTO   O52  982   5.689   9.606   2.269
    3CHTO   C86  983   5.755   9.670   2.155
    3CHTO  H158  984   5.772   9.773   2.188
    3CHTO   C90  985   5.895   9.608   2.135
    3CHTO   O60  986   5.980   9.636   2.247
    3CHTO  H138  987   6.064   9.596   2.233
    3CHTO   O50  988   5.541   9.781   2.330
    3CHTO   C73  989   5.558   9.857   2.450
    3CHTO  H145  990   5.627   9.806   2.519
    3CHTO   C74  991   5.421   9.876   2.522
    3CHTO  H146  992   5.380   9.775   2.541
    3CHTO   O54  993   5.445   9.934   2.651
    3CHTO  H133  994   5.365   9.941   2.699
    3CHTO   C75  995   5.324   9.962   2.430
    3CHTO  H147  996   5.304   9.905   2.338
    3CHTO   N13  997   5.190   9.986   2.490
    3CHTO  H139  998   5.173   0.092   2.505
    3CHTO  H140  999   5.180   9.936   2.585
    3CHTO   C76 1000   5.398   0.097   2.386
    3CHTO  H148 1001   5.409   0.159   2.476
    3CHTO   O49 1002   5.529   0.070   2.328
    3CHTO   C77 1003   5.617   9.998   2.417
    3CHTO  H149 1004   5.630   0.054   2.510
    3CHTO   C88 1005   5.757   9.988   2.355
    3CHTO   O58 1006   5.815   0.120   2.331
    3CHTO  H136 1007   5.900   0.110   2.292
    3CHTO   O51 1008   5.317   0.173   2.268
    3CHTO   C78 1009   5.334   0.332   2.281
    3CHTO  H150 1010   5.410   0.358   2.358
    3CHTO   C80 1011   5.200   0.397   2.318
    3CHTO  H152 1012   5.125   0.373   2.239
    3CHTO   O55 1013   5.157   0.337   2.442
    3CHTO  H134 1014   5.071   0.367   2.464
    3CHTO   C84 1015   5.214   0.554   2.333
    3CHTO  H156 1016   5.275   0.572   2.421
    3CHTO   N15 1017   5.082   0.620   2.358
    3CHTO  H143 1018   5.037   0.581   2.447
    3CHTO  H144 1019   5.095   0.726   2.370
    3CHTO   C87 1020   5.286   0.618   2.211
    3CHTO  H159 1021   5.218   0.625   2.126
    3CHTO   O53 1022   5.415   0.530   2.168
    3CHTO   C82 1023   5.383   0.392   2.147
    3CHTO  H154 1024   5.305   0.384   2.071
    3CHTO   C89 1025   5.506   0.316   2.092
    3CHTO   O59 1026   5.620   0.323   2.179
    3CHTO  H137 1027   5.653   0.411   2.182
    3CHTO   O45 1028   5.335   0.777   2.252
    3CHTO   C67 1029   5.473   0.791   2.289
    3CHTO  H124 1030   5.516   0.693   2.309
    3CHTO   C65 1031   5.554   0.859   2.172
    3CHTO  H122 1032   5.483   0.923   2.120
    3CHTO   O44 1033   5.594   0.752   2.084
    3CHTO  H102 1034   5.630   0.788   2.005
    3CHTO   C63 1035   5.666   0.958   2.224
    3CHTO  H120 1036   5.619   1.050   2.257
    3CHTO   N11 1037   5.761   1.009   2.120
    3CHTO  H108 1038   5.824   1.085   2.163
    3CHTO  H109 1039   5.707   1.051   2.038
    3CHTO   C61 1040   5.734   0.894   2.350
    3CHTO  H118 1041   5.808   0.966   2.388
    3CHTO   O40 1042   5.638   0.872   2.458
    3CHTO   C68 1043   5.495   0.873   2.423
    3CHTO  H125 1044   5.462   0.979   2.411
    3CHTO   C72 1045   5.418   0.816   2.544
    3CHTO   O48 1046   5.277   0.839   2.536
    3CHTO  H105 1047   5.259   0.930   2.547
    3CHTO   O38 1048   5.797   0.769   2.317
    3CHTO   C55 1049   5.890   0.710   2.410
    3CHTO  H112 1050   5.861   0.737   2.513
    3CHTO   C56 1051   6.038   0.758   2.377
    3CHTO  H113 1052   6.048   0.752   2.267
    3CHTO   O42 1053   6.053   0.897   2.409
    3CHTO  H100 1054   6.040   0.911   2.501
    3CHTO   C57 1055   6.147   0.668   2.447
    3CHTO  H114 1056   6.141   0.687   2.554
    3CHTO   N10 1057   6.286   0.700   2.403
    3CHTO  H106 1058   6.295   0.804   2.378
    3CHTO  H107 1059   6.356   0.677   2.483
    3CHTO   C58 1060   6.113   0.519   2.422
    3CHTO  H115 1061   6.116   0.499   2.312
    3CHTO   O37 1062   5.982   0.490   2.473
    3CHTO   C59 1063   5.876   0.555   2.401
    3CHTO  H116 1064   5.877   0.523   2.297
    3CHTO   C70 1065   5.742   0.513   2.462
    3CHTO   O46 1066   5.718   0.372   2.455
    3CHTO  H103 1067   5.634   0.352   2.492
    3CHTO   O39 1068   6.215   0.416   2.500
    3CHTO   C60 1069   6.272   0.313   2.417
    3CHTO  H117 1070   6.210   0.299   2.328
    3CHTO   C62 1071   6.417   0.349   2.371
    3CHTO  H119 1072   6.407   0.440   2.308
    3CHTO   O43 1073   6.497   0.381   2.487
    3CHTO  H101 1074   6.506   0.306   2.542
    3CHTO   C66 1075   6.479   0.229   2.283
    3CHTO  H123 1076   6.413   0.211   2.198
    3CHTO   N12 1077   6.611   0.264   2.225
    3CHTO  H110 1078   6.681   0.287   2.304
    3CHTO  H111 1079   6.601   0.347   2.157
    3CHTO   C69 1080   6.482   0.099   2.367
    3CHTO  H126 1081   6.546   0.114   2.457
    3CHTO   O41 1082   6.335   0.066   2.410
    3CHTO   C64 1083   6.270   0.178   2.494
    3CHTO  H121 1084   6.324   0.190   2.590
    3CHTO   C71 1085   6.124   0.137   2.527
    3CHTO   O47 1086   6.120   0.017   2.606
    3CHTO  H104 1087   6.153   0.034   2.692
    3CHTO   O34 1088   6.540   9.975   2.284
    3CHTO   C49 1089   6.670   9.886   2.264
    3CHTO   H91 1090   6.753   9.956   2.259
    3CHTO   C47 1091   6.661   9.809   2.130
    3CHTO   H89 1092   6.703   9.878   2.054
    3CHTO   O33 1093   6.524   9.780   2.096
    3CHTO   H70 1094   6.519   9.749   2.008
    3CHTO   C45 1095   6.743   9.669   2.134
    3CHTO   H87 1096   6.676   9.593   2.178
    3CHTO    N8 1097   6.777   9.625   1.996
    3CHTO   H75 1098   6.723   9.536   1.971
    3CHTO   H76 1099   6.884   9.607   1.987
    3CHTO   C43 1100   6.866   9.676   2.236
    3CHTO   H85 1101   6.915   9.578   2.234
    3CHTO   O29 1102   6.819   9.709   2.369
    3CHTO   C50 1103   6.698   9.786   2.381
    3CHTO   H92 1104   6.613   9.716   2.387
    3CHTO   C54 1105   6.697   9.856   2.519
    3CHTO   O36 1106   6.807   9.946   2.535
    3CHTO   H72 1107   6.803   9.985   2.620
    3CHTO   O27 1108   6.966   9.771   2.195
    3CHTO   C37 1109   7.079   9.841   2.142
    3CHTO   H79 1110   7.169   9.819   2.203
    3CHTO   C38 1111   7.112   9.798   1.995
    3CHTO   H80 1112   7.018   9.800   1.937
    3CHTO   O31 1113   7.159   9.662   1.999
    3CHTO   H68 1114   7.090   9.603   2.023
    3CHTO   C39 1115   7.217   9.894   1.927
    3CHTO   H81 1116   7.311   9.884   1.981
    3CHTO    N7 1117   7.245   9.860   1.783
    3CHTO   H73 1118   7.155   9.868   1.725
    3CHTO   H74 1119   7.321   9.926   1.744
    3CHTO   C40 1120   7.168   0.042   1.944
    3CHTO   H82 1121   7.071   0.054   1.894
    3CHTO   O26 1122   7.157   0.069   2.085
    3CHTO   C41 1123   7.051   9.994   2.150
    3CHTO   H83 1124   6.955   0.015   2.100
    3CHTO   C52 1125   7.040   0.042   2.296
    3CHTO   O35 1126   6.999   0.182   2.305
    3CHTO   H71 1127   6.994   0.208   2.395
    3CHTO   O28 1128   7.258   0.143   1.894
    3CHTO   C42 1129   7.206   0.277   1.861
    3CHTO   H84 1130   7.296   0.336   1.846
    3CHTO   C44 1131   7.124   0.349   1.973
    3CHTO   H86 1132   7.041   0.285   2.002
    3CHTO   O32 1133   7.211   0.363   2.087
    3CHTO   H69 1134   7.283   0.420   2.068
    3CHTO   C48 1135   7.063   0.488   1.928
    3CHTO   H90 1136   7.146   0.558   1.913
    3CHTO    N9 1137   6.975   0.549   2.033
    3CHTO   H77 1138   6.969   0.486   2.121
    3CHTO   H78 1139   7.011   0.648   2.060
    3CHTO   C51 1140   6.988   0.470   1.791
    3CHTO   H93 1141   6.904   0.402   1.806
    3CHTO   O30 1142   7.081   0.419   1.694
    3CHTO   C46 1143   7.127   0.278   1.726
    3CHTO   H88 1144   7.040   0.214   1.735
    3CHTO   C53 1145   7.216   0.231   1.609
    3CHTO   O72 1146   7.142   0.223   1.487
    3CHTO  H199 1147   7.080   0.152   1.492
    3CHTO   O22 1148   6.943   0.595   1.735
    3CHTO   C31 1149   6.841   0.596   1.628
    3CHTO   H59 1150   6.840   0.493   1.585
    3CHTO   C29 1151   6.698   0.626   1.677
    3CHTO   H57 1152   6.698   0.725   1.725
    3CHTO   O21 1153   6.664   0.530   1.779
    3CHTO   H37 1154   6.583   0.553   1.819
    3CHTO   C27 1155   6.593   0.626   1.558
    3CHTO   H55 1156   6.586   0.524   1.518
    3CHTO    N5 1157   6.456   0.667   1.601
    3CHTO   H43 1158   6.420   0.751   1.543
    3CHTO   H44 1159   6.453   0.691   1.706
    3CHTO   C25 1160   6.647   0.716   1.442
    3CHTO   H53 1161   6.650   0.821   1.476
    3CHTO   O17 1162   6.783   0.678   1.405
    3CHTO   C32 1163   6.878   0.692   1.511
    3CHTO   H60 1164   6.876   0.795   1.548
    3CHTO   C36 1165   7.020   0.667   1.455
    3CHTO   O25 1166   7.035   0.535   1.400
    3CHTO   H40 1167   7.032   0.471   1.469
    3CHTO   O15 1168   6.557   0.709   1.311
    3CHTO   C19 1169   6.515   0.812   1.217
    3CHTO   H47 1170   6.483   0.756   1.128
    3CHTO   C20 1171   6.394   0.898   1.267
    3CHTO   H48 1172   6.416   0.949   1.362
    3CHTO   O19 1173   6.285   0.807   1.292
    3CHTO   H35 1174   6.257   0.765   1.213
    3CHTO   C21 1175   6.351   1.009   1.161
    3CHTO   H49 1176   6.310   0.959   1.074
    3CHTO    N4 1177   6.244   1.100   1.210
    3CHTO   H41 1178   6.278   1.202   1.215
    3CHTO   H42 1179   6.208   1.070   1.307
    3CHTO   C22 1180   6.477   1.086   1.112
    3CHTO   H50 1181   6.514   1.148   1.194
    3CHTO   O14 1182   6.580   0.995   1.069
    3CHTO   C23 1183   6.629   0.907   1.171
    3CHTO   H51 1184   6.668   0.968   1.254
    3CHTO   C34 1185   6.748   0.829   1.112
    3CHTO   O23 1186   6.857   0.915   1.079
    3CHTO   H38 1187   6.896   0.948   1.157
    3CHTO   O16 1188   6.450   1.165   0.995
    3CHTO   C24 1189   6.547   1.296   0.981
    3CHTO   H52 1190   6.621   1.301   1.062
    3CHTO   C26 1191   6.459   1.423   0.984
    3CHTO   H54 1192   6.382   1.414   0.904
    3CHTO   O20 1193   6.392   1.430   1.111
    3CHTO   H36 1194   6.328   1.361   1.118
    3CHTO   C30 1195   6.543   1.552   0.956
    3CHTO   H58 1196   6.606   1.573   1.043
    3CHTO    N6 1197   6.457   1.672   0.939
    3CHTO   H45 1198   6.400   1.690   1.030
    3CHTO   H46 1199   6.388   1.658   0.857
    3CHTO   C33 1200   6.639   1.534   0.834
    3CHTO   H61 1201   6.580   1.534   0.742
    3CHTO   O18 1202   6.708   1.408   0.843
    3CHTO   C28 1203   6.626   1.291   0.848
    3CHTO   H56 1204   6.555   1.289   0.765
    3CHTO   C35 1205   6.719   1.169   0.839
    3CHTO   O24 1206   6.789   1.163   0.714
    3CHTO   H39 1207   6.851   1.234   0.709
    3CHTO    O9 1208   6.732   1.643   0.819
    3CHTO   C13 1209   6.851   1.654   0.934
    3CHTO   H26 1210   6.811   1.618   1.030
    3CHTO   C11 1211   6.896   1.804   0.942
    3CHTO   H24 1212   6.811   1.863   0.980
    3CHTO    O8 1213   6.928   1.855   0.810
    3CHTO    H3 1214   6.852   1.855   0.756
    3CHTO    C9 1215   7.013   1.814   1.043
    3CHTO   H22 1216   6.975   1.768   1.136
    3CHTO    N2 1217   7.046   1.953   1.081
    3CHTO   H10 1218   7.119   1.953   1.162
    3CHTO   H11 1219   7.086   2.006   0.996
    3CHTO    C7 1220   7.135   1.729   0.992
    3CHTO   H20 1221   7.207   1.731   1.076
    3CHTO    O4 1222   7.098   1.592   0.966
    3CHTO   C14 1223   6.974   1.557   0.901
    3CHTO   H27 1224   6.947   1.457   0.942
    3CHTO   C18 1225   6.996   1.538   0.749
    3CHTO   O13 1226   7.084   1.427   0.724
    3CHTO    H7 1227   7.095   1.417   0.631
    3CHTO    O2 1228   7.205   1.796   0.856
    3CHTO    C1 1229   7.317   1.725   0.800
    3CHTO   H14 1230   7.293   1.617   0.795
    3CHTO    C2 1231   7.454   1.742   0.879
    3CHTO   H15 1232   7.471   1.850   0.890
    3CHTO    O6 1233   7.442   1.683   1.010
    3CHTO    H1 1234   7.519   1.700   1.060
    3CHTO    C3 1235   7.576   1.675   0.797
    3CHTO   H16 1236   7.563   1.566   0.800
    3CHTO    N1 1237   7.711   1.705   0.857
    3CHTO    H8 1238   7.701   1.765   0.946
    3CHTO    H9 1239   7.762   1.612   0.881
    3CHTO    C4 1240   7.571   1.715   0.645
    3CHTO   H17 1241   7.600   1.820   0.635
    3CHTO    O1 1242   7.440   1.694   0.591
    3CHTO    C5 1243   7.339   1.774   0.654
    3CHTO   H18 1244   7.372   1.878   0.659
    3CHTO   C16 1245   7.211   1.766   0.568
    3CHTO   O11 1246   7.230   1.831   0.443
    3CHTO    H5 1247   7.151   1.825   0.392
    3CHTO    O3 1248   7.660   1.632   0.567
    3CHTO    C6 1249   7.682   1.674   0.428
    3CHTO   H19 1250   7.601   1.734   0.389
    3CHTO    C8 1251   7.815   1.756   0.415
    3CHTO   H21 1252   7.896   1.698   0.460
    3CHTO    O7 1253   7.798   1.879   0.487
    3CHTO    H2 1254   7.793   1.862   0.579
    3CHTO   C12 1255   7.849   1.781   0.262
    3CHTO   H25 1256   7.769   1.848   0.223
    3CHTO    N3 1257   7.979   1.855   0.247
    3CHTO   H12 1258   7.964   1.947   0.193
    3CHTO   H13 1259   8.053   1.793   0.196
    3CHTO   C15 1260   7.843   1.645   0.184
    3CHTO   H28 1261   7.923   1.578   0.214
    3CHTO   O10 1262   7.847   1.664   0.030
    3CHTO    H4 1263   7.856   1.580   2.808
    3CHTO    O5 1264   7.715   1.581   0.203
    3CHTO   C10 1265   7.690   1.546   0.340
    3CHTO   H23 1266   7.770   1.482   0.376
    3CHTO   C17 1267   7.560   1.465   0.347
    3CHTO   O12 1268   7.573   1.340   0.278
    3CHTO    H6 1269   7.493   1.292   0.285
    4CHTO  H203 1270   6.476   7.273   2.487
    4CHTO   O82 1271   6.436   7.282   2.571
    4CHTO  C123 1272   6.438   7.419   2.614
    4CHTO  H227 1273   6.386   7.426   2.711
    4CHTO   O77 1274   6.580   7.447   2.632
    4CHTO  C118 1275   6.609   7.578   2.683
    4CHTO  H222 1276   6.552   7.597   2.774
    4CHTO  C125 1277   6.763   7.577   2.718
    4CHTO   O84 1278   6.799   7.687   2.802
    4CHTO  H205 1279   6.793   7.768   2.754
    4CHTO  C114 1280   6.570   7.680   2.573
    4CHTO  H218 1281   6.624   7.656   2.482
    4CHTO  C116 1282   6.416   7.667   2.545
    4CHTO  H220 1283   6.360   7.700   2.635
    4CHTO   O79 1284   6.380   7.759   2.440
    4CHTO  H201 1285   6.424   7.738   2.360
    4CHTO  C120 1286   6.377   7.518   2.508
    4CHTO  H224 1287   6.421   7.498   2.408
    4CHTO   N21 1288   6.230   7.500   2.493
    4CHTO  H211 1289   6.184   7.590   2.456
    4CHTO  H212 1290   6.185   7.473   2.588
    4CHTO   O75 1291   6.605   7.811   2.620
    4CHTO  C112 1292   6.746   7.882   2.555
    4CHTO  H216 1293   6.811   7.802   2.515
    4CHTO   O73 1294   6.809   7.954   2.662
    4CHTO  C113 1295   6.931   8.021   2.627
    4CHTO  H217 1296   7.002   7.947   2.583
    4CHTO  C124 1297   6.994   8.077   2.755
    4CHTO   O83 1298   7.033   7.975   0.027
    4CHTO  H204 1299   7.106   7.926   2.812
    4CHTO  C109 1300   6.900   8.133   2.524
    4CHTO  H213 1301   6.832   8.204   2.572
    4CHTO  C110 1302   6.833   8.069   2.399
    4CHTO  H214 1303   6.907   8.008   2.347
    4CHTO   O78 1304   6.796   8.177   2.311
    4CHTO  H200 1305   6.764   8.143   2.229
    4CHTO  C111 1306   6.709   7.982   2.438
    4CHTO  H215 1307   6.630   8.049   2.475
    4CHTO   N19 1308   6.653   7.909   2.321
    4CHTO  H207 1309   6.567   7.851   2.352
    4CHTO  H208 1310   6.623   7.979   2.245
    4CHTO   O74 1311   7.023   8.203   2.484
    4CHTO  C115 1312   7.031   8.358   2.533
    4CHTO  H219 1313   6.952   8.382   2.604
    4CHTO   O76 1314   7.162   8.386   2.609
    4CHTO  C122 1315   7.277   8.366   2.526
    4CHTO  H226 1316   7.277   8.262   2.494
    4CHTO  C126 1317   7.406   8.384   2.613
    4CHTO   O85 1318   7.418   8.285   2.715
    4CHTO  H206 1319   7.432   8.200   2.677
    4CHTO  C121 1320   7.277   8.462   2.400
    4CHTO  H225 1321   7.361   8.534   2.411
    4CHTO   O81 1322   7.302   8.383   2.282
    4CHTO  H202 1323   7.317   8.439   2.209
    4CHTO  C119 1324   7.144   8.542   2.385
    4CHTO  H223 1325   7.144   8.615   2.466
    4CHTO  C117 1326   7.017   8.449   2.404
    4CHTO  H221 1327   6.999   8.380   2.321
    4CHTO   N20 1328   6.892   8.532   2.410
    4CHTO  H209 1329   6.805   8.468   2.417
    4CHTO  H210 1330   6.884   8.594   2.322
    4CHTO   O80 1331   7.140   8.638   2.254
    4CHTO  C103 1332   7.242   8.759   2.240
    4CHTO  H190 1333   7.281   8.789   2.338
    4CHTO  C101 1334   7.362   8.737   2.140
    4CHTO  H188 1335   7.322   8.693   2.048
    4CHTO   O68 1336   7.463   8.637   2.202
    4CHTO  H168 1337   7.421   8.555   2.218
    4CHTO   C99 1338   7.432   8.875   2.099
    4CHTO  H186 1339   7.477   8.921   2.190
    4CHTO   N17 1340   7.543   8.860   1.999
    4CHTO  H174 1341   7.503   8.823   1.906
    4CHTO  H175 1342   7.594   8.954   1.986
    4CHTO   C97 1343   7.323   8.975   2.051
    4CHTO  H184 1344   7.275   8.932   1.961
    4CHTO   O64 1345   7.228   8.995   2.157
    4CHTO  C104 1346   7.151   8.878   2.189
    4CHTO  H191 1347   7.095   8.845   2.101
    4CHTO  C108 1348   7.045   8.915   2.294
    4CHTO   O71 1349   6.952   9.010   2.242
    4CHTO  H171 1350   6.890   9.033   2.309
    4CHTO   O62 1351   7.373   9.108   2.024
    4CHTO   C91 1352   7.318   9.179   1.911
    4CHTO  H178 1353   7.254   9.111   1.853
    4CHTO   C92 1354   7.435   9.219   1.815
    4CHTO  H179 1355   7.511   9.273   1.874
    4CHTO   O66 1356   7.499   9.099   1.769
    4CHTO  H166 1357   7.543   9.056   1.840
    4CHTO   C93 1358   7.388   9.307   1.692
    4CHTO  H180 1359   7.333   9.240   1.624
    4CHTO   N16 1360   7.500   9.362   1.612
    4CHTO  H172 1361   7.560   9.282   1.572
    4CHTO  H173 1362   7.562   9.426   1.674
    4CHTO   C94 1363   7.291   9.422   1.738
    4CHTO  H181 1364   7.343   9.498   1.798
    4CHTO   O61 1365   7.187   9.369   1.822
    4CHTO   C95 1366   7.234   9.308   1.944
    4CHTO  H182 1367   7.297   9.380   1.997
    4CHTO  C106 1368   7.112   9.277   2.036
    4CHTO   O69 1369   7.044   9.396   2.075
    4CHTO  H169 1370   6.971   9.374   2.130
    4CHTO   O63 1371   7.217   9.497   1.607
    4CHTO   C96 1372   7.122   9.402   1.520
    4CHTO  H183 1373   7.120   9.305   1.568
    4CHTO   C98 1374   7.168   9.383   1.372
    4CHTO  H185 1375   7.220   9.475   1.338
    4CHTO   O67 1376   7.269   9.281   1.372
    4CHTO  H167 1377   7.309   9.274   1.287
    4CHTO  C102 1378   7.051   9.341   1.270
    4CHTO  H189 1379   7.092   9.260   1.208
    4CHTO   N18 1380   7.007   9.445   1.173
    4CHTO  H176 1381   7.090   9.473   1.110
    4CHTO  H177 1382   6.971   9.532   1.227
    4CHTO  C105 1383   6.931   9.282   1.348
    4CHTO  H192 1384   6.848   9.263   1.279
    4CHTO   O65 1385   6.882   9.364   1.457
    4CHTO  C100 1386   6.973   9.456   1.520
    4CHTO  H187 1387   6.970   9.551   1.466
    4CHTO  C107 1388   6.922   9.482   1.664
    4CHTO   O70 1389   6.795   9.548   1.660
    4CHTO  H170 1390   6.766   9.564   1.748
    4CHTO   O57 1391   6.987   9.145   1.396
    4CHTO   C85 1392   6.908   9.059   1.480
    4CHTO  H157 1393   6.804   9.098   1.478
    4CHTO   C83 1394   6.956   9.074   1.629
    4CHTO  H155 1395   6.929   9.174   1.663
    4CHTO   O56 1396   7.100   9.067   1.636
    4CHTO  H135 1397   7.130   8.981   1.611
    4CHTO   C81 1398   6.883   8.970   1.718
    4CHTO  H153 1399   6.776   8.986   1.708
    4CHTO   N14 1400   6.910   8.986   1.864
    4CHTO  H141 1401   6.821   9.016   1.915
    4CHTO  H142 1402   6.987   9.058   1.881
    4CHTO   C79 1403   6.916   8.825   1.666
    4CHTO  H151 1404   6.861   8.755   1.730
    4CHTO   O52 1405   6.862   8.810   1.531
    4CHTO   C86 1406   6.915   8.907   1.435
    4CHTO  H158 1407   7.020   8.875   1.418
    4CHTO   C90 1408   6.843   8.890   1.299
    4CHTO   O60 1409   6.864   8.760   1.244
    4CHTO  H138 1410   6.819   8.696   1.296
    4CHTO   O50 1411   7.055   8.790   1.670
    4CHTO   C73 1412   7.170   8.704   1.677
    4CHTO  H145 1413   7.175   8.657   1.777
    4CHTO   C74 1414   7.300   8.787   1.657
    4CHTO  H146 1415   7.298   8.870   1.729
    4CHTO   O54 1416   7.412   8.704   1.693
    4CHTO  H133 1417   7.492   8.752   1.688
    4CHTO   C75 1418   7.307   8.839   1.507
    4CHTO  H147 1419   7.220   8.903   1.489
    4CHTO   N13 1420   7.425   8.924   1.478
    4CHTO  H139 1421   7.516   8.868   1.495
    4CHTO  H140 1422   7.423   8.957   1.376
    4CHTO   C76 1423   7.296   8.713   1.411
    4CHTO  H148 1424   7.380   8.646   1.433
    4CHTO   O49 1425   7.171   8.643   1.437
    4CHTO   C77 1426   7.161   8.590   1.570
    4CHTO  H149 1427   7.242   8.519   1.588
    4CHTO   C88 1428   7.030   8.510   1.581
    4CHTO   O58 1429   7.027   8.401   1.484
    4CHTO  H136 1430   6.946   8.354   1.493
    4CHTO   O51 1431   7.288   8.751   1.261
    4CHTO   C78 1432   7.347   8.635   1.170
    4CHTO  H150 1433   7.359   8.540   1.228
    4CHTO   C80 1434   7.484   8.677   1.115
    4CHTO  H152 1435   7.473   8.775   1.062
    4CHTO   O55 1436   7.571   8.696   1.228
    4CHTO  H134 1437   7.654   8.731   1.200
    4CHTO   C84 1438   7.541   8.569   1.015
    4CHTO  H156 1439   7.562   8.479   1.073
    4CHTO   N15 1440   7.671   8.611   0.952
    4CHTO  H143 1441   7.657   8.703   0.898
    4CHTO  H144 1442   7.745   8.625   1.027
    4CHTO   C87 1443   7.435   8.534   0.907
    4CHTO  H159 1444   7.421   8.619   0.840
    4CHTO   O53 1445   7.300   8.498   0.975
    4CHTO   C82 1446   7.248   8.605   1.056
    4CHTO  H154 1447   7.231   8.694   0.995
    4CHTO   C89 1448   7.112   8.562   1.114
    4CHTO   O59 1449   7.016   8.538   1.010
    4CHTO  H137 1450   7.040   8.461   0.962
    4CHTO   O45 1451   7.480   8.405   0.816
    4CHTO   C67 1452   7.486   8.279   0.885
    4CHTO  H124 1453   7.443   8.286   0.985
    4CHTO   C65 1454   7.408   8.170   0.804
    4CHTO  H122 1455   7.312   8.215   0.781
    4CHTO   O44 1456   7.387   8.053   0.885
    4CHTO  H102 1457   7.469   8.010   0.902
    4CHTO   C63 1458   7.480   8.148   0.666
    4CHTO  H120 1459   7.490   8.244   0.616
    4CHTO   N11 1460   7.403   8.069   0.565
    4CHTO  H108 1461   7.305   8.111   0.553
    4CHTO  H109 1462   7.454   8.069   0.471
    4CHTO   C61 1463   7.627   8.096   0.693
    4CHTO  H118 1464   7.677   8.103   0.595
    4CHTO   O40 1465   7.701   8.182   0.784
    4CHTO   C68 1466   7.638   8.237   0.905
    4CHTO  H125 1467   7.694   8.330   0.927
    4CHTO   C72 1468   7.661   8.142   1.026
    4CHTO   O48 1469   7.616   8.197   1.150
    4CHTO  H105 1470   7.670   8.270   1.174
    4CHTO   O38 1471   7.630   7.958   0.738
    4CHTO   C55 1472   7.755   7.896   0.774
    4CHTO  H112 1473   7.801   7.956   0.854
    4CHTO   C56 1474   7.853   7.874   0.650
    4CHTO  H113 1475   7.794   7.828   0.569
    4CHTO   O42 1476   7.899   8.001   0.600
    4CHTO  H100 1477   7.827   8.050   0.565
    4CHTO   C57 1478   7.977   7.783   0.688
    4CHTO  H114 1479   8.042   7.842   0.753
    4CHTO   N10 1480   8.059   7.741   0.571
    4CHTO  H106 1481   8.162   7.726   0.602
    4CHTO  H107 1482   8.056   7.817   0.494
    4CHTO   C58 1483   7.929   7.658   0.767
    4CHTO  H115 1484   7.871   7.592   0.699
    4CHTO   O37 1485   7.847   7.697   0.878
    4CHTO   C59 1486   7.724   7.758   0.839
    4CHTO  H116 1487   7.671   7.693   0.768
    4CHTO   C70 1488   7.635   7.774   0.963
    4CHTO   O46 1489   7.596   7.648   1.019
    4CHTO  H103 1490   7.542   7.662   1.094
    4CHTO   O39 1491   8.056   7.574   0.831
    4CHTO   C60 1492   8.012   7.449   0.886
    4CHTO  H117 1493   7.910   7.458   0.921
    4CHTO   C62 1494   8.015   7.337   0.777
    4CHTO  H119 1495   7.955   7.376   0.692
    4CHTO   O43 1496   8.149   7.316   0.730
    4CHTO  H101 1497   8.181   7.392   0.686
    4CHTO   C66 1498   7.944   7.206   0.835
    4CHTO  H123 1499   7.843   7.233   0.868
    4CHTO   N12 1500   7.926   7.100   0.733
    4CHTO  H110 1501   7.821   7.079   0.717
    4CHTO  H111 1502   7.974   7.127   0.640
    4CHTO   C69 1503   8.019   7.155   0.961
    4CHTO  H126 1504   8.118   7.112   0.933
    4CHTO   O41 1505   8.041   7.276   1.066
    4CHTO   C64 1506   8.098   7.406   1.008
    4CHTO  H121 1507   8.203   7.391   0.977
    4CHTO   C71 1508   8.096   7.512   1.121
    4CHTO   O47 1509   8.169   7.630   1.086
    4CHTO  H104 1510   8.165   7.691   1.156
    4CHTO   O34 1511   7.933   7.039   1.037
    4CHTO   C49 1512   7.889   6.892   1.014
    4CHTO   H91 1513   7.905   6.873   0.908
    4CHTO   C47 1514   7.739   6.875   1.046
    4CHTO   H89 1515   7.685   6.922   0.960
    4CHTO   O33 1516   7.703   6.946   1.166
    4CHTO   H70 1517   7.716   7.038   1.155
    4CHTO   C45 1518   7.697   6.720   1.066
    4CHTO   H87 1519   7.702   6.698   1.173
    4CHTO    N8 1520   7.558   6.696   1.020
    4CHTO   H75 1521   7.528   6.596   1.047
    4CHTO   H76 1522   7.552   6.709   0.913
    4CHTO   C43 1523   7.807   6.623   1.001
    4CHTO   H85 1524   7.773   6.521   1.020
    4CHTO   O29 1525   7.936   6.648   1.061
    4CHTO   C50 1526   7.969   6.785   1.094
    4CHTO   H92 1527   7.951   6.801   1.201
    4CHTO   C54 1528   8.121   6.805   1.078
    4CHTO   O36 1529   8.196   6.722   1.167
    4CHTO   H72 1530   8.190   6.633   1.141
    4CHTO   O27 1531   7.812   6.637   0.858
    4CHTO   C37 1532   7.875   6.575   0.745
    4CHTO   H79 1533   7.830   6.613   0.652
    4CHTO   C38 1534   8.026   6.613   0.740
    4CHTO   H80 1535   8.069   6.601   0.841
    4CHTO   O31 1536   8.033   6.753   0.705
    4CHTO   H68 1537   8.122   6.783   0.708
    4CHTO   C39 1538   8.107   6.523   0.639
    4CHTO   H81 1539   8.070   6.543   0.539
    4CHTO    N7 1540   8.254   6.553   0.640
    4CHTO   H73 1541   8.270   6.656   0.612
    4CHTO   H74 1542   8.305   6.488   0.570
    4CHTO   C40 1543   8.076   6.372   0.673
    4CHTO   H82 1544   8.106   6.353   0.776
    4CHTO   O26 1545   7.935   6.351   0.654
    4CHTO   C41 1546   7.854   6.421   0.752
    4CHTO   H83 1547   7.879   6.385   0.853
    4CHTO   C52 1548   7.705   6.386   0.725
    4CHTO   O35 1549   7.676   6.241   0.737
    4CHTO   H71 1550   7.689   6.213   0.825
    4CHTO   O28 1551   8.145   6.278   0.587
    4CHTO   C42 1552   8.162   6.137   0.625
    4CHTO   H84 1553   8.229   6.098   0.548
    4CHTO   C44 1554   8.033   6.048   0.617
    4CHTO   H86 1555   7.959   6.089   0.687
    4CHTO   O32 1556   7.982   6.061   0.483
    4CHTO   H69 1557   7.900   6.016   0.475
    4CHTO   C48 1558   8.061   5.897   0.657
    4CHTO   H90 1559   8.128   5.854   0.583
    4CHTO    N9 1560   7.937   5.811   0.654
    4CHTO   H77 1561   7.915   5.770   0.751
    4CHTO   H78 1562   7.852   5.867   0.616
    4CHTO   C51 1563   8.132   5.895   0.797
    4CHTO   H93 1564   8.064   5.940   0.870
    4CHTO   O30 1565   8.255   5.968   0.787
    4CHTO   C46 1566   8.233   6.116   0.762
    4CHTO   H88 1567   8.170   6.155   0.842
    4CHTO   C53 1568   8.372   6.185   0.765
    4CHTO   O72 1569   8.432   6.174   0.895
    4CHTO  H199 1570   8.515   6.218   0.894
    4CHTO   O22 1571   8.172   5.763   0.840
    4CHTO   C31 1572   8.198   5.743   0.984
    4CHTO   H59 1573   8.217   5.844   1.028
    4CHTO   C29 1574   8.082   5.680   1.063
    4CHTO   H57 1575   8.069   5.576   1.030
    4CHTO   O21 1576   7.960   5.750   1.031
    4CHTO   H37 1577   7.886   5.706   1.068
    4CHTO   C27 1578   8.111   5.683   1.219
    4CHTO   H55 1579   8.107   5.787   1.252
    4CHTO    N5 1580   8.012   5.605   1.298
    4CHTO   H43 1581   7.952   5.671   1.358
    4CHTO   H44 1582   7.950   5.544   1.234
    4CHTO   C25 1583   8.258   5.634   1.252
    4CHTO   H53 1584   8.261   5.524   1.258
    4CHTO   O17 1585   8.359   5.671   1.153
    4CHTO   C32 1586   8.326   5.659   1.014
    4CHTO   H60 1587   8.306   5.554   0.992
    4CHTO   C36 1588   8.448   5.703   0.930
    4CHTO   O25 1589   8.486   5.839   0.954
    4CHTO   H40 1590   8.420   5.897   0.922
    4CHTO   O15 1591   8.302   5.696   1.393
    4CHTO   C19 1592   8.325   5.830   1.447
    4CHTO   H47 1593   8.417   5.817   1.504
    4CHTO   C20 1594   8.348   5.943   1.341
    4CHTO   H48 1595   8.262   5.954   1.273
    4CHTO   O19 1596   8.462   5.904   1.261
    4CHTO   H35 1597   8.539   5.900   1.313
    4CHTO   C21 1598   8.375   6.084   1.408
    4CHTO   H49 1599   8.468   6.079   1.463
    4CHTO    N4 1600   8.391   6.195   1.310
    4CHTO   H41 1601   8.382   6.159   1.208
    4CHTO   H42 1602   8.318   6.273   1.326
    4CHTO   C22 1603   8.263   6.111   1.512
    4CHTO   H50 1604   8.168   6.119   1.459
    4CHTO   O14 1605   8.257   6.002   1.606
    4CHTO   C23 1606   8.217   5.877   1.550
    4CHTO   H51 1607   8.118   5.890   1.502
    4CHTO   C34 1608   8.202   5.780   1.667
    4CHTO   O23 1609   8.131   5.662   1.629
    4CHTO   H38 1610   8.123   5.604   1.702
    4CHTO   O16 1611   8.287   6.228   1.593
    4CHTO   C24 1612   8.158   6.328   1.606
    4CHTO   H52 1613   8.076   6.297   1.541
    4CHTO   C26 1614   8.201   6.471   1.571
    4CHTO   H54 1615   8.289   6.499   1.635
    4CHTO   O20 1616   8.243   6.474   1.434
    4CHTO   H36 1617   8.323   6.427   1.423
    4CHTO   C30 1618   8.087   6.574   1.599
    4CHTO   H58 1619   8.007   6.559   1.526
    4CHTO    N6 1620   8.132   6.716   1.578
    4CHTO   H45 1621   8.235   6.720   1.547
    4CHTO   H46 1622   8.120   6.774   1.668
    4CHTO   C33 1623   8.023   6.552   1.740
    4CHTO   H61 1624   8.095   6.582   1.818
    4CHTO   O18 1625   7.991   6.413   1.759
    4CHTO   C28 1626   8.104   6.324   1.751
    4CHTO   H56 1627   8.182   6.356   1.819
    4CHTO   C35 1628   8.058   6.183   1.795
    4CHTO   O24 1629   7.954   6.129   1.713
    4CHTO   H39 1630   7.875   6.178   1.727
    4CHTO    O9 1631   7.907   6.635   1.760
    4CHTO   C13 1632   7.848   6.632   1.912
    4CHTO   H26 1633   7.859   6.529   1.951
    4CHTO   C11 1634   7.697   6.678   1.909
    4CHTO   H24 1635   7.640   6.600   1.856
    4CHTO    O8 1636   7.684   6.800   1.833
    4CHTO    H3 1637   7.594   6.823   1.824
    4CHTO    C9 1638   7.645   6.688   2.055
    4CHTO   H22 1639   7.665   6.590   2.100
    4CHTO    N2 1640   7.498   6.705   2.065
    4CHTO   H10 1641   7.448   6.625   2.012
    4CHTO   H11 1642   7.469   6.801   2.025
    4CHTO    C7 1643   7.727   6.798   2.132
    4CHTO   H20 1644   7.692   6.789   2.237
    4CHTO    O4 1645   7.869   6.771   2.129
    4CHTO   C14 1646   7.935   6.724   2.010
    4CHTO   H27 1647   8.018   6.660   2.047
    4CHTO   C18 1648   8.001   6.844   1.937
    4CHTO   O13 1649   8.108   6.898   2.015
    4CHTO    H7 1650   8.146   6.970   1.969
    4CHTO    O2 1651   7.696   6.954   2.073
    4CHTO    C1 1652   7.725   7.071   2.152
    4CHTO   H14 1653   7.669   7.155   2.107
    4CHTO    C2 1654   7.879   7.109   2.156
    4CHTO   H15 1655   7.933   7.019   2.188
    4CHTO    O6 1656   7.918   7.145   2.022
    4CHTO    H1 1657   7.917   7.070   1.966
    4CHTO    C3 1658   7.909   7.232   2.255
    4CHTO   H16 1659   7.874   7.324   2.208
    4CHTO    N1 1660   8.057   7.250   2.276
    4CHTO    H8 1661   8.100   7.161   2.318
    4CHTO    H9 1662   8.105   7.273   2.182
    4CHTO    C4 1663   7.830   7.219   2.390
    4CHTO   H17 1664   7.879   7.146   2.455
    4CHTO    O1 1665   7.693   7.183   2.368
    4CHTO    C5 1666   7.672   7.059   2.299
    4CHTO   H18 1667   7.725   6.979   2.349
    4CHTO   C16 1668   7.520   7.028   2.301
    4CHTO   O11 1669   7.470   7.017   2.435
    4CHTO    H5 1670   7.505   6.941   2.476
    4CHTO    O3 1671   7.821   7.348   2.454
    4CHTO    C6 1672   7.844   7.356   2.599
    4CHTO   H19 1673   7.855   7.258   2.646
    4CHTO    C8 1674   7.975   7.437   2.626
    4CHTO   H21 1675   7.972   7.527   2.564
    4CHTO    O7 1676   8.085   7.354   2.585
    4CHTO    H2 1677   8.165   7.402   2.589
    4CHTO   C12 1678   7.989   7.480   2.778
    4CHTO   H25 1679   8.007   7.386   0.015
    4CHTO    N3 1680   8.109   7.568   2.799
    4CHTO   H12 1681   8.099   7.659   2.741
    4CHTO   H13 1682   8.119   7.591   0.084
    4CHTO   C15 1683   7.854   7.543   0.007
    4CHTO   H28 1684   7.835   7.638   2.777
    4CHTO   O10 1685   7.851   7.565   0.159
    4CHTO    H4 1686   7.775   7.613   0.183
    4CHTO    O5 1687   7.745   7.452   2.805
    4CHTO   C10 1688   7.721   7.424   2.666
    4CHTO   H23 1689   7.699   7.518   2.615
    4CHTO   C17 1690   7.596   7.336   2.655
    4CHTO   O12 1691   7.479   7.404   2.702
    4CHTO    H6 1692   7.405   7.347   2.696
    5CHTO  H203 1693   8.807   3.096   2.038
    5CHTO   O82 1694   8.739   3.160   2.034
    5CHTO  C123 1695   8.632   3.113   1.949
    5CHTO  H227 1696   8.675   3.073   1.856
    5CHTO   O77 1697   8.573   3.004   2.027
    5CHTO  C118 1698   8.461   2.940   1.964
    5CHTO  H222 1699   8.490   2.903   1.865
    5CHTO  C125 1700   8.419   2.817   2.054
    5CHTO   O84 1701   8.525   2.720   2.062
    5CHTO  H205 1702   8.537   2.679   1.978
    5CHTO  C114 1703   8.347   3.042   1.950
    5CHTO  H218 1704   8.324   3.082   2.049
    5CHTO  C116 1705   8.393   3.162   1.862
    5CHTO  H220 1706   8.411   3.126   1.758
    5CHTO   O79 1707   8.286   3.258   1.853
    5CHTO  H201 1708   8.267   3.294   1.938
    5CHTO  C120 1709   8.525   3.226   1.921
    5CHTO  H224 1710   8.496   3.273   2.016
    5CHTO   N21 1711   8.580   3.334   1.834
    5CHTO  H211 1712   8.500   3.385   1.783
    5CHTO  H212 1713   8.649   3.293   1.762
    5CHTO   O75 1714   8.234   2.969   1.898
    5CHTO  C112 1715   8.078   3.013   1.957
    5CHTO  H216 1716   8.011   3.023   1.870
    5CHTO   O73 1717   8.088   3.137   2.030
    5CHTO  C113 1718   7.960   3.192   2.063
    5CHTO  H217 1719   7.903   3.208   1.970
    5CHTO  C124 1720   7.983   3.330   2.127
    5CHTO   O83 1721   8.045   3.423   2.037
    5CHTO  H204 1722   7.986   3.445   1.968
    5CHTO  C109 1723   7.879   3.099   2.157
    5CHTO  H213 1724   7.927   3.104   2.256
    5CHTO  C110 1725   7.879   2.950   2.107
    5CHTO  H214 1726   7.805   2.941   2.027
    5CHTO   O78 1727   7.833   2.866   2.214
    5CHTO  H200 1728   7.824   2.778   2.184
    5CHTO  C111 1729   8.019   2.905   2.055
    5CHTO  H215 1730   8.088   2.896   2.141
    5CHTO   N19 1731   8.017   2.772   1.989
    5CHTO  H207 1732   7.949   2.773   1.905
    5CHTO  H208 1733   7.987   2.696   2.059
    5CHTO   O74 1734   7.742   3.149   2.167
    5CHTO  C115 1735   7.678   3.141   2.313
    5CHTO  H219 1736   7.729   3.067   2.375
    5CHTO   O76 1737   7.696   3.279   2.393
    5CHTO  C122 1738   7.603   3.381   2.352
    5CHTO  H226 1739   7.626   3.405   2.248
    5CHTO  C126 1740   7.633   3.512   2.433
    5CHTO   O85 1741   7.619   3.495   2.575
    5CHTO  H206 1742   7.528   3.481   2.596
    5CHTO  C121 1743   7.451   3.336   2.366
    5CHTO  H225 1744   7.404   3.395   2.448
    5CHTO   O81 1745   7.382   3.371   2.245
    5CHTO  H202 1746   7.290   3.358   2.256
    5CHTO  C119 1747   7.439   3.184   2.400
    5CHTO  H223 1748   7.489   3.173   2.496
    5CHTO  C117 1749   7.525   3.101   2.297
    5CHTO  H221 1750   7.501   3.118   2.192
    5CHTO   N20 1751   7.507   2.954   2.318
    5CHTO  H209 1752   7.563   2.899   2.244
    5CHTO  H210 1753   7.540   2.926   2.417
    5CHTO   O80 1754   7.283   3.132   2.439
    5CHTO  C103 1755   7.160   3.157   2.340
    5CHTO  H190 1756   7.183   3.232   2.265
    5CHTO  C101 1757   7.106   3.028   2.268
    5CHTO  H188 1758   7.093   2.949   2.342
    5CHTO   O68 1759   7.210   2.981   2.169
    5CHTO  H168 1760   7.220   3.045   2.100
    5CHTO   C99 1761   6.964   3.054   2.198
    5CHTO  H186 1762   6.976   3.133   2.120
    5CHTO   N17 1763   6.906   2.933   2.131
    5CHTO  H174 1764   6.815   2.960   2.079
    5CHTO  H175 1765   6.888   2.855   2.203
    5CHTO   C97 1766   6.867   3.114   2.304
    5CHTO  H184 1767   6.852   3.039   2.383
    5CHTO   O64 1768   6.924   3.236   2.356
    5CHTO  C104 1769   7.045   3.216   2.432
    5CHTO  H191 1770   7.028   3.149   2.517
    5CHTO  C108 1771   7.082   3.353   2.492
    5CHTO   O71 1772   7.181   3.344   2.595
    5CHTO  H171 1773   7.264   3.318   2.557
    5CHTO   O62 1774   6.741   3.155   2.247
    5CHTO   C91 1775   6.621   3.138   2.327
    5CHTO  H178 1776   6.649   3.145   2.432
    5CHTO   C92 1777   6.563   2.994   2.305
    5CHTO  H179 1778   6.561   2.973   2.197
    5CHTO   O66 1779   6.655   2.898   2.361
    5CHTO  H166 1780   6.627   2.811   2.342
    5CHTO   C93 1781   6.418   2.976   2.367
    5CHTO  H180 1782   6.427   2.986   2.476
    5CHTO   N16 1783   6.358   2.843   2.342
    5CHTO  H172 1784   6.260   2.837   2.388
    5CHTO  H173 1785   6.422   2.765   2.382
    5CHTO   C94 1786   6.328   3.093   2.313
    5CHTO  H181 1787   6.327   3.096   2.204
    5CHTO   O61 1788   6.384   3.217   2.358
    5CHTO   C95 1789   6.511   3.248   2.298
    5CHTO  H182 1790   6.497   3.257   2.190
    5CHTO  C106 1791   6.555   3.390   2.349
    5CHTO   O69 1792   6.570   3.394   2.491
    5CHTO  H169 1793   6.596   3.480   2.517
    5CHTO   O63 1794   6.175   3.086   2.369
    5CHTO   C96 1795   6.069   3.080   2.250
    5CHTO  H183 1796   6.113   3.020   2.170
    5CHTO   C98 1797   6.027   3.217   2.190
    5CHTO  H185 1798   5.989   3.282   2.270
    5CHTO   O67 1799   6.145   3.283   2.140
    5CHTO  H167 1800   6.182   3.234   2.069
    5CHTO  C102 1801   5.917   3.201   2.073
    5CHTO  H189 1802   5.972   3.160   1.987
    5CHTO   N18 1803   5.856   3.328   2.026
    5CHTO  H176 1804   5.897   3.412   2.080
    5CHTO  H177 1805   5.872   3.341   1.920
    5CHTO  C105 1806   5.808   3.096   2.111
    5CHTO  H192 1807   5.731   3.144   2.173
    5CHTO   O65 1808   5.857   2.981   2.182
    5CHTO  C100 1809   5.939   3.007   2.297
    5CHTO  H187 1810   5.883   3.073   2.366
    5CHTO  C107 1811   5.967   2.874   2.370
    5CHTO   O70 1812   5.847   2.817   2.422
    5CHTO  H170 1813   5.866   2.735   2.463
    5CHTO   O57 1814   5.747   3.047   1.968
    5CHTO   C85 1815   5.618   2.984   1.956
    5CHTO  H157 1816   5.546   3.053   2.006
    5CHTO   C83 1817   5.613   2.850   2.037
    5CHTO  H155 1818   5.619   2.875   2.144
    5CHTO   O56 1819   5.730   2.771   2.008
    5CHTO  H135 1820   5.729   2.743   1.918
    5CHTO   C81 1821   5.478   2.777   2.010
    5CHTO  H153 1822   5.397   2.846   2.035
    5CHTO   N14 1823   5.455   2.659   2.097
    5CHTO  H141 1824   5.541   2.637   2.157
    5CHTO  H142 1825   5.371   2.675   2.161
    5CHTO   C79 1826   5.468   2.744   1.857
    5CHTO  H151 1827   5.372   2.694   1.841
    5CHTO   O52 1828   5.465   2.869   1.782
    5CHTO   C86 1829   5.579   2.957   1.805
    5CHTO  H158 1830   5.663   2.908   1.752
    5CHTO   C90 1831   5.557   3.092   1.732
    5CHTO   O60 1832   5.549   3.074   1.591
    5CHTO  H138 1833   5.536   3.157   1.549
    5CHTO   O50 1834   5.574   2.659   1.808
    5CHTO   C73 1835   5.599   2.548   1.720
    5CHTO  H145 1836   5.529   2.551   1.635
    5CHTO   C74 1837   5.577   2.414   1.797
    5CHTO  H146 1838   5.475   2.415   1.837
    5CHTO   O54 1839   5.582   2.307   1.701
    5CHTO  H133 1840   5.563   2.225   1.743
    5CHTO   C75 1841   5.686   2.401   1.911
    5CHTO  H147 1842   5.674   2.487   1.979
    5CHTO   N13 1843   5.672   2.280   1.995
    5CHTO  H139 1844   5.655   2.307   2.098
    5CHTO  H140 1845   5.589   2.219   1.962
    5CHTO   C76 1846   5.832   2.413   1.846
    5CHTO  H148 1847   5.845   2.329   1.777
    5CHTO   O49 1848   5.842   2.539   1.772
    5CHTO   C77 1849   5.745   2.554   1.666
    5CHTO  H149 1850   5.759   2.474   1.593
    5CHTO   C88 1851   5.776   2.685   1.592
    5CHTO   O58 1852   5.683   2.707   1.476
    5CHTO  H136 1853   5.698   2.642   1.410
    5CHTO   O51 1854   5.948   2.419   1.960
    5CHTO   C78 1855   6.098   2.423   1.900
    5CHTO  H150 1856   6.098   2.459   1.795
    5CHTO   C80 1857   6.161   2.282   1.905
    5CHTO  H152 1858   6.152   2.242   2.009
    5CHTO   O55 1859   6.083   2.198   1.818
    5CHTO  H134 1860   6.111   2.109   1.824
    5CHTO   C84 1861   6.313   2.283   1.862
    5CHTO  H156 1862   6.317   2.308   1.755
    5CHTO   N15 1863   6.379   2.149   1.877
    5CHTO  H143 1864   6.378   2.119   1.980
    5CHTO  H144 1865   6.481   2.154   1.844
    5CHTO   C87 1866   6.391   2.393   1.939
    5CHTO  H159 1867   6.402   2.365   2.044
    5CHTO   O53 1868   6.315   2.528   1.927
    5CHTO   C82 1869   6.183   2.522   1.983
    5CHTO  H154 1870   6.188   2.492   2.088
    5CHTO   C89 1871   6.125   2.665   1.979
    5CHTO   O59 1872   6.007   2.679   2.059
    5CHTO  H137 1873   6.029   2.670   2.150
    5CHTO   O45 1874   6.540   2.416   1.871
    5CHTO   C67 1875   6.647   2.438   1.964
    5CHTO  H124 1876   6.607   2.449   2.065
    5CHTO   C65 1877   6.747   2.316   1.963
    5CHTO  H122 1878   6.734   2.267   1.867
    5CHTO   O44 1879   6.704   2.226   2.067
    5CHTO  H102 1880   6.724   2.262   2.151
    5CHTO   C63 1881   6.899   2.362   1.964
    5CHTO  H120 1882   6.923   2.401   1.865
    5CHTO   N11 1883   7.000   2.252   1.977
    5CHTO  H108 1884   7.098   2.290   1.961
    5CHTO  H109 1885   6.979   2.174   1.906
    5CHTO   C61 1886   6.918   2.482   2.064
    5CHTO  H118 1887   7.022   2.515   2.053
    5CHTO   O40 1888   6.834   2.595   2.027
    5CHTO   C68 1889   6.723   2.573   1.934
    5CHTO  H125 1890   6.764   2.570   1.831
    5CHTO   C72 1891   6.629   2.695   1.941
    5CHTO   O48 1892   6.574   2.717   2.072
    5CHTO  H105 1893   6.519   2.793   2.071
    5CHTO   O38 1894   6.895   2.441   2.201
    5CHTO   C55 1895   6.873   2.540   2.303
    5CHTO  H112 1896   6.810   2.621   2.264
    5CHTO   C56 1897   7.009   2.595   2.364
    5CHTO  H113 1898   7.067   2.508   2.398
    5CHTO   O42 1899   7.086   2.660   2.262
    5CHTO  H100 1900   7.113   2.597   2.197
    5CHTO   C57 1901   6.981   2.693   2.486
    5CHTO  H114 1902   6.934   2.783   2.444
    5CHTO   N10 1903   7.103   2.738   2.557
    5CHTO  H106 1904   7.186   2.746   2.487
    5CHTO  H107 1905   7.130   2.669   2.635
    5CHTO   C58 1906   6.881   2.627   2.586
    5CHTO  H115 1907   6.932   2.543   2.637
    5CHTO   O37 1908   6.765   2.577   2.518
    5CHTO   C59 1909   6.790   2.477   2.419
    5CHTO  H116 1910   6.845   2.394   2.464
    5CHTO   C70 1911   6.655   2.422   2.370
    5CHTO   O46 1912   6.568   2.522   2.316
    5CHTO  H103 1913   6.603   2.556   2.236
    5CHTO   O39 1914   6.831   2.741   2.704
    5CHTO   C60 1915   6.693   2.781   2.697
    5CHTO  H117 1916   6.663   2.788   2.593
    5CHTO   C62 1917   6.601   2.676   2.767
    5CHTO  H119 1918   6.621   2.578   2.718
    5CHTO   O43 1919   6.636   2.663   0.086
    5CHTO  H101 1920   6.722   2.628   0.095
    5CHTO   C66 1921   6.448   2.715   2.742
    5CHTO  H123 1922   6.431   2.726   2.634
    5CHTO   N12 1923   6.353   2.611   2.788
    5CHTO  H110 1924   6.370   2.519   2.734
    5CHTO  H111 1925   6.363   2.596   0.074
    5CHTO   C69 1926   6.420   2.853   2.807
    5CHTO  H126 1927   6.436   2.846   0.097
    5CHTO   O41 1928   6.521   2.961   2.747
    5CHTO   C64 1929   6.670   2.922   2.760
    5CHTO  H121 1930   6.699   2.920   0.048
    5CHTO   C71 1931   6.753   3.032   2.690
    5CHTO   O47 1932   6.893   3.020   2.714
    5CHTO  H104 1933   6.912   3.040   2.804
    5CHTO   O34 1934   6.271   2.901   2.780
    5CHTO   C49 1935   6.175   2.986   0.043
    5CHTO   H91 1936   6.092   2.921   0.071
    5CHTO   C47 1937   6.124   3.101   2.774
    5CHTO   H89 1938   6.045   3.154   0.013
    5CHTO   O33 1939   6.063   3.046   2.656
    5CHTO   H70 1940   6.127   3.004   2.603
    5CHTO   C45 1941   6.247   3.201   2.744
    5CHTO   H87 1942   6.329   3.142   2.700
    5CHTO    N8 1943   6.212   3.310   2.649
    5CHTO   H75 1944   6.107   3.307   2.623
    5CHTO   H76 1945   6.271   3.301   2.559
    5CHTO   C43 1946   6.304   3.257   0.063
    5CHTO   H85 1947   6.392   3.317   0.039
    5CHTO   O29 1948   6.337   3.149   0.153
    5CHTO   C50 1949   6.242   3.042   0.172
    5CHTO   H92 1950   6.296   2.958   0.218
    5CHTO   C54 1951   6.136   3.076   0.280
    5CHTO   O36 1952   6.197   3.091   0.409
    5CHTO   H72 1953   6.131   3.111   0.472
    5CHTO   O27 1954   6.213   3.347   0.128
    5CHTO   C37 1955   6.133   3.443   0.200
    5CHTO   H79 1956   6.146   3.543   0.157
    5CHTO   C38 1957   5.982   3.408   0.187
    5CHTO   H80 1958   5.968   3.301   0.208
    5CHTO   O31 1959   5.943   3.433   0.050
    5CHTO   H68 1960   5.984   3.371   2.813
    5CHTO   C39 1961   5.894   3.492   0.287
    5CHTO   H81 1962   5.898   3.595   0.253
    5CHTO    N7 1963   5.749   3.452   0.288
    5CHTO   H73 1964   5.693   3.514   0.356
    5CHTO   H74 1965   5.740   3.348   0.317
    5CHTO   C40 1966   5.956   3.486   0.432
    5CHTO   H82 1967   5.953   3.383   0.466
    5CHTO   O26 1968   6.091   3.536   0.426
    5CHTO   C41 1969   6.178   3.447   0.349
    5CHTO   H83 1970   6.172   3.346   0.392
    5CHTO   C52 1971   6.325   3.494   0.365
    5CHTO   O35 1972   6.347   3.630   0.315
    5CHTO   H71 1973   6.437   3.653   0.325
    5CHTO   O28 1974   5.888   3.570   0.528
    5CHTO   C42 1975   5.882   3.526   0.668
    5CHTO   H84 1976   5.835   3.610   0.719
    5CHTO   C44 1977   6.022   3.506   0.738
    5CHTO   H86 1978   6.084   3.443   0.674
    5CHTO   O32 1979   6.084   3.636   0.745
    5CHTO   H69 1980   6.107   3.666   0.659
    5CHTO   C48 1981   6.012   3.435   0.879
    5CHTO   H90 1982   5.960   3.502   0.948
    5CHTO    N9 1983   6.148   3.410   0.938
    5CHTO   H77 1984   6.165   3.304   0.954
    5CHTO   H78 1985   6.159   3.464   1.031
    5CHTO   C51 1986   5.926   3.305   0.859
    5CHTO   H93 1987   5.972   3.249   0.777
    5CHTO   O30 1988   5.794   3.349   0.827
    5CHTO   C46 1989   5.787   3.402   0.687
    5CHTO   H88 1990   5.816   3.323   0.618
    5CHTO   C53 1991   5.640   3.442   0.660
    5CHTO   O72 1992   5.552   3.329   0.665
    5CHTO  H199 1993   5.568   3.273   0.591
    5CHTO   O22 1994   5.912   3.222   0.976
    5CHTO   C31 1995   5.896   3.075   0.959
    5CHTO   H59 1996   5.883   3.035   1.062
    5CHTO   C29 1997   5.770   3.034   0.879
    5CHTO   H57 1998   5.774   3.087   0.782
    5CHTO   O21 1999   5.654   3.082   0.949
    5CHTO   H37 2000   5.577   3.071   0.896
    5CHTO   C27 2001   5.765   2.878   0.850
    5CHTO   H55 2002   5.754   2.825   0.946
    5CHTO    N5 2003   5.652   2.839   0.762
    5CHTO   H43 2004   5.650   2.732   0.749
    5CHTO   H44 2005   5.661   2.888   0.666
    5CHTO   C25 2006   5.902   2.836   0.787
    5CHTO   H53 2007   5.918   2.896   0.696
    5CHTO   O17 2008   6.005   2.866   0.884
    5CHTO   C32 2009   6.024   3.007   0.903
    5CHTO   H60 2010   6.049   3.052   0.807
    5CHTO   C36 2011   6.145   3.025   0.998
    5CHTO   O25 2012   6.264   2.973   0.938
    5CHTO   H40 2013   6.290   3.027   0.866
    5CHTO   O15 2014   5.912   2.676   0.747
    5CHTO   C19 2015   6.041   2.607   0.735
    5CHTO   H47 2016   6.109   2.663   0.801
    5CHTO   C20 2017   6.040   2.459   0.782
    5CHTO   H48 2018   5.979   2.395   0.715
    5CHTO   O19 2019   5.980   2.457   0.913
    5CHTO   H35 2020   5.968   2.368   0.942
    5CHTO   C21 2021   6.187   2.401   0.786
    5CHTO   H49 2022   6.242   2.453   0.864
    5CHTO    N4 2023   6.193   2.257   0.822
    5CHTO   H41 2024   6.296   2.224   0.826
    5CHTO   H42 2025   6.140   2.198   0.748
    5CHTO   C22 2026   6.262   2.432   0.653
    5CHTO   H50 2027   6.229   2.362   0.575
    5CHTO   O14 2028   6.243   2.566   0.607
    5CHTO   C23 2029   6.107   2.610   0.594
    5CHTO   H51 2030   6.056   2.541   0.524
    5CHTO   C34 2031   6.108   2.749   0.530
    5CHTO   O23 2032   6.161   2.745   0.397
    5CHTO   H38 2033   6.159   2.831   0.360
    5CHTO   O16 2034   6.405   2.424   0.671
    5CHTO   C24 2035   6.488   2.367   0.543
    5CHTO   H52 2036   6.423   2.350   0.457
    5CHTO   C26 2037   6.554   2.234   0.586
    5CHTO   H54 2038   6.608   2.251   0.682
    5CHTO   O20 2039   6.450   2.138   0.611
    5CHTO   H36 2040   6.403   2.118   0.533
    5CHTO   C30 2041   6.658   2.184   0.480
    5CHTO   H58 2042   6.606   2.155   0.388
    5CHTO    N6 2043   6.729   2.062   0.528
    5CHTO   H45 2044   6.785   2.084   0.617
    5CHTO   H46 2045   6.797   2.027   0.451
    5CHTO   C33 2046   6.755   2.300   0.444
    5CHTO   H61 2047   6.810   2.330   0.535
    5CHTO   O18 2048   6.678   2.413   0.399
    5CHTO   C28 2049   6.594   2.471   0.500
    5CHTO   H56 2050   6.653   2.500   0.587
    5CHTO   C35 2051   6.527   2.597   0.441
    5CHTO   O24 2052   6.623   2.698   0.405
    5CHTO   H39 2053   6.578   2.771   0.367
    5CHTO    O9 2054   6.858   2.264   0.349
    5CHTO   C13 2055   6.810   2.245   0.195
    5CHTO   H26 2056   6.700   2.240   0.192
    5CHTO   C11 2057   6.875   2.112   0.139
    5CHTO   H24 2058   6.828   2.027   0.191
    5CHTO    O8 2059   7.016   2.109   0.169
    5CHTO    H3 2060   7.029   2.106   0.262
    5CHTO    C9 2061   6.843   2.100   2.807
    5CHTO   H22 2062   6.734   2.105   2.799
    5CHTO    N2 2063   6.880   1.969   2.748
    5CHTO   H10 2064   6.834   1.889   2.803
    5CHTO   H11 2065   6.849   1.966   2.644
    5CHTO    C7 2066   6.905   2.223   2.731
    5CHTO   H20 2067   6.865   2.214   2.628
    5CHTO    O4 2068   6.859   2.349   2.785
    5CHTO   C14 2069   6.850   2.372   0.107
    5CHTO   H27 2070   6.769   2.446   0.120
    5CHTO   C18 2071   6.980   2.440   0.157
    5CHTO   O13 2072   6.995   2.570   0.098
    5CHTO    H7 2073   7.074   2.610   0.129
    5CHTO    O2 2074   7.073   2.221   2.731
    5CHTO    C1 2075   7.139   2.280   2.617
    5CHTO   H14 2076   7.092   2.378   2.595
    5CHTO    C2 2077   7.136   2.191   2.485
    5CHTO   H15 2078   7.169   2.091   2.516
    5CHTO    O6 2079   7.002   2.185   2.435
    5CHTO    H1 2080   6.997   2.125   2.363
    5CHTO    C3 2081   7.234   2.249   2.370
    5CHTO   H16 2082   7.186   2.338   2.327
    5CHTO    N1 2083   7.253   2.151   2.257
    5CHTO    H8 2084   7.295   2.059   2.295
    5CHTO    H9 2085   7.158   2.132   2.210
    5CHTO    C4 2086   7.372   2.298   2.429
    5CHTO   H17 2087   7.435   2.212   2.449
    5CHTO    O1 2088   7.354   2.376   2.548
    5CHTO    C5 2089   7.287   2.308   2.655
    5CHTO   H18 2090   7.336   2.212   2.674
    5CHTO   C16 2091   7.301   2.396   2.782
    5CHTO   O11 2092   7.437   2.409   0.003
    5CHTO    H5 2093   7.485   2.461   2.761
    5CHTO    O3 2094   7.435   2.389   2.336
    5CHTO    C6 2095   7.582   2.392   2.337
    5CHTO   H19 2096   7.625   2.338   2.422
    5CHTO    C8 2097   7.636   2.327   2.205
    5CHTO   H21 2098   7.586   2.374   2.120
    5CHTO    O7 2099   7.602   2.187   2.210
    5CHTO    H2 2100   7.624   2.145   2.129
    5CHTO   C12 2101   7.792   2.348   2.190
    5CHTO   H25 2102   7.840   2.286   2.269
    5CHTO    N3 2103   7.843   2.297   2.058
    5CHTO   H12 2104   7.950   2.309   2.052
    5CHTO   H13 2105   7.794   2.350   1.977
    5CHTO   C15 2106   7.829   2.499   2.216
    5CHTO   H28 2107   7.794   2.563   2.135
    5CHTO   O10 2108   7.982   2.521   2.238
    5CHTO    H4 2109   8.014   2.465   2.306
    5CHTO    O5 2110   7.774   2.543   2.342
    5CHTO   C10 2111   7.631   2.539   2.347
    5CHTO   H23 2112   7.591   2.599   2.265
    5CHTO   C17 2113   7.592   2.608   2.479
    5CHTO   O12 2114   7.452   2.641   2.483
    5CHTO    H6 2115   7.434   2.709   2.421
    6CHTO  H203 2116   7.600   4.818   0.653
    6CHTO   O82 2117   7.517   4.776   0.636
    6CHTO  C123 2118   7.412   4.874   0.635
    6CHTO  H227 2119   7.434   4.949   0.558
    6CHTO   O77 2120   7.295   4.796   0.598
    6CHTO  C118 2121   7.175   4.873   0.584
    6CHTO  H222 2122   7.191   4.956   0.513
    6CHTO  C125 2123   7.062   4.779   0.526
    6CHTO   O84 2124   7.095   4.734   0.394
    6CHTO  H205 2125   7.092   4.806   0.334
    6CHTO  C114 2126   7.136   4.930   0.721
    6CHTO  H218 2127   7.119   4.846   0.790
    6CHTO  C116 2128   7.251   5.017   0.780
    6CHTO  H220 2129   7.258   5.111   0.720
    6CHTO   O79 2130   7.214   5.057   0.913
    6CHTO  H201 2131   7.207   4.983   0.969
    6CHTO  C120 2132   7.390   4.940   0.777
    6CHTO  H224 2133   7.384   4.861   0.854
    6CHTO   N21 2134   7.503   5.029   0.815
    6CHTO  H211 2135   7.543   5.080   0.729
    6CHTO  H212 2136   7.580   4.971   0.864
    6CHTO   O75 2137   7.013   5.003   0.700
    6CHTO  C112 2138   6.900   4.982   0.819
    6CHTO  H216 2139   6.947   5.000   0.917
    6CHTO   O73 2140   6.852   4.847   0.808
    6CHTO  C113 2141   6.746   4.810   0.899
    6CHTO  H217 2142   6.781   4.825   1.003
    6CHTO  C124 2143   6.723   4.660   0.879
    6CHTO   O83 2144   6.636   4.601   0.977
    6CHTO  H204 2145   6.678   4.601   1.061
    6CHTO  C109 2146   6.621   4.898   0.868
    6CHTO  H213 2147   6.596   4.882   0.763
    6CHTO  C110 2148   6.660   5.048   0.887
    6CHTO  H214 2149   6.684   5.067   0.992
    6CHTO   O78 2150   6.545   5.129   0.853
    6CHTO  H200 2151   6.562   5.219   0.872
    6CHTO  C111 2152   6.782   5.084   0.797
    6CHTO  H215 2153   6.752   5.076   0.691
    6CHTO   N19 2154   6.833   5.223   0.816
    6CHTO  H207 2155   6.774   5.276   0.890
    6CHTO  H208 2156   6.830   5.277   0.722
    6CHTO   O74 2157   6.505   4.860   0.949
    6CHTO  C115 2158   6.505   4.894   1.106
    6CHTO  H219 2159   6.607   4.904   1.144
    6CHTO   O76 2160   6.436   5.031   1.136
    6CHTO  C122 2161   6.303   5.039   1.083
    6CHTO  H226 2162   6.311   5.058   0.976
    6CHTO  C126 2163   6.232   5.165   1.144
    6CHTO   O85 2164   6.298   5.287   1.109
    6CHTO  H206 2165   6.251   5.360   1.146
    6CHTO  C121 2166   6.216   4.908   1.108
    6CHTO  H225 2167   6.115   4.938   1.144
    6CHTO   O81 2168   6.197   4.837   0.985
    6CHTO  H202 2169   6.148   4.889   0.924
    6CHTO  C119 2170   6.282   4.816   1.215
    6CHTO  H223 2171   6.284   4.877   1.306
    6CHTO  C117 2172   6.430   4.776   1.179
    6CHTO  H221 2173   6.437   4.692   1.111
    6CHTO   N20 2174   6.504   4.730   1.302
    6CHTO  H209 2175   6.602   4.694   1.275
    6CHTO  H210 2176   6.512   4.812   1.372
    6CHTO   O80 2177   6.190   4.697   1.259
    6CHTO  C103 2178   6.102   4.709   1.389
    6CHTO  H190 2179   6.166   4.712   1.478
    6CHTO  C101 2180   5.999   4.829   1.397
    6CHTO  H188 2181   5.944   4.834   1.303
    6CHTO   O68 2182   6.075   4.963   1.416
    6CHTO  H168 2183   6.132   4.978   1.343
    6CHTO   C99 2184   5.892   4.805   1.515
    6CHTO  H186 2185   5.945   4.804   1.613
    6CHTO   N17 2186   5.786   4.911   1.524
    6CHTO  H174 2187   5.723   4.893   1.610
    6CHTO  H175 2188   5.728   4.914   1.433
    6CHTO   C97 2189   5.830   4.664   1.498
    6CHTO  H184 2190   5.776   4.662   1.402
    6CHTO   O64 2191   5.934   4.566   1.504
    6CHTO  C104 2192   6.024   4.571   1.392
    6CHTO  H191 2193   5.968   4.561   1.299
    6CHTO  C108 2194   6.118   4.450   1.399
    6CHTO   O71 2195   6.198   4.448   1.517
    6CHTO  H171 2196   6.253   4.371   1.517
    6CHTO   O62 2197   5.744   4.623   1.607
    6CHTO   C91 2198   5.624   4.550   1.572
    6CHTO  H178 2199   5.553   4.625   1.536
    6CHTO   C92 2200   5.564   4.493   1.705
    6CHTO  H179 2201   5.556   4.573   1.780
    6CHTO   O66 2202   5.428   4.452   1.679
    6CHTO  H166 2203   5.374   4.527   1.660
    6CHTO   C93 2204   5.643   4.367   1.759
    6CHTO  H180 2205   5.573   4.309   1.821
    6CHTO   N16 2206   5.754   4.403   1.851
    6CHTO  H172 2207   5.826   4.464   1.799
    6CHTO  H173 2208   5.800   4.314   1.890
    6CHTO   C94 2209   5.693   4.277   1.640
    6CHTO  H181 2210   5.798   4.297   1.614
    6CHTO   O61 2211   5.617   4.301   1.521
    6CHTO   C95 2212   5.638   4.431   1.464
    6CHTO  H182 2213   5.737   4.433   1.419
    6CHTO  C106 2214   5.537   4.446   1.345
    6CHTO   O69 2215   5.554   4.570   1.276
    6CHTO  H169 2216   5.528   4.641   1.331
    6CHTO   O63 2217   5.677   4.128   1.678
    6CHTO   C96 2218   5.759   4.031   1.582
    6CHTO  H183 2219   5.829   4.091   1.523
    6CHTO   C98 2220   5.672   3.949   1.483
    6CHTO  H185 2221   5.599   3.889   1.540
    6CHTO   O67 2222   5.593   4.039   1.403
    6CHTO  H167 2223   5.648   4.094   1.351
    6CHTO  C102 2224   5.761   3.855   1.389
    6CHTO  H189 2225   5.800   3.921   1.310
    6CHTO   N18 2226   5.687   3.748   1.317
    6CHTO  H176 2227   5.697   3.760   1.210
    6CHTO  H177 2228   5.582   3.750   1.344
    6CHTO  C105 2229   5.884   3.800   1.468
    6CHTO  H192 2230   5.901   3.695   1.442
    6CHTO   O65 2231   5.869   3.804   1.612
    6CHTO  C100 2232   5.844   3.933   1.673
    6CHTO  H187 2233   5.786   3.913   1.764
    6CHTO  C107 2234   5.979   3.994   1.719
    6CHTO   O70 2235   5.960   4.114   1.795
    6CHTO  H170 2236   5.921   4.094   1.877
    6CHTO   O57 2237   6.006   3.887   1.416
    6CHTO   C85 2238   6.111   3.825   1.340
    6CHTO  H157 2239   6.060   3.757   1.267
    6CHTO   C83 2240   6.196   3.732   1.433
    6CHTO  H155 2241   6.131   3.652   1.470
    6CHTO   O56 2242   6.238   3.807   1.549
    6CHTO  H135 2243   6.281   3.750   1.610
    6CHTO   C81 2244   6.312   3.668   1.351
    6CHTO  H153 2245   6.268   3.614   1.267
    6CHTO   N14 2246   6.385   3.562   1.425
    6CHTO  H141 2247   6.490   3.581   1.425
    6CHTO  H142 2248   6.351   3.555   1.526
    6CHTO   C79 2249   6.404   3.782   1.293
    6CHTO  H151 2250   6.479   3.734   1.230
    6CHTO   O52 2251   6.325   3.868   1.204
    6CHTO   C86 2252   6.206   3.928   1.266
    6CHTO  H158 2253   6.247   4.003   1.337
    6CHTO   C90 2254   6.131   4.008   1.157
    6CHTO   O60 2255   6.027   4.090   1.210
    6CHTO  H138 2256   5.957   4.036   1.244
    6CHTO   O50 2257   6.471   3.863   1.391
    6CHTO   C73 2258   6.590   3.846   1.469
    6CHTO  H145 2259   6.631   3.746   1.454
    6CHTO   C74 2260   6.559   3.865   1.621
    6CHTO  H146 2261   6.482   3.791   1.648
    6CHTO   O54 2262   6.678   3.828   1.694
    6CHTO  H133 2263   6.661   3.833   1.786
    6CHTO   C75 2264   6.511   4.013   1.647
    6CHTO  H147 2265   6.419   4.030   1.589
    6CHTO   N13 2266   6.477   4.042   1.788
    6CHTO  H139 2267   6.398   3.976   1.821
    6CHTO  H140 2268   6.443   4.144   1.798
    6CHTO   C76 2269   6.621   4.114   1.589
    6CHTO  H148 2270   6.712   4.104   1.650
    6CHTO   O49 2271   6.651   4.084   1.449
    6CHTO   C77 2272   6.698   3.951   1.426
    6CHTO  H149 2273   6.790   3.933   1.483
    6CHTO   C88 2274   6.737   3.941   1.278
    6CHTO   O58 2275   6.803   3.813   1.247
    6CHTO  H136 2276   6.887   3.810   1.289
    6CHTO   O51 2277   6.566   4.261   1.585
    6CHTO   C78 2278   6.675   4.371   1.616
    6CHTO  H150 2279   6.771   4.325   1.647
    6CHTO   C80 2280   6.624   4.460   1.731
    6CHTO  H152 2281   6.519   4.491   1.709
    6CHTO   O55 2282   6.622   4.378   1.850
    6CHTO  H134 2283   6.584   4.426   1.921
    6CHTO   C84 2284   6.712   4.590   1.750
    6CHTO  H156 2285   6.812   4.559   1.779
    6CHTO   N15 2286   6.661   4.680   1.858
    6CHTO  H143 2287   6.725   4.765   1.869
    6CHTO  H144 2288   6.562   4.714   1.834
    6CHTO   C87 2289   6.722   4.662   1.614
    6CHTO  H159 2290   6.622   4.692   1.581
    6CHTO   O53 2291   6.784   4.565   1.514
    6CHTO   C82 2292   6.701   4.452   1.487
    6CHTO  H154 2293   6.607   4.484   1.443
    6CHTO   C89 2294   6.775   4.368   1.379
    6CHTO   O59 2295   6.903   4.320   1.423
    6CHTO  H137 2296   6.962   4.392   1.434
    6CHTO   O45 2297   6.814   4.799   1.622
    6CHTO   C67 2298   6.941   4.796   1.556
    6CHTO  H124 2299   6.992   4.703   1.579
    6CHTO   C65 2300   6.928   4.810   1.400
    6CHTO  H122 2301   6.824   4.789   1.376
    6CHTO   O44 2302   7.013   4.712   1.338
    6CHTO  H102 2303   6.998   4.711   1.246
    6CHTO   C63 2304   6.953   4.959   1.356
    6CHTO  H120 2305   6.886   5.023   1.412
    6CHTO   N11 2306   6.915   4.993   1.215
    6CHTO  H108 2307   6.980   4.941   1.147
    6CHTO  H109 2308   6.814   4.965   1.196
    6CHTO   C61 2309   7.100   4.998   1.396
    6CHTO  H118 2310   7.104   5.108   1.397
    6CHTO   O40 2311   7.137   4.953   1.530
    6CHTO   C68 2312   7.030   4.911   1.620
    6CHTO  H125 2313   6.967   5.000   1.642
    6CHTO   C72 2314   7.095   4.866   1.753
    6CHTO   O48 2315   6.998   4.828   1.851
    6CHTO  H105 2316   7.042   4.802   1.929
    6CHTO   O38 2317   7.199   4.944   1.306
    6CHTO   C55 2318   7.333   4.994   1.325
    6CHTO  H112 2319   7.344   5.038   1.425
    6CHTO   C56 2320   7.370   5.098   1.212
    6CHTO  H113 2321   7.364   5.046   1.115
    6CHTO   O42 2322   7.272   5.204   1.208
    6CHTO  H100 2323   7.188   5.170   1.183
    6CHTO   C57 2324   7.515   5.153   1.238
    6CHTO  H114 2325   7.510   5.209   1.332
    6CHTO   N10 2326   7.564   5.248   1.135
    6CHTO  H106 2327   7.634   5.317   1.179
    6CHTO  H107 2328   7.482   5.303   1.092
    6CHTO   C58 2329   7.614   5.034   1.257
    6CHTO  H115 2330   7.635   4.987   1.157
    6CHTO   O37 2331   7.566   4.933   1.348
    6CHTO   C59 2332   7.436   4.879   1.319
    6CHTO  H116 2333   7.437   4.832   1.221
    6CHTO   C70 2334   7.401   4.772   1.423
    6CHTO   O46 2335   7.487   4.658   1.422
    6CHTO  H103 2336   7.474   4.610   1.342
    6CHTO   O39 2337   7.745   5.088   1.323
    6CHTO   C60 2338   7.867   5.019   1.295
    6CHTO  H117 2339   7.849   4.912   1.292
    6CHTO   C62 2340   7.929   5.058   1.157
    6CHTO  H119 2341   7.864   5.012   1.079
    6CHTO   O43 2342   7.925   5.202   1.140
    6CHTO  H101 2343   7.837   5.231   1.133
    6CHTO   C66 2344   8.078   4.999   1.145
    6CHTO  H123 2345   8.075   4.892   1.165
    6CHTO   N12 2346   8.134   5.011   1.007
    6CHTO  H110 2347   8.222   5.073   1.007
    6CHTO  H111 2348   8.060   5.048   0.938
    6CHTO   C69 2349   8.164   5.066   1.256
    6CHTO  H126 2350   8.149   5.176   1.255
    6CHTO   O41 2351   8.110   5.008   1.389
    6CHTO   C64 2352   7.962   5.046   1.415
    6CHTO  H121 2353   7.956   5.154   1.440
    6CHTO   C71 2354   7.912   4.967   1.539
    6CHTO   O47 2355   7.926   4.825   1.524
    6CHTO  H104 2356   7.868   4.794   1.458
    6CHTO   O34 2357   8.320   5.038   1.249
    6CHTO   C49 2358   8.439   5.087   1.158
    6CHTO   H91 2359   8.435   5.026   1.067
    6CHTO   C47 2360   8.571   5.060   1.233
    6CHTO   H89 2361   8.651   5.082   1.157
    6CHTO   O33 2362   8.581   4.921   1.270
    6CHTO   H70 2363   8.585   4.867   1.193
    6CHTO   C45 2364   8.587   5.156   1.363
    6CHTO   H87 2365   8.537   5.106   1.447
    6CHTO    N8 2366   8.732   5.169   1.395
    6CHTO   H75 2367   8.759   5.273   1.404
    6CHTO   H76 2368   8.794   5.122   1.320
    6CHTO   C43 2369   8.504   5.294   1.343
    6CHTO   H85 2370   8.403   5.272   1.378
    6CHTO   O29 2371   8.504   5.332   1.204
    6CHTO   C50 2372   8.433   5.239   1.120
    6CHTO   H92 2373   8.327   5.269   1.121
    6CHTO   C54 2374   8.474   5.264   0.973
    6CHTO   O36 2375   8.615   5.247   0.952
    6CHTO   H72 2376   8.638   5.156   0.963
    6CHTO   O27 2377   8.546   5.404   1.427
    6CHTO   C37 2378   8.644   5.501   1.469
    6CHTO   H79 2379   8.743   5.452   1.478
    6CHTO   C38 2380   8.662   5.618   1.368
    6CHTO   H80 2381   8.563   5.662   1.349
    6CHTO   O31 2382   8.712   5.563   1.245
    6CHTO   H68 2383   8.797   5.527   1.257
    6CHTO   C39 2384   8.758   5.730   1.427
    6CHTO   H81 2385   8.857   5.685   1.437
    6CHTO    N7 2386   8.774   5.849   1.337
    6CHTO   H73 2387   8.679   5.898   1.321
    6CHTO   H74 2388   8.845   5.919   1.380
    6CHTO   C40 2389   8.710   5.772   1.571
    6CHTO   H82 2390   8.614   5.824   1.565
    6CHTO   O26 2391   8.702   5.654   1.652
    6CHTO   C41 2392   8.604   5.556   1.608
    6CHTO   H83 2393   8.504   5.602   1.603
    6CHTO   C52 2394   8.599   5.444   1.714
    6CHTO   O35 2395   8.560   5.493   1.846
    6CHTO   H71 2396   8.470   5.521   1.844
    6CHTO   O28 2397   8.803   5.860   1.639
    6CHTO   C42 2398   8.770   5.927   1.766
    6CHTO   H84 2399   8.864   5.975   1.794
    6CHTO   C44 2400   8.732   5.833   1.886
    6CHTO   H86 2401   8.640   5.780   1.860
    6CHTO   O32 2402   8.839   5.738   1.899
    6CHTO   H69 2403   8.838   5.678   1.827
    6CHTO   C48 2404   8.706   5.912   2.020
    6CHTO   H90 2405   8.802   5.955   2.052
    6CHTO    N9 2406   8.663   5.821   2.132
    6CHTO   H77 2407   8.739   5.746   2.150
    6CHTO   H78 2408   8.645   5.878   2.222
    6CHTO   C51 2409   8.604   6.030   1.996
    6CHTO   H93 2410   8.506   5.988   1.975
    6CHTO   O30 2411   8.651   6.114   1.889
    6CHTO   C46 2412   8.664   6.040   1.753
    6CHTO   H88 2413   8.567   5.997   1.727
    6CHTO   C53 2414   8.706   6.144   1.647
    6CHTO   O72 2415   8.607   6.246   1.633
    6CHTO  H199 2416   8.634   6.309   1.569
    6CHTO   O22 2417   8.599   6.116   2.113
    6CHTO   C31 2418   8.491   6.212   2.144
    6CHTO   H59 2419   8.519   6.258   2.241
    6CHTO   C29 2420   8.474   6.327   2.043
    6CHTO   H57 2421   8.441   6.285   1.946
    6CHTO   O21 2422   8.603   6.388   2.021
    6CHTO   H37 2423   8.661   6.328   1.978
    6CHTO   C27 2424   8.366   6.431   2.093
    6CHTO   H55 2425   8.403   6.476   2.187
    6CHTO    N5 2426   8.340   6.541   1.996
    6CHTO   H43 2427   8.301   6.500   1.904
    6CHTO   H44 2428   8.431   6.596   1.977
    6CHTO   C25 2429   8.233   6.355   2.130
    6CHTO   H53 2430   8.187   6.316   2.038
    6CHTO   O17 2431   8.259   6.243   2.219
    6CHTO   C32 2432   8.351   6.145   2.168
    6CHTO   H60 2433   8.314   6.106   2.073
    6CHTO   C36 2434   8.356   6.027   2.269
    6CHTO   O25 2435   8.399   6.069   2.399
    6CHTO   H40 2436   8.399   5.995   2.457
    6CHTO   O15 2437   8.131   6.451   2.202
    6CHTO   C19 2438   8.021   6.440   2.297
    6CHTO   H47 2439   8.048   6.354   2.360
    6CHTO   C20 2440   8.005   6.567   2.386
    6CHTO   H48 2441   7.991   6.658   2.325
    6CHTO   O19 2442   8.128   6.581   2.459
    6CHTO   H35 2443   8.128   6.661   2.508
    6CHTO   C21 2444   7.882   6.555   2.485
    6CHTO   H49 2445   7.904   6.478   2.559
    6CHTO    N4 2446   7.858   6.681   2.560
    6CHTO   H41 2447   7.863   6.664   2.667
    6CHTO   H42 2448   7.761   6.724   2.536
    6CHTO   C22 2449   7.756   6.506   2.408
    6CHTO   H50 2450   7.723   6.585   2.341
    6CHTO   O14 2451   7.785   6.387   2.332
    6CHTO   C23 2452   7.885   6.405   2.231
    6CHTO   H51 2453   7.850   6.485   2.164
    6CHTO   C34 2454   7.892   6.275   2.148
    6CHTO   O23 2455   7.772   6.255   2.074
    6CHTO   H38 2456   7.778   6.175   2.025
    6CHTO   O16 2457   7.651   6.465   2.497
    6CHTO   C24 2458   7.504   6.493   2.441
    6CHTO   H52 2459   7.505   6.518   2.334
    6CHTO   C26 2460   7.442   6.609   2.520
    6CHTO   H54 2461   7.446   6.584   2.629
    6CHTO   O20 2462   7.522   6.726   2.498
    6CHTO   H36 2463   7.606   6.717   2.539
    6CHTO   C30 2464   7.293   6.632   2.480
    6CHTO   H58 2465   7.289   6.671   2.377
    6CHTO    N6 2466   7.229   6.736   2.565
    6CHTO   H45 2467   7.281   6.830   2.554
    6CHTO   H46 2468   7.126   6.750   2.536
    6CHTO   C33 2469   7.213   6.498   2.480
    6CHTO   H61 2470   7.197   6.464   2.584
    6CHTO   O18 2471   7.284   6.396   2.408
    6CHTO   C28 2472   7.416   6.366   2.456
    6CHTO   H56 2473   7.414   6.337   2.561
    6CHTO   C35 2474   7.475   6.250   2.371
    6CHTO   O24 2475   7.398   6.130   2.383
    6CHTO   H39 2476   7.439   6.062   2.332
    6CHTO    O9 2477   7.081   6.518   2.425
    6CHTO   C13 2478   6.953   6.497   2.525
    6CHTO   H26 2479   6.973   6.553   2.619
    6CHTO   C11 2480   6.932   6.342   2.552
    6CHTO   H24 2481   7.012   6.309   2.620
    6CHTO    O8 2482   6.946   6.269   2.429
    6CHTO    H3 2483   7.034   6.275   2.398
    6CHTO    C9 2484   6.795   6.321   2.622
    6CHTO   H22 2485   6.799   6.384   2.713
    6CHTO    N2 2486   6.775   6.183   2.673
    6CHTO   H10 2487   6.857   6.155   2.737
    6CHTO   H11 2488   6.681   6.177   2.726
    6CHTO    C7 2489   6.680   6.373   2.529
    6CHTO   H20 2490   6.587   6.360   2.589
    6CHTO    O4 2491   6.696   6.514   2.502
    6CHTO   C14 2492   6.824   6.566   2.461
    6CHTO   H27 2493   6.825   6.672   2.495
    6CHTO   C18 2494   6.830   6.570   2.305
    6CHTO   O13 2495   6.740   6.669   2.253
    6CHTO    H7 2496   6.652   6.642   2.268
    6CHTO    O2 2497   6.669   6.288   2.382
    6CHTO    C1 2498   6.539   6.267   2.323
    6CHTO   H14 2499   6.554   6.207   2.231
    6CHTO    C2 2500   6.461   6.400   2.284
    6CHTO   H15 2501   6.459   6.464   2.374
    6CHTO    O6 2502   6.536   6.465   2.180
    6CHTO    H1 2503   6.499   6.549   2.160
    6CHTO    C3 2504   6.311   6.367   2.234
    6CHTO   H16 2505   6.318   6.311   2.139
    6CHTO    N1 2506   6.233   6.493   2.207
    6CHTO    H8 2507   6.200   6.494   2.104
    6CHTO    H9 2508   6.148   6.501   2.273
    6CHTO    C4 2509   6.241   6.271   2.336
    6CHTO   H17 2510   6.226   6.324   2.431
    6CHTO    O1 2511   6.321   6.154   2.357
    6CHTO    C5 2512   6.450   6.178   2.415
    6CHTO   H18 2513   6.437   6.228   2.511
    6CHTO   C16 2514   6.517   6.040   2.439
    6CHTO   O11 2515   6.444   5.964   2.536
    6CHTO    H5 2516   6.453   6.003   2.620
    6CHTO    O3 2517   6.115   6.221   2.286
    6CHTO    C6 2518   6.018   6.181   2.389
    6CHTO   H19 2519   6.062   6.176   2.489
    6CHTO    C8 2520   5.900   6.283   2.395
    6CHTO   H21 2521   5.855   6.290   2.295
    6CHTO    O7 2522   5.955   6.411   2.431
    6CHTO    H2 2523   6.007   6.445   2.361
    6CHTO   C12 2524   5.790   6.234   2.497
    6CHTO   H25 2525   5.840   6.232   2.597
    6CHTO    N3 2526   5.675   6.329   2.508
    6CHTO   H12 2527   5.604   6.293   2.581
    6CHTO   H13 2528   5.627   6.340   2.412
    6CHTO   C15 2529   5.748   6.087   2.460
    6CHTO   H28 2530   5.694   6.084   2.365
    6CHTO   O10 2531   5.662   6.020   2.570
    6CHTO    H4 2532   5.629   5.937   2.539
    6CHTO    O5 2533   5.863   6.001   2.454
    6CHTO   C10 2534   5.962   6.039   2.357
    6CHTO   H23 2535   5.918   6.038   2.258
    6CHTO   C17 2536   6.074   5.934   2.360
    6CHTO   O12 2537   6.023   5.803   2.331
    6CHTO    H6 2538   6.093   5.741   2.333
    7CHTO  H203 2539   4.993   2.326   2.463
    7CHTO   O82 2540   5.032   2.333   2.548
    7CHTO  C123 2541   5.172   2.362   2.537
    7CHTO  H227 2542   5.184   2.457   2.482
    7CHTO   O77 2543   5.213   2.379   2.676
    7CHTO  C118 2544   5.347   2.427   2.689
    7CHTO  H222 2545   5.357   2.521   2.632
    7CHTO  C125 2546   5.373   2.458   0.022
    7CHTO   O84 2547   5.350   2.344   0.105
    7CHTO  H205 2548   5.417   2.280   0.090
    7CHTO  C114 2549   5.448   2.324   2.634
    7CHTO  H218 2550   5.446   2.235   2.698
    7CHTO  C116 2551   5.411   2.278   2.488
    7CHTO  H220 2552   5.440   2.360   2.418
    7CHTO   O79 2553   5.492   2.164   2.453
    7CHTO  H201 2554   5.582   2.188   2.449
    7CHTO  C120 2555   5.257   2.246   2.473
    7CHTO  H224 2556   5.239   2.151   2.528
    7CHTO   N21 2557   5.221   2.222   2.330
    7CHTO  H211 2558   5.194   2.314   2.281
    7CHTO  H212 2559   5.139   2.152   2.325
    7CHTO   O75 2560   5.575   2.391   2.645
    7CHTO  C112 2561   5.708   2.297   2.644
    7CHTO  H216 2562   5.702   2.225   2.561
    7CHTO   O73 2563   5.715   2.230   2.771
    7CHTO  C113 2564   5.831   2.148   2.788
    7CHTO  H217 2565   5.837   2.075   2.704
    7CHTO  C124 2566   5.819   2.067   0.097
    7CHTO   O83 2567   5.715   1.969   0.089
    7CHTO  H204 2568   5.711   1.921   0.170
    7CHTO  C109 2569   5.958   2.237   2.787
    7CHTO  H213 2570   5.946   2.310   0.048
    7CHTO  C110 2571   5.966   2.310   2.649
    7CHTO  H214 2572   5.981   2.236   2.571
    7CHTO   O78 2573   6.081   2.397   2.646
    7CHTO  H200 2574   6.074   2.463   2.713
    7CHTO  C111 2575   5.834   2.390   2.622
    7CHTO  H215 2576   5.827   2.471   2.696
    7CHTO   N19 2577   5.829   2.454   2.487
    7CHTO  H207 2578   5.920   2.436   2.432
    7CHTO  H208 2579   5.745   2.420   2.430
    7CHTO   O74 2580   6.078   2.157   2.812
    7CHTO  C115 2581   6.186   2.235   0.074
    7CHTO  H219 2582   6.203   2.335   0.032
    7CHTO   O76 2583   6.136   2.262   0.228
    7CHTO  C122 2584   6.135   2.142   0.307
    7CHTO  H226 2585   6.069   2.070   0.259
    7CHTO  C126 2586   6.073   2.172   0.447
    7CHTO   O85 2587   5.936   2.214   0.439
    7CHTO  H206 2588   5.903   2.228   0.526
    7CHTO  C121 2589   6.281   2.086   0.314
    7CHTO  H225 2590   6.350   2.167   0.344
    7CHTO   O81 2591   6.295   1.982   0.412
    7CHTO  H202 2592   6.239   1.909   0.391
    7CHTO  C119 2593   6.319   2.037   0.171
    7CHTO  H223 2594   6.420   1.996   0.178
    7CHTO  C117 2595   6.321   2.154   0.065
    7CHTO  H221 2596   6.326   2.122   2.781
    7CHTO   N20 2597   6.439   2.246   0.081
    7CHTO  H209 2598   6.498   2.219   0.168
    7CHTO  H210 2599   6.501   2.244   2.813
    7CHTO   O80 2600   6.240   1.914   0.127
    7CHTO  C103 2601   6.292   1.824   0.008
    7CHTO  H190 2602   6.315   1.885   2.740
    7CHTO  C101 2603   6.416   1.731   0.040
    7CHTO  H188 2604   6.400   1.685   0.137
    7CHTO   O68 2605   6.544   1.819   0.048
    7CHTO  H168 2606   6.617   1.766   0.076
    7CHTO   C99 2607   6.432   1.614   2.751
    7CHTO  H186 2608   6.458   1.659   2.652
    7CHTO   N17 2609   6.540   1.515   2.783
    7CHTO  H174 2610   6.550   1.443   2.702
    7CHTO  H175 2611   6.633   1.567   2.800
    7CHTO   C97 2612   6.295   1.544   2.730
    7CHTO  H184 2613   6.266   1.498   0.006
    7CHTO   O64 2614   6.200   1.643   2.689
    7CHTO  C104 2615   6.167   1.736   2.793
    7CHTO  H191 2616   6.132   1.685   0.063
    7CHTO  C108 2617   6.049   1.822   2.744
    7CHTO   O71 2618   5.930   1.744   2.727
    7CHTO  H171 2619   5.940   1.685   2.655
    7CHTO   O62 2620   6.294   1.445   2.624
    7CHTO   C91 2621   6.189   1.345   2.620
    7CHTO  H178 2622   6.220   1.273   2.544
    7CHTO   C92 2623   6.053   1.404   2.572
    7CHTO  H179 2624   6.026   1.490   2.635
    7CHTO   O66 2625   6.074   1.457   2.439
    7CHTO  H166 2626   5.997   1.502   2.409
    7CHTO   C93 2627   5.935   1.299   2.574
    7CHTO  H180 2628   5.958   1.221   2.499
    7CHTO   N16 2629   5.803   1.355   2.535
    7CHTO  H172 2630   5.775   1.434   2.604
    7CHTO  H173 2631   5.728   1.277   2.535
    7CHTO   C94 2632   5.931   1.232   2.716
    7CHTO  H181 2633   5.917   1.306   2.795
    7CHTO   O61 2634   6.058   1.169   2.739
    7CHTO   C95 2635   6.167   1.261   2.753
    7CHTO  H182 2636   6.145   1.329   0.016
    7CHTO  C106 2637   6.296   1.181   2.793
    7CHTO   O69 2638   6.281   1.120   0.102
    7CHTO  H169 2639   6.359   1.072   0.122
    7CHTO   O63 2640   5.819   1.118   2.728
    7CHTO   C96 2641   5.798   1.068   0.058
    7CHTO  H183 2642   5.844   1.140   0.126
    7CHTO   C98 2643   5.865   0.930   0.085
    7CHTO  H185 2644   5.847   0.863   2.819
    7CHTO   O67 2645   6.007   0.950   0.089
    7CHTO  H167 2646   6.052   0.868   0.098
    7CHTO  C102 2647   5.814   0.859   0.220
    7CHTO  H189 2648   5.850   0.922   0.303
    7CHTO   N18 2649   5.869   0.724   0.244
    7CHTO  H176 2650   5.977   0.729   0.253
    7CHTO  H177 2651   5.842   0.658   0.163
    7CHTO  C105 2652   5.659   0.863   0.219
    7CHTO  H192 2653   5.623   0.811   0.130
    7CHTO   O65 2654   5.613   0.999   0.213
    7CHTO  C100 2655   5.643   1.065   0.088
    7CHTO  H187 2656   5.592   1.011   0.007
    7CHTO  C107 2657   5.587   1.209   0.093
    7CHTO   O70 2658   5.444   1.209   0.110
    7CHTO  H170 2659   5.414   1.297   0.116
    7CHTO   O57 2660   5.599   0.785   0.354
    7CHTO   C85 2661   5.583   0.850   0.481
    7CHTO  H157 2662   5.625   0.953   0.472
    7CHTO   C83 2663   5.672   0.777   0.588
    7CHTO  H155 2664   5.777   0.794   0.562
    7CHTO   O56 2665   5.650   0.634   0.579
    7CHTO  H135 2666   5.678   0.602   0.495
    7CHTO   C81 2667   5.644   0.835   0.729
    7CHTO  H153 2668   5.665   0.942   0.726
    7CHTO   N14 2669   5.735   0.782   0.834
    7CHTO  H141 2670   5.719   0.677   0.847
    7CHTO  H142 2671   5.837   0.800   0.807
    7CHTO   C79 2672   5.492   0.817   0.765
    7CHTO  H151 2673   5.476   0.863   0.863
    7CHTO   O52 2674   5.410   0.892   0.669
    7CHTO   C86 2675   5.432   0.853   0.529
    7CHTO  H158 2676   5.387   0.751   0.523
    7CHTO   C90 2677   5.347   0.942   0.436
    7CHTO   O60 2678   5.383   1.080   0.447
    7CHTO  H138 2679   5.329   1.132   0.390
    7CHTO   O50 2680   5.448   0.680   0.770
    7CHTO   C73 2681   5.439   0.545   0.818
    7CHTO  H145 2682   5.539   0.508   0.846
    7CHTO   C74 2683   5.380   0.452   0.707
    7CHTO  H146 2684   5.447   0.460   0.619
    7CHTO   O54 2685   5.390   0.315   0.751
    7CHTO  H133 2686   5.336   0.301   0.827
    7CHTO   C75 2687   5.233   0.498   0.673
    7CHTO  H147 2688   5.236   0.601   0.634
    7CHTO   N13 2689   5.168   0.418   0.566
    7CHTO  H139 2690   5.069   0.456   0.547
    7CHTO  H140 2691   5.160   0.315   0.597
    7CHTO   C76 2692   5.147   0.501   0.808
    7CHTO  H148 2693   5.137   0.399   0.844
    7CHTO   O49 2694   5.214   0.583   0.910
    7CHTO   C77 2695   5.346   0.539   0.943
    7CHTO  H149 2696   5.343   0.436   0.980
    7CHTO   C88 2697   5.398   0.624   1.060
    7CHTO   O58 2698   5.530   0.577   1.107
    7CHTO  H136 2699   5.559   0.631   1.178
    7CHTO   O51 2700   5.002   0.572   0.782
    7CHTO   C78 2701   4.917   0.578   0.915
    7CHTO  H150 2702   4.981   0.567   1.005
    7CHTO   C80 2703   4.809   0.468   0.918
    7CHTO  H152 2704   4.735   0.488   0.836
    7CHTO   O55 2705   4.874   0.342   0.894
    7CHTO  H134 2706   4.904   0.338   0.805
    7CHTO   C84 2707   4.735   0.470   1.058
    7CHTO  H156 2708   4.809   0.445   1.134
    7CHTO   N15 2709   4.627   0.366   1.069
    7CHTO  H143 2710   4.582   0.370   1.166
    7CHTO  H144 2711   4.668   0.269   1.054
    7CHTO   C87 2712   4.679   0.611   1.091
    7CHTO  H159 2713   4.586   0.628   1.037
    7CHTO   O53 2714   4.784   0.728   1.053
    7CHTO   C82 2715   4.849   0.716   0.925
    7CHTO  H154 2716   4.776   0.730   0.845
    7CHTO   C89 2717   4.953   0.830   0.912
    7CHTO   O59 2718   4.889   0.958   0.914
    7CHTO  H137 2719   4.954   1.025   0.905
    7CHTO   O45 2720   4.644   0.618   1.260
    7CHTO   C67 2721   4.723   0.711   1.336
    7CHTO  H124 2722   4.808   0.745   1.276
    7CHTO   C65 2723   4.637   0.836   1.376
    7CHTO  H122 2724   4.538   0.799   1.401
    7CHTO   O44 2725   4.628   0.917   1.256
    7CHTO  H102 2726   4.579   0.872   1.190
    7CHTO   C63 2727   4.689   0.907   1.508
    7CHTO  H120 2728   4.646   0.854   1.594
    7CHTO   N11 2729   4.640   1.047   1.533
    7CHTO  H108 2730   4.669   1.079   1.630
    7CHTO  H109 2731   4.681   1.113   1.459
    7CHTO   C61 2732   4.844   0.888   1.518
    7CHTO  H118 2733   4.877   0.935   1.612
    7CHTO   O40 2734   4.880   0.747   1.527
    7CHTO   C68 2735   4.789   0.648   1.466
    7CHTO  H125 2736   4.711   0.620   1.540
    7CHTO   C72 2737   4.872   0.521   1.437
    7CHTO   O48 2738   4.792   0.409   1.397
    7CHTO  H105 2739   4.848   0.335   1.381
    7CHTO   O38 2740   4.912   0.948   1.405
    7CHTO   C55 2741   5.049   0.989   1.422
    7CHTO  H112 2742   5.092   0.946   1.514
    7CHTO   C56 2743   5.055   1.148   1.421
    7CHTO  H113 2744   4.994   1.181   1.336
    7CHTO   O42 2745   4.990   1.199   1.539
    7CHTO  H100 2746   5.035   1.171   1.617
    7CHTO   C57 2747   5.203   1.202   1.407
    7CHTO  H114 2748   5.254   1.182   1.502
    7CHTO   N10 2749   5.210   1.349   1.384
    7CHTO  H106 2750   5.127   1.399   1.432
    7CHTO  H107 2751   5.302   1.388   1.423
    7CHTO   C58 2752   5.277   1.126   1.294
    7CHTO  H115 2753   5.230   1.153   1.196
    7CHTO   O37 2754   5.269   0.984   1.314
    7CHTO   C59 2755   5.135   0.933   1.304
    7CHTO  H116 2756   5.091   0.963   1.208
    7CHTO   C70 2757   5.140   0.780   1.305
    7CHTO   O46 2758   5.199   0.724   1.423
    7CHTO  H103 2759   5.143   0.741   1.497
    7CHTO   O39 2760   5.436   1.163   1.292
    7CHTO   C60 2761   5.503   1.125   1.171
    7CHTO  H117 2762   5.462   1.031   1.135
    7CHTO   C62 2763   5.486   1.230   1.057
    7CHTO  H119 2764   5.377   1.232   1.033
    7CHTO   O43 2765   5.522   1.361   1.104
    7CHTO  H101 2766   5.613   1.364   1.127
    7CHTO   C66 2767   5.568   1.184   0.927
    7CHTO  H123 2768   5.535   1.084   0.898
    7CHTO   N12 2769   5.543   1.270   0.809
    7CHTO  H110 2770   5.633   1.320   0.776
    7CHTO  H111 2771   5.464   1.341   0.828
    7CHTO   C69 2772   5.719   1.172   0.964
    7CHTO  H126 2773   5.757   1.270   1.001
    7CHTO   O41 2774   5.732   1.065   1.076
    7CHTO   C64 2775   5.653   1.099   1.202
    7CHTO  H121 2776   5.697   1.190   1.249
    7CHTO   C71 2777   5.669   0.983   1.304
    7CHTO   O47 2778   5.619   0.859   1.253
    7CHTO  H104 2779   5.525   0.864   1.245
    7CHTO   O34 2780   5.809   1.126   0.843
    7CHTO   C49 2781   5.910   1.213   0.768
    7CHTO   H91 2782   5.862   1.310   0.752
    7CHTO   C47 2783   5.942   1.146   0.633
    7CHTO   H89 2784   6.007   1.220   0.580
    7CHTO   O33 2785   5.821   1.129   0.556
    7CHTO   H70 2786   5.843   1.102   0.469
    7CHTO   C45 2787   6.018   1.005   0.654
    7CHTO   H87 2788   5.942   0.926   0.662
    7CHTO    N8 2789   6.102   0.977   0.534
    7CHTO   H75 2790   6.060   0.895   0.478
    7CHTO   H76 2791   6.112   1.064   0.471
    7CHTO   C43 2792   6.095   1.001   0.798
    7CHTO   H85 2793   6.018   0.970   0.869
    7CHTO   O29 2794   6.147   1.131   0.828
    7CHTO   C50 2795   6.046   1.233   0.846
    7CHTO   H92 2796   6.023   1.241   0.953
    7CHTO   C54 2797   6.113   1.369   0.813
    7CHTO   O36 2798   6.028   1.481   0.839
    7CHTO   H72 2799   6.013   1.490   0.931
    7CHTO   O27 2800   6.195   0.899   0.808
    7CHTO   C37 2801   6.295   0.797   0.827
    7CHTO   H79 2802   6.359   0.821   0.914
    7CHTO   C38 2803   6.226   0.661   0.857
    7CHTO   H80 2804   6.143   0.648   0.786
    7CHTO   O31 2805   6.168   0.670   0.989
    7CHTO   H68 2806   6.236   0.679   1.054
    7CHTO   C39 2807   6.325   0.538   0.844
    7CHTO   H81 2808   6.398   0.546   0.924
    7CHTO    N7 2809   6.255   0.405   0.860
    7CHTO   H73 2810   6.180   0.393   0.784
    7CHTO   H74 2811   6.327   0.325   0.855
    7CHTO   C40 2812   6.401   0.548   0.706
    7CHTO   H82 2813   6.327   0.541   0.626
    7CHTO   O26 2814   6.472   0.673   0.702
    7CHTO   C41 2815   6.384   0.789   0.700
    7CHTO   H83 2816   6.320   0.785   0.611
    7CHTO   C52 2817   6.472   0.916   0.691
    7CHTO   O35 2818   6.551   0.920   0.570
    7CHTO   H71 2819   6.602   0.999   0.569
    7CHTO   O28 2820   6.495   0.442   0.679
    7CHTO   C42 2821   6.619   0.401   0.746
    7CHTO   H84 2822   6.584   0.347   0.835
    7CHTO   C44 2823   6.717   0.512   0.798
    7CHTO   H86 2824   6.734   0.583   0.718
    7CHTO   O32 2825   6.650   0.582   0.905
    7CHTO   H69 2826   6.577   0.631   0.872
    7CHTO   C48 2827   6.857   0.455   0.844
    7CHTO   H90 2828   6.841   0.389   0.929
    7CHTO    N9 2829   6.952   0.562   0.891
    7CHTO   H77 2830   6.982   0.543   0.993
    7CHTO   H78 2831   7.038   0.569   0.827
    7CHTO   C51 2832   6.913   0.370   0.725
    7CHTO   H93 2833   6.913   0.433   0.635
    7CHTO   O30 2834   6.826   0.258   0.712
    7CHTO   C46 2835   6.693   0.297   0.656
    7CHTO   H88 2836   6.709   0.340   0.558
    7CHTO   C53 2837   6.610   0.167   0.642
    7CHTO   O72 2838   6.668   0.076   0.548
    7CHTO  H199 2839   6.661   0.111   0.461
    7CHTO   O22 2840   7.044   0.313   0.745
    7CHTO   C31 2841   7.135   0.293   0.630
    7CHTO   H59 2842   7.216   0.226   0.666
    7CHTO   C29 2843   7.072   0.223   0.507
    7CHTO   H57 2844   6.988   0.286   0.471
    7CHTO   O21 2845   7.015   0.098   0.550
    7CHTO   H37 2846   6.943   0.113   0.608
    7CHTO   C27 2847   7.176   0.204   0.389
    7CHTO   H55 2848   7.255   0.137   0.423
    7CHTO    N5 2849   7.115   0.146   0.266
    7CHTO   H43 2850   7.129   0.210   0.180
    7CHTO   H44 2851   7.009   0.127   0.280
    7CHTO   C25 2852   7.244   0.343   0.360
    7CHTO   H53 2853   7.167   0.414   0.323
    7CHTO   O17 2854   7.302   0.398   0.481
    7CHTO   C32 2855   7.207   0.424   0.586
    7CHTO   H60 2856   7.132   0.495   0.551
    7CHTO   C36 2857   7.284   0.488   0.704
    7CHTO   O25 2858   7.339   0.615   0.668
    7CHTO   H40 2859   7.270   0.678   0.658
    7CHTO   O15 2860   7.361   0.333   0.251
    7CHTO   C19 2861   7.374   0.423   0.137
    7CHTO   H47 2862   7.473   0.397   0.095
    7CHTO   C20 2863   7.266   0.401   0.027
    7CHTO   H48 2864   7.164   0.407   0.068
    7CHTO   O19 2865   7.285   0.267   2.797
    7CHTO   H35 2866   7.217   0.244   2.737
    7CHTO   C21 2867   7.276   0.507   2.729
    7CHTO   H49 2868   7.369   0.489   2.675
    7CHTO    N4 2869   7.166   0.494   2.630
    7CHTO   H41 2870   7.178   0.567   2.551
    7CHTO   H42 2871   7.166   0.395   2.587
    7CHTO   C22 2872   7.285   0.649   2.791
    7CHTO   H50 2873   7.193   0.668   0.025
    7CHTO   O14 2874   7.397   0.656   0.061
    7CHTO   C23 2875   7.382   0.573   0.178
    7CHTO   H51 2876   7.291   0.606   0.231
    7CHTO   C34 2877   7.501   0.599   0.271
    7CHTO   O23 2878   7.501   0.734   0.320
    7CHTO   H38 2879   7.429   0.746   0.380
    7CHTO   O16 2880   7.308   0.751   2.692
    7CHTO   C24 2881   7.294   0.902   2.752
    7CHTO   H52 2882   7.313   0.905   0.039
    7CHTO   C26 2883   7.154   0.958   2.722
    7CHTO   H54 2884   7.138   0.958   2.612
    7CHTO   O20 2885   7.057   0.870   2.782
    7CHTO   H36 2886   6.970   0.897   2.759
    7CHTO   C30 2887   7.142   1.104   2.776
    7CHTO   H58 2888   7.149   1.104   0.065
    7CHTO    N6 2889   7.010   1.164   2.743
    7CHTO   H45 2890   7.004   1.265   2.781
    7CHTO   H46 2891   6.931   1.105   2.789
    7CHTO   C33 2892   7.261   1.192   2.725
    7CHTO   H61 2893   7.249   1.214   2.617
    7CHTO   O18 2894   7.387   1.124   2.743
    7CHTO   C28 2895   7.399   0.994   2.685
    7CHTO   H56 2896   7.380   0.998   2.578
    7CHTO   C35 2897   7.542   0.940   2.708
    7CHTO   O24 2898   7.641   1.015   2.637
    7CHTO   H39 2899   7.647   1.101   2.673
    7CHTO    O9 2900   7.262   1.321   2.791
    7CHTO   C13 2901   7.219   1.450   2.702
    7CHTO   H26 2902   7.128   1.424   2.644
    7CHTO   C11 2903   7.338   1.493   2.606
    7CHTO   H24 2904   7.347   1.416   2.528
    7CHTO    O8 2905   7.462   1.495   2.679
    7CHTO    H3 2906   7.533   1.512   2.621
    7CHTO    C9 2907   7.300   1.628   2.539
    7CHTO   H22 2908   7.203   1.611   2.491
    7CHTO    N2 2909   7.390   1.669   2.429
    7CHTO   H10 2910   7.476   1.603   2.421
    7CHTO   H11 2911   7.336   1.672   2.335
    7CHTO    C7 2912   7.282   1.737   2.651
    7CHTO   H20 2913   7.251   1.830   2.596
    7CHTO    O4 2914   7.175   1.700   2.740
    7CHTO   C14 2915   7.174   1.568   2.800
    7CHTO   H27 2916   7.068   1.549   0.006
    7CHTO   C18 2917   7.254   1.569   0.113
    7CHTO   O13 2918   7.188   1.649   0.211
    7CHTO    H7 2919   7.237   1.647   0.291
    7CHTO    O2 2920   7.419   1.766   2.739
    7CHTO    C1 2921   7.473   1.899   2.735
    7CHTO   H14 2922   7.413   1.963   2.666
    7CHTO    C2 2923   7.624   1.901   2.689
    7CHTO   H15 2924   7.675   1.825   2.750
    7CHTO    O6 2925   7.631   1.862   2.550
    7CHTO    H1 2926   7.586   1.924   2.497
    7CHTO    C3 2927   7.694   2.044   2.713
    7CHTO   H16 2928   7.650   2.118   2.643
    7CHTO    N1 2929   7.841   2.038   2.685
    7CHTO    H8 2930   7.899   2.061   2.774
    7CHTO    H9 2931   7.868   2.107   2.606
    7CHTO    C4 2932   7.660   2.097   0.038
    7CHTO   H17 2933   7.709   2.033   0.111
    7CHTO    O1 2934   7.518   2.095   0.058
    7CHTO    C5 2935   7.461   1.963   0.057
    7CHTO   H18 2936   7.513   1.899   0.128
    7CHTO   C16 2937   7.313   1.976   0.101
    7CHTO   O11 2938   7.303   2.029   0.234
    7CHTO    H5 2939   7.329   2.120   0.234
    7CHTO    O3 2940   7.694   2.236   0.059
    7CHTO    C6 2941   7.810   2.264   0.144
    7CHTO   H19 2942   7.876   2.177   0.155
    7CHTO    C8 2943   7.895   2.381   0.082
    7CHTO   H21 2944   7.830   2.468   0.071
    7CHTO    O7 2945   7.940   2.337   2.773
    7CHTO    H2 2946   7.983   2.408   2.728
    7CHTO   C12 2947   8.015   2.418   0.178
    7CHTO   H25 2948   8.083   2.330   0.178
    7CHTO    N3 2949   8.095   2.534   0.124
    7CHTO   H12 2950   8.133   2.510   0.026
    7CHTO   H13 2951   8.176   2.557   0.191
    7CHTO   C15 2952   7.963   2.442   0.324
    7CHTO   H28 2953   7.907   2.535   0.332
    7CHTO   O10 2954   8.077   2.442   0.429
    7CHTO    H4 2955   8.137   2.512   0.411
    7CHTO    O5 2956   7.883   2.332   0.369
    7CHTO   C10 2957   7.767   2.306   0.288
    7CHTO   H23 2958   7.707   2.397   0.282
    7CHTO   C17 2959   7.682   2.200   0.360
    7CHTO   O12 2960   7.633   2.247   0.486
    7CHTO    H6 2961   7.704   2.259   0.546
    8CHTO  H203 2962   7.628   8.388   1.524
    8CHTO   O82 2963   7.540   8.373   1.493
    8CHTO  C123 2964   7.474   8.277   1.577
    8CHTO  H227 2965   7.541   8.191   1.593
    8CHTO   O77 2966   7.455   8.349   1.703
    8CHTO  C118 2967   7.387   8.275   1.806
    8CHTO  H222 2968   7.442   8.181   1.824
    8CHTO  C125 2969   7.389   8.360   1.938
    8CHTO   O84 2970   7.318   8.484   1.921
    8CHTO  H205 2971   7.321   8.533   2.001
    8CHTO  C114 2972   7.245   8.243   1.758
    8CHTO  H218 2973   7.196   8.337   1.732
    8CHTO  C116 2974   7.250   8.157   1.628
    8CHTO  H220 2975   7.296   8.059   1.651
    8CHTO   O79 2976   7.116   8.129   1.584
    8CHTO  H201 2977   7.071   8.208   1.561
    8CHTO  C120 2978   7.335   8.232   1.517
    8CHTO  H224 2979   7.277   8.321   1.487
    8CHTO   N21 2980   7.352   8.150   1.393
    8CHTO  H211 2981   7.439   8.086   1.401
    8CHTO  H212 2982   7.263   8.091   1.375
    8CHTO   O75 2983   7.176   8.180   1.868
    8CHTO  C112 2984   7.020   8.238   1.879
    8CHTO  H216 2985   6.980   8.249   1.777
    8CHTO   O73 2986   7.025   8.364   1.948
    8CHTO  C113 2987   6.900   8.434   1.945
    8CHTO  H217 2988   6.874   8.454   1.840
    8CHTO  C124 2989   6.917   8.569   2.016
    8CHTO   O83 2990   7.013   8.655   1.954
    8CHTO  H204 2991   7.099   8.619   1.965
    8CHTO  C109 2992   6.787   8.352   2.014
    8CHTO  H213 2993   6.815   8.345   2.120
    8CHTO  C110 2994   6.782   8.207   1.956
    8CHTO  H214 2995   6.746   8.211   1.853
    8CHTO   O78 2996   6.687   8.133   2.034
    8CHTO  H200 2997   6.675   8.047   1.997
    8CHTO  C111 2998   6.924   8.143   1.959
    8CHTO  H215 2999   6.959   8.138   2.064
    8CHTO   N19 3000   6.930   8.004   1.906
    8CHTO  H207 3001   7.030   7.966   1.913
    8CHTO  H208 3002   6.864   7.941   1.963
    8CHTO   O74 3003   6.659   8.425   2.007
    8CHTO  C115 3004   6.570   8.430   1.866
    8CHTO  H219 3005   6.585   8.340   1.806
    8CHTO   O76 3006   6.416   8.433   1.896
    8CHTO  C122 3007   6.378   8.541   1.983
    8CHTO  H226 3008   6.406   8.512   2.084
    8CHTO  C126 3009   6.221   8.552   1.983
    8CHTO   O85 3010   6.166   8.581   1.854
    8CHTO  H206 3011   6.073   8.587   1.860
    8CHTO  C121 3012   6.446   8.680   1.946
    8CHTO  H225 3013   6.369   8.760   1.948
    8CHTO   O81 3014   6.544   8.715   2.044
    8CHTO  H202 3015   6.614   8.652   2.046
    8CHTO  C119 3016   6.509   8.677   1.803
    8CHTO  H223 3017   6.424   8.661   1.735
    8CHTO  C117 3018   6.611   8.558   1.784
    8CHTO  H221 3019   6.710   8.582   1.820
    8CHTO   N20 3020   6.631   8.526   1.638
    8CHTO  H209 3021   6.730   8.555   1.606
    8CHTO  H210 3022   6.556   8.575   1.576
    8CHTO   O80 3023   6.565   8.813   1.752
    8CHTO  C103 3024   6.472   8.933   1.733
    8CHTO  H190 3025   6.367   8.907   1.750
    8CHTO  C101 3026   6.510   9.059   1.821
    8CHTO  H188 3027   6.619   9.063   1.831
    8CHTO   O68 3028   6.453   9.039   1.963
    8CHTO  H168 3029   6.359   9.041   1.961
    8CHTO   C99 3030   6.463   9.199   1.757
    8CHTO  H186 3031   6.353   9.205   1.764
    8CHTO   N17 3032   6.517   9.320   1.827
    8CHTO  H174 3033   6.589   9.292   1.903
    8CHTO  H175 3034   6.437   9.378   1.870
    8CHTO   C97 3035   6.496   9.201   1.606
    8CHTO  H184 3036   6.606   9.195   1.594
    8CHTO   O64 3037   6.429   9.090   1.544
    8CHTO  C104 3038   6.487   8.964   1.578
    8CHTO  H191 3039   6.593   8.963   1.552
    8CHTO  C108 3040   6.421   8.855   1.491
    8CHTO   O71 3041   6.279   8.850   1.510
    8CHTO  H171 3042   6.243   8.783   1.455
    8CHTO   O62 3043   6.441   9.314   1.534
    8CHTO   C91 3044   6.531   9.385   1.446
    8CHTO  H178 3045   6.632   9.375   1.483
    8CHTO   C92 3046   6.497   9.537   1.454
    8CHTO  H179 3047   6.390   9.549   1.431
    8CHTO   O66 3048   6.514   9.580   1.590
    8CHTO  H166 3049   6.486   9.669   1.600
    8CHTO   C93 3050   6.584   9.626   1.356
    8CHTO  H180 3051   6.687   9.628   1.396
    8CHTO   N16 3052   6.540   9.767   1.351
    8CHTO  H172 3053   6.438   9.773   1.314
    8CHTO  H173 3054   6.606   9.825   1.288
    8CHTO   C94 3055   6.587   9.562   1.212
    8CHTO  H181 3056   6.490   9.568   1.163
    8CHTO   O61 3057   6.621   9.423   1.220
    8CHTO   C95 3058   6.527   9.344   1.293
    8CHTO  H182 3059   6.427   9.361   1.253
    8CHTO  C106 3060   6.561   9.193   1.268
    8CHTO   O69 3061   6.546   9.159   1.130
    8CHTO  H169 3062   6.455   9.161   1.106
    8CHTO   O63 3063   6.701   9.631   1.122
    8CHTO   C96 3064   6.663   9.635   0.970
    8CHTO  H183 3065   6.554   9.638   0.961
    8CHTO   C98 3066   6.715   9.518   0.884
    8CHTO  H185 3067   6.825   9.515   0.890
    8CHTO   O67 3068   6.671   9.393   0.940
    8CHTO  H167 3069   6.711   9.321   0.894
    8CHTO  C102 3070   6.667   9.528   0.731
    8CHTO  H189 3071   6.569   9.476   0.728
    8CHTO   N18 3072   6.752   9.456   0.634
    8CHTO  H176 3073   6.712   9.465   0.534
    8CHTO  H177 3074   6.758   9.351   0.661
    8CHTO  C105 3075   6.640   9.677   0.689
    8CHTO  H192 3076   6.668   9.691   0.584
    8CHTO   O65 3077   6.713   9.777   0.764
    8CHTO  C100 3078   6.719   9.768   0.908
    8CHTO  H187 3079   6.826   9.773   0.935
    8CHTO  C107 3080   6.652   9.894   0.971
    8CHTO   O70 3081   6.512   9.899   0.947
    8CHTO  H170 3082   6.496   9.915   0.855
    8CHTO   O57 3083   6.480   9.693   0.703
    8CHTO   C85 3084   6.410   9.769   0.603
    8CHTO  H157 3085   6.486   9.813   0.535
    8CHTO   C83 3086   6.340   9.891   0.671
    8CHTO  H155 3087   6.417   9.950   0.720
    8CHTO   O56 3088   6.251   9.845   0.775
    8CHTO  H135 3089   6.181   9.796   0.739
    8CHTO   C81 3090   6.272   9.978   0.561
    8CHTO  H153 3091   6.349   0.005   0.488
    8CHTO   N14 3092   6.224   0.108   0.615
    8CHTO  H141 3093   6.279   0.189   0.572
    8CHTO  H142 3094   6.120   0.122   0.594
    8CHTO   C79 3095   6.162   9.894   0.486
    8CHTO  H151 3096   6.128   9.954   0.402
    8CHTO   O52 3097   6.220   9.771   0.430
    8CHTO   C86 3098   6.299   9.689   0.523
    8CHTO  H158 3099   6.225   9.645   0.592
    8CHTO   C90 3100   6.363   9.570   0.447
    8CHTO   O60 3101   6.263   9.484   0.392
    8CHTO  H138 3102   6.304   9.414   0.346
    8CHTO   O50 3103   6.047   9.863   0.567
    8CHTO   C73 3104   5.907   9.832   0.577
    8CHTO  H145 3105   5.876   9.773   0.489
    8CHTO   C74 3106   5.819   9.960   0.584
    8CHTO  H146 3107   5.838   0.018   0.492
    8CHTO   O54 3108   5.682   9.919   0.579
    8CHTO  H133 3109   5.625   9.994   0.577
    8CHTO   C75 3110   5.856   0.042   0.714
    8CHTO  H147 3111   5.959   0.079   0.703
    8CHTO   N13 3112   5.775   0.164   0.734
    8CHTO  H139 3113   5.807   0.215   0.824
    8CHTO  H140 3114   5.787   0.231   0.650
    8CHTO   C76 3115   5.854   9.946   0.843
    8CHTO  H148 3116   5.750   9.924   0.867
    8CHTO   O49 3117   5.927   9.820   0.821
    8CHTO   C77 3118   5.884   9.747   0.705
    8CHTO  H149 3119   5.778   9.723   0.713
    8CHTO   C88 3120   5.958   9.613   0.700
    8CHTO   O58 3121   5.913   9.530   0.584
    8CHTO  H136 3122   5.941   9.569   0.504
    8CHTO   O51 3123   5.933   0.020   0.961
    8CHTO   C78 3124   5.925   9.951   1.100
    8CHTO  H150 3125   5.921   9.840   1.090
    8CHTO   C80 3126   5.800   9.999   1.176
    8CHTO  H152 3127   5.798   0.110   1.174
    8CHTO   O55 3128   5.684   9.952   1.105
    8CHTO  H134 3129   5.606   9.987   1.142
    8CHTO   C84 3130   5.797   9.950   1.326
    8CHTO  H156 3131   5.779   9.843   1.325
    8CHTO   N15 3132   5.685   0.013   1.404
    8CHTO  H143 3133   5.591   9.988   1.358
    8CHTO  H144 3134   5.685   9.976   1.504
    8CHTO   C87 3135   5.934   9.975   1.395
    8CHTO  H159 3136   5.948   0.081   1.414
    8CHTO   O53 3137   6.049   9.922   1.307
    8CHTO   C82 3138   6.053   9.986   1.179
    8CHTO  H154 3139   6.062   0.094   1.191
    8CHTO   C89 3140   6.179   9.938   1.102
    8CHTO   O59 3141   6.299   9.982   1.167
    8CHTO  H137 3142   6.310   9.937   1.248
    8CHTO   O45 3143   5.942   9.897   1.541
    8CHTO   C67 3144   5.967   9.756   1.536
    8CHTO  H124 3145   5.948   9.717   1.435
    8CHTO   C65 3146   6.115   9.723   1.577
    8CHTO  H122 3147   6.172   9.815   1.568
    8CHTO   O44 3148   6.167   9.625   1.486
    8CHTO  H102 3149   6.173   9.660   1.400
    8CHTO   C63 3150   6.122   9.681   1.729
    8CHTO  H120 3151   6.072   9.758   1.788
    8CHTO   N11 3152   6.258   9.679   1.793
    8CHTO  H108 3153   6.307   9.773   1.776
    8CHTO  H109 3154   6.316   9.600   1.751
    8CHTO   C61 3155   6.037   9.548   1.748
    8CHTO  H118 3156   6.007   9.545   1.854
    8CHTO   O40 3157   5.913   9.549   1.669
    8CHTO   C68 3158   5.864   9.681   1.630
    8CHTO  H125 3159   5.853   9.741   1.721
    8CHTO   C72 3160   5.724   9.666   1.568
    8CHTO   O48 3161   5.625   9.624   1.662
    8CHTO  H105 3162   5.642   9.536   1.689
    8CHTO   O38 3163   6.110   9.428   1.712
    8CHTO   C55 3164   6.041   9.303   1.729
    8CHTO  H112 3165   5.933   9.316   1.711
    8CHTO   C56 3166   6.070   9.237   1.871
    8CHTO  H113 3167   6.179   9.225   1.881
    8CHTO   O42 3168   6.029   9.327   1.976
    8CHTO  H100 3169   6.082   9.405   1.974
    8CHTO   C57 3170   5.996   9.098   1.883
    8CHTO  H114 3171   5.890   9.122   1.887
    8CHTO   N10 3172   6.030   9.024   2.007
    8CHTO  H106 3173   6.021   8.917   1.992
    8CHTO  H107 3174   5.964   9.053   2.087
    8CHTO   C58 3175   6.023   9.010   1.757
    8CHTO  H115 3176   6.128   8.970   1.762
    8CHTO   O37 3177   6.008   9.082   1.633
    8CHTO   C59 3178   6.086   9.202   1.620
    8CHTO  H116 3179   6.192   9.178   1.630
    8CHTO   C70 3180   6.064   9.259   1.479
    8CHTO   O46 3181   6.113   9.173   1.376
    8CHTO  H103 3182   6.207   9.169   1.379
    8CHTO   O39 3183   5.915   8.881   1.750
    8CHTO   C60 3184   5.774   8.912   1.736
    8CHTO  H117 3185   5.748   8.995   1.801
    8CHTO   C62 3186   5.735   8.954   1.590
    8CHTO  H119 3187   5.784   9.051   1.570
    8CHTO   O43 3188   5.783   8.856   1.497
    8CHTO  H101 3189   5.877   8.856   1.495
    8CHTO   C66 3190   5.576   8.978   1.581
    8CHTO  H123 3191   5.547   9.053   1.654
    8CHTO   N12 3192   5.534   9.031   1.449
    8CHTO  H110 3193   5.584   9.126   1.431
    8CHTO  H111 3194   5.427   9.042   1.446
    8CHTO   C69 3195   5.505   8.845   1.620
    8CHTO  H126 3196   5.541   8.763   1.554
    8CHTO   O41 3197   5.541   8.815   1.764
    8CHTO   C64 3198   5.690   8.790   1.783
    8CHTO  H121 3199   5.722   8.700   1.726
    8CHTO   C71 3200   5.715   8.761   1.933
    8CHTO   O47 3201   5.641   8.646   1.976
    8CHTO  H104 3202   5.677   8.569   1.938
    8CHTO   O34 3203   5.350   8.852   1.608
    8CHTO   C49 3204   5.233   8.880   1.696
    8CHTO   H91 3205   5.232   8.803   1.773
    8CHTO   C47 3206   5.106   8.870   1.609
    8CHTO   H89 3207   5.019   8.879   1.679
    8CHTO   O33 3208   5.101   8.740   1.548
    8CHTO   H70 3209   5.171   8.730   1.486
    8CHTO   C45 3210   5.105   8.992   1.503
    8CHTO   H87 3211   5.198   8.986   1.445
    8CHTO    N8 3212   4.991   8.984   1.408
    8CHTO   H75 3213   4.923   8.904   1.435
    8CHTO   H76 3214   5.027   8.968   1.308
    8CHTO   C43 3215   5.112   9.133   1.581
    8CHTO   H85 3216   5.127   9.208   1.503
    8CHTO   O29 3217   5.220   9.134   1.677
    8CHTO   C50 3218   5.244   9.020   1.762
    8CHTO   H92 3219   5.349   9.030   1.795
    8CHTO   C54 3220   5.168   9.026   1.898
    8CHTO   O36 3221   5.026   9.021   1.885
    8CHTO   H72 3222   4.987   9.025   1.971
    8CHTO   O27 3223   4.989   9.169   1.647
    8CHTO   C37 3224   4.928   9.294   1.685
    8CHTO   H79 3225   4.849   9.275   1.759
    8CHTO   C38 3226   5.031   9.391   1.751
    8CHTO   H80 3227   5.119   9.398   1.686
    8CHTO   O31 3228   5.071   9.333   1.877
    8CHTO   H68 3229   5.141   9.382   1.914
    8CHTO   C39 3230   4.972   9.535   1.774
    8CHTO   H81 3231   4.897   9.528   1.853
    8CHTO    N7 3232   5.075   9.634   1.821
    8CHTO   H73 3233   5.030   9.731   1.836
    8CHTO   H74 3234   5.120   9.600   1.913
    8CHTO   C40 3235   4.897   9.586   1.645
    8CHTO   H82 3236   4.970   9.610   1.567
    8CHTO   O26 3237   4.802   9.488   1.601
    8CHTO   C41 3238   4.865   9.363   1.561
    8CHTO   H83 3239   4.944   9.384   1.487
    8CHTO   C52 3240   4.758   9.276   1.489
    8CHTO   O35 3241   4.645   9.238   1.575
    8CHTO   H71 3242   4.596   9.314   1.599
    8CHTO   O28 3243   4.820   9.705   1.673
    8CHTO   C42 3244   4.777   9.797   1.567
    8CHTO   H84 3245   4.722   9.874   1.622
    8CHTO   C44 3246   4.676   9.739   1.462
    8CHTO   H86 3247   4.724   9.655   1.411
    8CHTO   O32 3248   4.562   9.691   1.535
    8CHTO   H69 3249   4.584   9.614   1.584
    8CHTO   C48 3250   4.638   9.847   1.353
    8CHTO   H90 3251   4.583   9.927   1.403
    8CHTO    N9 3252   4.543   9.792   1.249
    8CHTO   H77 3253   4.587   9.796   1.150
    8CHTO   H78 3254   4.450   9.846   1.251
    8CHTO   C51 3255   4.770   9.906   1.291
    8CHTO   H93 3256   4.826   9.824   1.246
    8CHTO   O30 3257   4.843   9.968   1.398
    8CHTO   C46 3258   4.896   9.869   1.497
    8CHTO   H88 3259   4.957   9.796   1.444
    8CHTO   C53 3260   4.982   9.947   1.598
    8CHTO   O72 3261   5.096   0.006   1.535
    8CHTO  H199 3262   5.146   0.054   1.598
    8CHTO   O22 3263   4.749   0.012   1.196
    8CHTO   C31 3264   4.850   0.042   1.092
    8CHTO   H59 3265   4.813   0.134   1.041
    8CHTO   C29 3266   4.992   0.075   1.145
    8CHTO   H57 3267   5.025   9.989   1.206
    8CHTO   O21 3268   4.980   0.187   1.235
    8CHTO   H37 3269   4.958   0.265   1.188
    8CHTO   C27 3270   5.097   0.099   1.029
    8CHTO   H55 3271   5.068   0.190   0.974
    8CHTO    N5 3272   5.235   0.117   1.080
    8CHTO   H43 3273   5.239   0.202   1.147
    8CHTO   H44 3274   5.268   0.028   1.131
    8CHTO   C25 3275   5.088   9.980   0.927
    8CHTO   H53 3276   5.118   9.887   0.978
    8CHTO   O17 3277   4.952   9.965   0.879
    8CHTO   C32 3278   4.857   9.932   0.982
    8CHTO   H60 3279   4.887   9.838   1.028
    8CHTO   C36 3280   4.719   9.909   0.915
    8CHTO   O25 3281   4.671   0.027   0.848
    8CHTO   H40 3282   4.589   0.008   0.808
    8CHTO   O15 3283   5.182   0.003   0.802
    8CHTO   C19 3284   5.213   9.933   0.678
    8CHTO   H47 3285   5.140   9.851   0.674
    8CHTO   C20 3286   5.199   0.023   0.552
    8CHTO   H48 3287   5.260   0.114   0.559
    8CHTO   O19 3288   5.061   0.063   0.546
    8CHTO   H35 3289   5.048   0.124   0.476
    8CHTO   C21 3290   5.241   9.947   0.418
    8CHTO   H49 3291   5.165   9.872   0.396
    8CHTO    N4 3292   5.244   0.037   0.300
    8CHTO   H41 3293   5.315   0.118   0.316
    8CHTO   H42 3294   5.146   0.079   0.282
    8CHTO   C22 3295   5.375   9.871   0.439
    8CHTO   H50 3296   5.456   9.943   0.445
    8CHTO   O14 3297   5.371   9.791   0.558
    8CHTO   C23 3298   5.354   9.866   0.679
    8CHTO   H51 3299   5.435   9.941   0.684
    8CHTO   C34 3300   5.372   9.771   0.798
    8CHTO   O23 3301   5.506   9.721   0.803
    8CHTO   H38 3302   5.515   9.663   0.876
    8CHTO   O16 3303   5.398   9.778   0.331
    8CHTO   C24 3304   5.540   9.699   0.334
    8CHTO   H52 3305   5.585   9.701   0.433
    8CHTO   C26 3306   5.637   9.762   0.232
    8CHTO   H54 3307   5.583   9.773   0.135
    8CHTO   O20 3308   5.669   9.894   0.280
    8CHTO   H36 3309   5.722   9.939   0.217
    8CHTO   C30 3310   5.763   9.674   0.210
    8CHTO   H58 3311   5.823   9.670   0.303
    8CHTO    N6 3312   5.853   9.731   0.106
    8CHTO   H45 3313   5.888   9.828   0.136
    8CHTO   H46 3314   5.800   9.740   0.012
    8CHTO   C33 3315   5.720   9.527   0.179
    8CHTO   H61 3316   5.661   9.526   0.086
    8CHTO   O18 3317   5.637   9.480   0.286
    8CHTO   C28 3318   5.513   9.550   0.300
    8CHTO   H56 3319   5.456   9.545   0.206
    8CHTO   C35 3320   5.428   9.481   0.410
    8CHTO   O24 3321   5.490   9.480   0.539
    8CHTO   H39 3322   5.565   9.423   0.537
    8CHTO    O9 3323   5.832   9.438   0.156
    8CHTO   C13 3324   5.809   9.335   0.030
    8CHTO   H26 3325   5.775   9.395   2.763
    8CHTO   C11 3326   5.704   9.222   0.069
    8CHTO   H24 3327   5.603   9.268   0.069
    8CHTO    O8 3328   5.730   9.172   0.202
    8CHTO    H3 3329   5.718   9.241   0.265
    8CHTO    C9 3330   5.710   9.111   2.780
    8CHTO   H22 3331   5.699   9.164   2.684
    8CHTO    N2 3332   5.595   9.018   2.783
    8CHTO   H10 3333   5.598   8.953   2.697
    8CHTO   H11 3334   5.597   8.960   0.055
    8CHTO    C7 3335   5.854   9.043   2.783
    8CHTO   H20 3336   5.876   9.026   2.676
    8CHTO    O4 3337   5.956   9.129   0.020
    8CHTO   C14 3338   5.946   9.268   2.802
    8CHTO   H27 3339   5.950   9.273   2.691
    8CHTO   C18 3340   6.071   9.344   0.034
    8CHTO   O13 3341   6.190   9.299   2.790
    8CHTO    H7 3342   6.209   9.211   2.816
    8CHTO    O2 3343   5.857   8.898   0.045
    8CHTO    C1 3344   5.979   8.823   0.033
    8CHTO   H14 3345   6.065   8.894   0.025
    8CHTO    C2 3346   5.982   8.726   2.728
    8CHTO   H15 3347   5.892   8.662   2.737
    8CHTO    O6 3348   5.973   8.803   2.607
    8CHTO    H1 3349   6.047   8.859   2.599
    8CHTO    C3 3350   6.114   8.634   2.730
    8CHTO   H16 3351   6.200   8.700   2.709
    8CHTO    N1 3352   6.111   8.529   2.621
    8CHTO    H8 3353   6.115   8.430   2.664
    8CHTO    H9 3354   6.194   8.543   2.554
    8CHTO    C4 3355   6.140   8.574   0.053
    8CHTO   H17 3356   6.069   8.492   0.071
    8CHTO    O1 3357   6.129   8.673   0.156
    8CHTO    C5 3358   6.002   8.740   0.163
    8CHTO   H18 3359   5.922   8.667   0.171
    8CHTO   C16 3360   6.005   8.826   0.292
    8CHTO   O11 3361   5.878   8.885   0.323
    8CHTO    H5 3362   5.817   8.818   0.347
    8CHTO    O3 3363   6.276   8.527   0.062
    8CHTO    C6 3364   6.303   8.417   0.156
    8CHTO   H19 3365   6.221   8.402   0.227
    8CHTO    C8 3366   6.324   8.284   0.076
    8CHTO   H21 3367   6.396   8.303   2.816
    8CHTO    O7 3368   6.197   8.246   0.020
    8CHTO    H2 3369   6.173   8.306   2.772
    8CHTO   C12 3370   6.384   8.170   0.170
    8CHTO   H25 3371   6.305   8.147   0.246
    8CHTO    N3 3372   6.409   8.043   0.092
    8CHTO   H12 3373   6.514   8.017   0.096
    8CHTO   H13 3374   6.349   7.963   0.132
    8CHTO   C15 3375   6.510   8.227   0.243
    8CHTO   H28 3376   6.589   8.253   0.173
    8CHTO   O10 3377   6.568   8.134   0.350
    8CHTO    H4 3378   6.599   8.055   0.310
    8CHTO    O5 3379   6.473   8.343   0.320
    8CHTO   C10 3380   6.429   8.453   0.239
    8CHTO   H23 3381   6.510   8.480   0.171
    8CHTO   C17 3382   6.407   8.575   0.331
    8CHTO   O12 3383   6.306   8.551   0.430
    8CHTO    H6 3384   6.222   8.543   0.390
    9CHTO  H203 3385   8.720   4.060   0.594
    9CHTO   O82 3386   8.668   3.983   0.590
    9CHTO  C123 3387   8.738   3.879   0.519
    9CHTO  H227 3388   8.832   3.856   0.574
    9CHTO   O77 3389   8.647   3.766   0.528
    9CHTO  C118 3390   8.698   3.644   0.471
    9CHTO  H222 3391   8.794   3.619   0.517
    9CHTO  C125 3392   8.595   3.529   0.501
    9CHTO   O84 3393   8.588   3.503   0.642
    9CHTO  H205 3394   8.525   3.436   0.658
    9CHTO  C114 3395   8.717   3.664   0.320
    9CHTO  H218 3396   8.620   3.686   0.275
    9CHTO  C116 3397   8.812   3.784   0.290
    9CHTO  H220 3398   8.915   3.756   0.321
    9CHTO   O79 3399   8.817   3.806   0.148
    9CHTO  H201 3400   8.733   3.830   0.115
    9CHTO  C120 3401   8.766   3.914   0.368
    9CHTO  H224 3402   8.671   3.947   0.320
    9CHTO   N21 3403   8.863   4.025   0.355
    9CHTO  H211 3404   8.914   4.020   0.260
    9CHTO  H212 3405   8.813   4.120   0.365
    9CHTO   O75 3406   8.767   3.538   0.271
    9CHTO  C112 3407   8.702   3.492   0.128
    9CHTO  H216 3408   8.675   3.582   0.070
    9CHTO   O73 3409   8.586   3.412   0.158
    9CHTO  C113 3410   8.515   3.366   0.042
    9CHTO  H217 3411   8.485   3.455   2.801
    9CHTO  C124 3412   8.386   3.296   0.087
    9CHTO   O83 3413   8.296   3.384   0.154
    9CHTO  H204 3414   8.220   3.336   0.182
    9CHTO  C109 3415   8.605   3.272   2.776
    9CHTO  H213 3416   8.625   3.184   0.018
    9CHTO  C110 3417   8.739   3.345   2.740
    9CHTO  H214 3418   8.717   3.424   2.668
    9CHTO   O78 3419   8.828   3.253   2.675
    9CHTO  H200 3420   8.850   3.182   2.732
    9CHTO  C111 3421   8.806   3.407   0.047
    9CHTO  H215 3422   8.840   3.325   0.112
    9CHTO   N19 3423   8.926   3.489   0.015
    9CHTO  H207 3424   8.970   3.528   0.106
    9CHTO  H208 3425   9.000   3.429   2.783
    9CHTO   O74 3426   8.531   3.231   2.657
    9CHTO  C115 3427   8.582   3.096   2.589
    9CHTO  H219 3428   8.668   3.054   2.643
    9CHTO   O76 3429   8.470   2.982   2.591
    9CHTO  C122 3430   8.354   3.010   2.510
    9CHTO  H226 3431   8.299   3.093   2.557
    9CHTO  C126 3432   8.260   2.885   2.519
    9CHTO   O85 3433   8.132   2.904   2.457
    9CHTO  H206 3434   8.083   2.967   2.505
    9CHTO  C121 3435   8.394   3.046   2.361
    9CHTO  H225 3436   8.440   2.957   2.315
    9CHTO   O81 3437   8.277   3.080   2.285
    9CHTO  H202 3438   8.235   3.155   2.321
    9CHTO  C119 3439   8.498   3.163   2.360
    9CHTO  H223 3440   8.527   3.178   2.256
    9CHTO  C117 3441   8.628   3.132   2.443
    9CHTO  H221 3442   8.695   3.217   2.457
    9CHTO   N20 3443   8.714   3.024   2.384
    9CHTO  H209 3444   8.668   2.982   2.295
    9CHTO  H210 3445   8.812   3.062   2.361
    9CHTO   O80 3446   8.432   3.297   2.393
    9CHTO  C103 3447   8.512   3.436   2.376
    9CHTO  H190 3448   8.569   3.459   2.466
    9CHTO  C101 3449   8.605   3.456   2.248
    9CHTO  H188 3450   8.553   3.417   2.161
    9CHTO   O68 3451   8.736   3.374   2.267
    9CHTO  H168 3452   8.785   3.407   2.339
    9CHTO   C99 3453   8.637   3.611   2.222
    9CHTO  H186 3454   8.696   3.651   2.308
    9CHTO   N17 3455   8.718   3.637   2.098
    9CHTO  H174 3456   8.814   3.680   2.124
    9CHTO  H175 3457   8.665   3.700   2.028
    9CHTO   C97 3458   8.503   3.690   2.222
    9CHTO  H184 3459   8.442   3.651   2.139
    9CHTO   O64 3460   8.439   3.672   2.350
    9CHTO  C104 3461   8.392   3.538   2.369
    9CHTO  H191 3462   8.325   3.509   2.288
    9CHTO  C108 3463   8.307   3.534   2.497
    9CHTO   O71 3464   8.188   3.611   2.480
    9CHTO  H171 3465   8.136   3.605   2.558
    9CHTO   O62 3466   8.519   3.833   2.212
    9CHTO   C91 3467   8.420   3.899   2.130
    9CHTO  H178 3468   8.425   3.853   2.032
    9CHTO   C92 3469   8.462   4.049   2.110
    9CHTO  H179 3470   8.569   4.055   2.087
    9CHTO   O66 3471   8.396   4.098   1.992
    9CHTO  H166 3472   8.302   4.094   2.002
    9CHTO   C93 3473   8.422   4.142   2.231
    9CHTO  H180 3474   8.428   4.246   2.194
    9CHTO   N16 3475   8.519   4.137   2.343
    9CHTO  H172 3476   8.617   4.166   2.309
    9CHTO  H173 3477   8.486   4.202   2.423
    9CHTO   C94 3478   8.273   4.114   2.278
    9CHTO  H181 3479   8.269   4.073   2.380
    9CHTO   O61 3480   8.205   4.020   2.193
    9CHTO   C95 3481   8.270   3.892   2.185
    9CHTO  H182 3482   8.270   3.847   2.285
    9CHTO  C106 3483   8.181   3.797   2.097
    9CHTO   O69 3484   8.161   3.851   1.966
    9CHTO  H169 3485   8.108   3.792   1.916
    9CHTO   O63 3486   8.196   4.244   2.272
    9CHTO   C96 3487   8.071   4.257   2.372
    9CHTO  H183 3488   8.109   4.247   2.474
    9CHTO   C98 3489   7.957   4.150   2.354
    9CHTO  H185 3490   7.940   4.134   2.247
    9CHTO   O67 3491   8.007   4.025   2.405
    9CHTO  H167 3492   7.945   3.957   2.388
    9CHTO  C102 3493   7.820   4.191   2.428
    9CHTO  H189 3494   7.841   4.186   2.536
    9CHTO   N18 3495   7.707   4.097   2.405
    9CHTO  H176 3496   7.683   4.093   2.300
    9CHTO  H177 3497   7.620   4.129   2.461
    9CHTO  C105 3498   7.786   4.338   2.392
    9CHTO  H192 3499   7.770   4.345   2.284
    9CHTO   O65 3500   7.894   4.425   2.429
    9CHTO  C100 3501   8.015   4.403   2.355
    9CHTO  H187 3502   7.993   4.419   2.248
    9CHTO  C107 3503   8.119   4.510   2.397
    9CHTO   O70 3504   8.152   4.502   2.536
    9CHTO  H170 3505   8.199   4.423   2.553
    9CHTO   O57 3506   7.651   4.383   2.471
    9CHTO   C85 3507   7.575   4.495   2.422
    9CHTO  H157 3508   7.567   4.480   2.312
    9CHTO   C83 3509   7.655   4.628   2.440
    9CHTO  H155 3510   7.741   4.626   2.372
    9CHTO   O56 3511   7.711   4.635   2.573
    9CHTO  H135 3512   7.642   4.641   2.637
    9CHTO   C81 3513   7.565   4.749   2.402
    9CHTO  H153 3514   7.529   4.733   2.301
    9CHTO   N14 3515   7.639   4.877   2.394
    9CHTO  H141 3516   7.574   4.955   2.360
    9CHTO  H142 3517   7.721   4.868   2.327
    9CHTO   C79 3518   7.441   4.753   2.498
    9CHTO  H151 3519   7.379   4.838   2.468
    9CHTO   O52 3520   7.361   4.633   2.478
    9CHTO   C86 3521   7.433   4.506   2.491
    9CHTO  H158 3522   7.442   4.492   2.601
    9CHTO   C90 3523   7.342   4.390   2.443
    9CHTO   O60 3524   7.305   4.407   2.305
    9CHTO  H138 3525   7.251   4.335   2.278
    9CHTO   O50 3526   7.473   4.768   2.638
    9CHTO   C73 3527   7.451   4.819   2.771
    9CHTO  H145 3528   7.343   4.835   2.787
    9CHTO   C74 3529   7.526   4.954   2.792
    9CHTO  H146 3530   7.486   5.025   2.717
    9CHTO   O54 3531   7.489   5.006   0.101
    9CHTO  H133 3532   7.528   5.090   0.114
    9CHTO   C75 3533   7.681   4.931   2.775
    9CHTO  H147 3534   7.700   4.899   2.671
    9CHTO   N13 3535   7.764   5.052   2.794
    9CHTO  H139 3536   7.820   5.074   2.704
    9CHTO  H140 3537   7.703   5.138   2.818
    9CHTO   C76 3538   7.730   4.810   0.049
    9CHTO  H148 3539   7.732   4.845   0.152
    9CHTO   O49 3540   7.643   4.692   0.039
    9CHTO   C77 3541   7.503   4.716   0.056
    9CHTO  H149 3542   7.485   4.756   0.156
    9CHTO   C88 3543   7.430   4.581   0.051
    9CHTO   O58 3544   7.285   4.597   0.077
    9CHTO  H136 3545   7.243   4.513   0.072
    9CHTO   O51 3546   7.869   4.758   2.817
    9CHTO   C78 3547   7.952   4.684   0.106
    9CHTO  H150 3548   7.888   4.657   0.194
    9CHTO   C80 3549   8.066   4.776   0.154
    9CHTO  H152 3550   8.121   4.813   0.064
    9CHTO   O55 3551   8.007   4.890   0.219
    9CHTO  H134 3552   7.962   4.864   0.297
    9CHTO   C84 3553   8.168   4.700   0.248
    9CHTO  H156 3554   8.115   4.673   0.340
    9CHTO   N15 3555   8.285   4.786   0.288
    9CHTO  H143 3556   8.350   4.731   0.353
    9CHTO  H144 3557   8.340   4.816   0.201
    9CHTO   C87 3558   8.213   4.569   0.178
    9CHTO  H159 3559   8.268   4.594   0.087
    9CHTO   O53 3560   8.088   4.486   0.144
    9CHTO   C82 3561   8.007   4.553   0.046
    9CHTO  H154 3562   8.066   4.574   2.777
    9CHTO   C89 3563   7.892   4.459   0.003
    9CHTO   O59 3564   7.943   4.345   2.753
    9CHTO  H137 3565   7.872   4.289   2.729
    9CHTO   O45 3566   8.311   4.481   0.276
    9CHTO   C67 3567   8.333   4.342   0.245
    9CHTO  H124 3568   8.245   4.286   0.276
    9CHTO   C65 3569   8.362   4.312   0.093
    9CHTO  H122 3570   8.372   4.409   0.044
    9CHTO   O44 3571   8.246   4.247   0.040
    9CHTO  H102 3572   8.253   4.239   2.767
    9CHTO   C63 3573   8.502   4.244   0.068
    9CHTO  H120 3574   8.580   4.315   0.095
    9CHTO   N11 3575   8.539   4.217   2.745
    9CHTO  H108 3576   8.452   4.222   2.683
    9CHTO  H109 3577   8.611   4.288   2.710
    9CHTO   C61 3578   8.526   4.122   0.167
    9CHTO  H118 3579   8.636   4.112   0.170
    9CHTO   O40 3580   8.483   4.151   0.303
    9CHTO   C68 3581   8.451   4.289   0.336
    9CHTO  H125 3582   8.542   4.352   0.320
    9CHTO   C72 3583   8.416   4.298   0.487
    9CHTO   O48 3584   8.527   4.265   0.571
    9CHTO  H105 3585   8.502   4.273   0.661
    9CHTO   O38 3586   8.473   3.994   0.125
    9CHTO   C55 3587   8.341   3.947   0.159
    9CHTO  H112 3588   8.274   4.033   0.177
    9CHTO   C56 3589   8.344   3.847   0.284
    9CHTO  H113 3590   8.414   3.766   0.258
    9CHTO   O42 3591   8.398   3.912   0.400
    9CHTO  H100 3592   8.488   3.936   0.386
    9CHTO   C57 3593   8.200   3.788   0.313
    9CHTO  H114 3594   8.139   3.872   0.348
    9CHTO   N10 3595   8.199   3.684   0.419
    9CHTO  H106 3596   8.103   3.683   0.469
    9CHTO  H107 3597   8.218   3.586   0.377
    9CHTO   C58 3598   8.137   3.734   0.182
    9CHTO  H115 3599   8.190   3.640   0.151
    9CHTO   O37 3600   8.145   3.830   0.075
    9CHTO   C59 3601   8.279   3.868   0.040
    9CHTO  H116 3602   8.338   3.779   0.018
    9CHTO   C70 3603   8.271   3.952   2.731
    9CHTO   O46 3604   8.222   3.879   2.619
    9CHTO  H103 3605   8.283   3.812   2.594
    9CHTO   O39 3606   7.978   3.709   0.200
    9CHTO   C60 3607   7.934   3.573   0.188
    9CHTO  H117 3608   8.019   3.504   0.200
    9CHTO   C62 3609   7.830   3.542   0.300
    9CHTO  H119 3610   7.882   3.560   0.397
    9CHTO   O43 3611   7.719   3.633   0.290
    9CHTO  H101 3612   7.673   3.621   0.209
    9CHTO   C66 3613   7.788   3.387   0.291
    9CHTO  H123 3614   7.878   3.326   0.298
    9CHTO   N12 3615   7.702   3.346   0.405
    9CHTO  H110 3616   7.610   3.403   0.406
    9CHTO  H111 3617   7.681   3.240   0.400
    9CHTO   C69 3618   7.722   3.359   0.154
    9CHTO  H126 3619   7.625   3.413   0.145
    9CHTO   O41 3620   7.819   3.405   0.037
    9CHTO   C64 3621   7.873   3.546   0.048
    9CHTO  H121 3622   7.791   3.619   0.029
    9CHTO   C71 3623   7.979   3.563   2.756
    9CHTO   O47 3624   7.920   3.551   2.626
    9CHTO  H104 3625   7.986   3.562   2.561
    9CHTO   O34 3626   7.694   3.203   0.135
    9CHTO   C49 3627   7.771   3.108   0.039
    9CHTO   H91 3628   7.754   3.145   2.758
    9CHTO   C47 3629   7.714   2.966   0.055
    9CHTO   H89 3630   7.766   2.905   2.797
    9CHTO   O33 3631   7.573   2.964   0.026
    9CHTO   H70 3632   7.558   2.986   2.756
    9CHTO   C45 3633   7.743   2.908   0.204
    9CHTO   H87 3634   7.659   2.938   0.269
    9CHTO    N8 3635   7.745   2.759   0.199
    9CHTO   H75 3636   7.836   2.721   0.243
    9CHTO   H76 3637   7.736   2.722   0.098
    9CHTO   C43 3638   7.873   2.979   0.267
    9CHTO   H85 3639   7.835   3.073   0.309
    9CHTO   O29 3640   7.970   3.003   0.163
    9CHTO   C50 3641   7.926   3.102   0.068
    9CHTO   H92 3642   7.959   3.200   0.104
    9CHTO   C54 3643   8.010   3.082   2.759
    9CHTO   O36 3644   7.989   3.187   2.664
    9CHTO   H72 3645   8.042   3.172   2.588
    9CHTO   O27 3646   7.931   2.910   0.379
    9CHTO   C37 3647   8.005   2.957   0.494
    9CHTO   H79 3648   8.042   2.871   0.551
    9CHTO   C38 3649   8.130   3.041   0.451
    9CHTO   H80 3650   8.097   3.117   0.378
    9CHTO   O31 3651   8.223   2.952   0.387
    9CHTO   H68 3652   8.188   2.924   0.304
    9CHTO   C39 3653   8.197   3.114   0.574
    9CHTO   H81 3654   8.241   3.038   0.639
    9CHTO    N7 3655   8.308   3.208   0.535
    9CHTO   H73 3656   8.387   3.153   0.485
    9CHTO   H74 3657   8.270   3.285   0.469
    9CHTO   C40 3658   8.087   3.189   0.658
    9CHTO   H82 3659   8.044   3.270   0.598
    9CHTO   O26 3660   7.986   3.094   0.698
    9CHTO   C41 3661   7.911   3.041   0.585
    9CHTO   H83 3662   7.868   3.124   0.527
    9CHTO   C52 3663   7.794   2.956   0.641
    9CHTO   O35 3664   7.697   3.038   0.719
    9CHTO   H71 3665   7.654   3.099   0.662
    9CHTO   O28 3666   8.134   3.244   0.783
    9CHTO   C42 3667   8.066   3.361   0.841
    9CHTO   H84 3668   8.101   3.362   0.944
    9CHTO   C44 3669   7.909   3.353   0.850
    9CHTO   H86 3670   7.870   3.330   0.750
    9CHTO   O32 3671   7.878   3.242   0.937
    9CHTO   H69 3672   7.900   3.161   0.895
    9CHTO   C48 3673   7.841   3.487   0.898
    9CHTO   H90 3674   7.870   3.505   1.002
    9CHTO    N9 3675   7.691   3.478   0.897
    9CHTO   H77 3676   7.648   3.570   0.933
    9CHTO   H78 3677   7.656   3.457   0.797
    9CHTO   C51 3678   7.897   3.605   0.810
    9CHTO   H93 3679   7.874   3.582   0.705
    9CHTO   O30 3680   8.038   3.614   0.833
    9CHTO   C46 3681   8.114   3.494   0.776
    9CHTO   H88 3682   8.097   3.490   0.668
    9CHTO   C53 3683   8.265   3.517   0.805
    9CHTO   O72 3684   8.313   3.637   0.744
    9CHTO  H199 3685   8.316   3.626   0.651
    9CHTO   O22 3686   7.844   3.734   0.846
    9CHTO   C31 3687   7.841   3.848   0.752
    9CHTO   H59 3688   7.784   3.929   0.804
    9CHTO   C29 3689   7.980   3.906   0.717
    9CHTO   H57 3690   8.038   3.827   0.668
    9CHTO   O21 3691   8.048   3.938   0.840
    9CHTO   H37 3692   8.065   3.860   0.889
    9CHTO   C27 3693   7.969   4.031   0.620
    9CHTO   H55 3694   7.917   4.112   0.674
    9CHTO    N5 3695   8.102   4.083   0.576
    9CHTO   H43 3696   8.110   4.084   0.468
    9CHTO   H44 3697   8.182   4.025   0.619
    9CHTO   C25 3698   7.878   3.994   0.498
    9CHTO   H53 3699   7.929   3.918   0.436
    9CHTO   O17 3700   7.750   3.939   0.542
    9CHTO   C32 3701   7.762   3.820   0.620
    9CHTO   H60 3702   7.816   3.744   0.563
    9CHTO   C36 3703   7.620   3.768   0.650
    9CHTO   O25 3704   7.559   3.717   0.531
    9CHTO   H40 3705   7.473   3.685   0.551
    9CHTO   O15 3706   7.848   4.122   0.407
    9CHTO   C19 3707   7.784   4.129   0.276
    9CHTO   H47 3708   7.804   4.232   0.243
    9CHTO   C20 3709   7.845   4.030   0.172
    9CHTO   H48 3710   7.839   3.925   0.206
    9CHTO   O19 3711   7.984   4.064   0.158
    9CHTO   H35 3712   8.031   4.039   0.235
    9CHTO   C21 3713   7.771   4.039   0.032
    9CHTO   H49 3714   7.792   4.137   2.808
    9CHTO    N4 3715   7.819   3.938   2.754
    9CHTO   H41 3716   7.802   3.838   2.793
    9CHTO   H42 3717   7.925   3.951   2.736
    9CHTO   C22 3718   7.617   4.032   0.054
    9CHTO   H50 3719   7.592   3.932   0.090
    9CHTO   O14 3720   7.575   4.131   0.150
    9CHTO   C23 3721   7.629   4.114   0.281
    9CHTO   H51 3722   7.599   4.014   0.318
    9CHTO   C34 3723   7.567   4.219   0.375
    9CHTO   O23 3724   7.425   4.202   0.387
    9CHTO   H38 3725   7.383   4.230   0.307
    9CHTO   O16 3726   7.544   4.064   2.754
    9CHTO   C24 3727   7.401   3.987   2.745
    9CHTO   H52 3728   7.374   3.940   0.019
    9CHTO   C26 3729   7.409   3.881   2.634
    9CHTO   H54 3730   7.441   3.931   2.539
    9CHTO   O20 3731   7.511   3.785   2.671
    9CHTO   H36 3732   7.524   3.723   2.602
    9CHTO   C30 3733   7.271   3.812   2.610
    9CHTO   H58 3734   7.248   3.746   2.696
    9CHTO    N6 3735   7.274   3.722   2.491
    9CHTO   H45 3736   7.295   3.779   2.402
    9CHTO   H46 3737   7.179   3.672   2.480
    9CHTO   C33 3738   7.154   3.915   2.603
    9CHTO   H61 3739   7.154   3.967   2.506
    9CHTO   O18 3740   7.165   4.014   2.707
    9CHTO   C28 3741   7.288   4.087   2.711
    9CHTO   H56 3742   7.309   4.133   2.614
    9CHTO   C35 3743   7.277   4.198   2.818
    9CHTO   O24 3744   7.179   4.297   2.784
    9CHTO   H39 3745   7.094   4.259   2.787
    9CHTO    O9 3746   7.027   3.846   2.609
    9CHTO   C13 3747   6.893   3.929   2.577
    9CHTO   H26 3748   6.911   3.989   2.485
    9CHTO   C11 3749   6.856   4.022   2.701
    9CHTO   H24 3750   6.930   4.104   2.705
    9CHTO    O8 3751   6.867   3.948   0.004
    9CHTO    H3 3752   6.956   3.921   0.018
    9CHTO    C9 3753   6.716   4.085   2.677
    9CHTO   H22 3754   6.723   4.137   2.580
    9CHTO    N2 3755   6.677   4.190   2.775
    9CHTO   H10 3756   6.671   4.286   2.726
    9CHTO   H11 3757   6.746   4.193   0.038
    9CHTO    C7 3758   6.611   3.970   2.664
    9CHTO   H20 3759   6.515   4.022   2.643
    9CHTO    O4 3760   6.643   3.885   2.552
    9CHTO   C14 3761   6.775   3.828   2.540
    9CHTO   H27 3762   6.786   3.801   2.434
    9CHTO   C18 3763   6.778   3.694   2.620
    9CHTO   O13 3764   6.886   3.609   2.580
    9CHTO    H7 3765   6.872   3.579   2.492
    9CHTO    O2 3766   6.596   3.877   2.801
    9CHTO    C1 3767   6.467   3.824   0.015
    9CHTO   H14 3768   6.484   3.734   0.078
    9CHTO    C2 3769   6.374   3.781   2.713
    9CHTO   H15 3770   6.361   3.869   2.649
    9CHTO    O6 3771   6.441   3.677   2.638
    9CHTO    H1 3772   6.453   3.601   2.691
    9CHTO    C3 3773   6.232   3.731   2.767
    9CHTO   H16 3774   6.248   3.640   0.005
    9CHTO    N1 3775   6.137   3.696   2.655
    9CHTO    H8 3776   6.043   3.662   2.696
    9CHTO    H9 3777   6.180   3.618   2.594
    9CHTO    C4 3778   6.170   3.837   0.046
    9CHTO   H17 3779   6.140   3.925   2.810
    9CHTO    O1 3780   6.264   3.872   0.148
    9CHTO    C5 3781   6.392   3.925   0.107
    9CHTO   H18 3782   6.378   4.019   0.053
    9CHTO   C16 3783   6.466   3.954   0.241
    9CHTO   O11 3784   6.592   4.018   0.224
    9CHTO    H5 3785   6.652   3.961   0.180
    9CHTO    O3 3786   6.059   3.781   0.121
    9CHTO    C6 3787   5.944   3.869   0.142
    9CHTO   H19 3788   5.962   3.971   0.108
    9CHTO    C8 3789   5.821   3.813   0.062
    9CHTO   H21 3790   5.813   3.706   0.082
    9CHTO    O7 3791   5.848   3.832   2.742
    9CHTO    H2 3792   5.854   3.923   2.721
    9CHTO   C12 3793   5.685   3.883   0.104
    9CHTO   H25 3794   5.688   3.985   0.061
    9CHTO    N3 3795   5.568   3.812   0.040
    9CHTO   H12 3796   5.500   3.773   0.115
    9CHTO   H13 3797   5.515   3.880   2.794
    9CHTO   C15 3798   5.674   3.895   0.260
    9CHTO   H28 3799   5.660   3.797   0.307
    9CHTO   O10 3800   5.560   3.990   0.306
    9CHTO    H4 3801   5.568   4.073   0.264
    9CHTO    O5 3802   5.792   3.958   0.312
    9CHTO   C10 3803   5.909   3.879   0.295
    9CHTO   H23 3804   5.891   3.780   0.338
    9CHTO   C17 3805   6.020   3.944   0.379
    9CHTO   O12 3806   6.129   3.855   0.402
    9CHTO    H6 3807   6.103   3.786   0.459
   10CHTO  H203 3808   5.385   6.180   2.717
   10CHTO   O82 3809   5.355   6.269   2.726
   10CHTO  C123 3810   5.226   6.285   2.664
   10CHTO  H227 3811   5.229   6.238   2.564
   10CHTO   O77 3812   5.136   6.210   2.751
   10CHTO  C118 3813   4.998   6.211   2.711
   10CHTO  H222 3814   4.989   6.173   2.608
   10CHTO  C125 3815   4.919   6.116   2.807
   10CHTO   O84 3816   4.959   5.980   2.786
   10CHTO  H205 3817   4.929   5.950   2.702
   10CHTO  C114 3818   4.945   6.356   2.715
   10CHTO  H218 3819   4.960   6.395   2.816
   10CHTO  C116 3820   5.028   6.444   2.617
   10CHTO  H220 3821   5.013   6.406   2.513
   10CHTO   O79 3822   4.976   6.578   2.619
   10CHTO  H201 3823   4.987   6.616   2.703
   10CHTO  C120 3824   5.182   6.437   2.654
   10CHTO  H224 3825   5.193   6.485   2.754
   10CHTO   N21 3826   5.266   6.514   2.558
   10CHTO  H211 3827   5.274   6.616   2.592
   10CHTO  H212 3828   5.364   6.470   2.549
   10CHTO   O75 3829   4.806   6.349   2.682
   10CHTO  C112 3830   4.708   6.426   2.792
   10CHTO  H216 3831   4.760   6.515   0.011
   10CHTO   O73 3832   4.679   6.332   0.077
   10CHTO  C113 3833   4.596   6.383   0.181
   10CHTO  H217 3834   4.642   6.475   0.222
   10CHTO  C124 3835   4.592   6.281   0.296
   10CHTO   O83 3836   4.547   6.151   0.256
   10CHTO  H204 3837   4.548   6.094   0.330
   10CHTO  C109 3838   4.454   6.418   0.126
   10CHTO  H213 3839   4.410   6.323   0.091
   10CHTO  C110 3840   4.469   6.519   0.008
   10CHTO  H214 3841   4.500   6.615   0.050
   10CHTO   O78 3842   4.340   6.539   2.768
   10CHTO  H200 3843   4.344   6.607   2.703
   10CHTO  C111 3844   4.573   6.471   2.723
   10CHTO  H215 3845   4.532   6.383   2.671
   10CHTO   N19 3846   4.602   6.572   2.618
   10CHTO  H207 3847   4.673   6.533   2.547
   10CHTO  H208 3848   4.511   6.599   2.566
   10CHTO   O74 3849   4.372   6.471   0.235
   10CHTO  C115 3850   4.207   6.455   0.218
   10CHTO  H219 3851   4.170   6.508   0.130
   10CHTO   O76 3852   4.166   6.310   0.197
   10CHTO  C122 3853   4.194   6.230   0.312
   10CHTO  H226 3854   4.300   6.244   0.336
   10CHTO  C126 3855   4.178   6.079   0.276
   10CHTO   O85 3856   4.273   6.037   0.177
   10CHTO  H206 3857   4.359   6.037   0.213
   10CHTO  C121 3858   4.106   6.271   0.437
   10CHTO  H225 3859   4.020   6.201   0.444
   10CHTO   O81 3860   4.187   6.252   0.553
   10CHTO  H202 3861   4.259   6.312   0.554
   10CHTO  C119 3862   4.051   6.418   0.430
   10CHTO  H223 3863   3.954   6.410   0.379
   10CHTO  C117 3864   4.143   6.518   0.350
   10CHTO  H221 3865   4.229   6.552   0.407
   10CHTO   N20 3866   4.066   6.644   0.319
   10CHTO  H209 3867   4.070   6.667   0.213
   10CHTO  H210 3868   4.104   6.726   0.377
   10CHTO   O80 3869   4.005   6.475   0.579
   10CHTO  C103 3870   3.847   6.486   0.625
   10CHTO  H190 3871   3.843   6.535   0.722
   10CHTO  C101 3872   3.747   6.564   0.533
   10CHTO  H188 3873   3.739   6.514   0.436
   10CHTO   O68 3874   3.800   6.708   0.512
   10CHTO  H168 3875   3.743   6.755   0.454
   10CHTO   C99 3876   3.602   6.564   0.603
   10CHTO  H186 3877   3.610   6.619   0.699
   10CHTO   N17 3878   3.495   6.634   0.524
   10CHTO  H174 3879   3.526   6.735   0.502
   10CHTO  H175 3880   3.475   6.579   0.433
   10CHTO   C97 3881   3.558   6.419   0.641
   10CHTO  H184 3882   3.527   6.366   0.550
   10CHTO   O64 3883   3.663   6.348   0.711
   10CHTO  C104 3884   3.791   6.341   0.645
   10CHTO  H191 3885   3.784   6.291   0.548
   10CHTO  C108 3886   3.885   6.254   0.731
   10CHTO   O71 3887   3.839   6.119   0.735
   10CHTO  H171 3888   3.899   6.067   0.785
   10CHTO   O62 3889   3.449   6.423   0.736
   10CHTO   C91 3890   3.373   6.302   0.755
   10CHTO  H178 3891   3.368   6.251   0.658
   10CHTO   C92 3892   3.225   6.342   0.790
   10CHTO  H179 3893   3.189   6.419   0.720
   10CHTO   O66 3894   3.141   6.228   0.767
   10CHTO  H166 3895   3.138   6.207   0.675
   10CHTO   C93 3896   3.204   6.385   0.941
   10CHTO  H180 3897   3.098   6.370   0.964
   10CHTO   N16 3898   3.227   6.530   0.963
   10CHTO  H172 3899   3.209   6.555   1.067
   10CHTO  H173 3900   3.161   6.588   0.900
   10CHTO   C94 3901   3.291   6.297   1.039
   10CHTO  H181 3902   3.378   6.350   1.077
   10CHTO   O61 3903   3.340   6.178   0.974
   10CHTO   C95 3904   3.431   6.203   0.866
   10CHTO  H182 3905   3.523   6.247   0.907
   10CHTO  C106 3906   3.471   6.065   0.803
   10CHTO   O69 3907   3.541   5.984   0.898
   10CHTO  H169 3908   3.565   5.903   0.858
   10CHTO   O63 3909   3.201   6.249   1.160
   10CHTO   C96 3910   3.278   6.184   1.293
   10CHTO  H183 3911   3.297   6.265   1.362
   10CHTO   C98 3912   3.413   6.109   1.271
   10CHTO  H185 3913   3.401   6.037   1.188
   10CHTO   O67 3914   3.511   6.204   1.226
   10CHTO  H167 3915   3.526   6.269   1.291
   10CHTO  C102 3916   3.467   6.034   1.403
   10CHTO  H189 3917   3.499   6.114   1.472
   10CHTO   N18 3918   3.586   5.948   1.382
   10CHTO  H176 3919   3.669   6.008   1.347
   10CHTO  H177 3920   3.564   5.871   1.310
   10CHTO  C105 3921   3.351   5.957   1.474
   10CHTO  H192 3922   3.326   5.868   1.416
   10CHTO   O65 3923   3.232   6.037   1.487
   10CHTO  C100 3924   3.178   6.084   1.363
   10CHTO  H187 3925   3.163   5.997   1.297
   10CHTO  C107 3926   3.038   6.145   1.388
   10CHTO   O70 3927   3.040   6.250   1.486
   10CHTO  H170 3928   2.953   6.283   1.498
   10CHTO   O57 3929   3.411   5.913   1.624
   10CHTO   C85 3930   3.329   5.913   1.741
   10CHTO  H157 3931   3.225   5.892   1.708
   10CHTO   C83 3932   3.326   6.058   1.801
   10CHTO  H155 3933   3.281   6.125   1.727
   10CHTO   O56 3934   3.462   6.104   1.820
   10CHTO  H135 3935   3.462   6.193   1.847
   10CHTO   C81 3936   3.239   6.059   1.930
   10CHTO  H153 3937   3.140   6.021   1.904
   10CHTO   N14 3938   3.214   6.195   1.983
   10CHTO  H141 3939   3.169   6.256   1.907
   10CHTO  H142 3940   3.306   6.241   2.014
   10CHTO   C79 3941   3.302   5.962   2.037
   10CHTO  H151 3942   3.234   5.959   2.122
   10CHTO   O52 3943   3.308   5.826   1.982
   10CHTO   C86 3944   3.377   5.812   1.854
   10CHTO  H158 3945   3.485   5.827   1.879
   10CHTO   C90 3946   3.365   5.665   1.808
   10CHTO   O60 3947   3.445   5.636   1.693
   10CHTO  H138 3948   3.434   5.546   1.669
   10CHTO   O50 3949   3.432   6.001   2.084
   10CHTO   C73 3950   3.487   6.002   2.216
   10CHTO  H145 3951   3.442   5.923   2.277
   10CHTO   C74 3952   3.459   6.140   2.286
   10CHTO  H146 3953   3.350   6.155   2.285
   10CHTO   O54 3954   3.498   6.130   2.424
   10CHTO  H133 3955   3.442   6.071   2.470
   10CHTO   C75 3956   3.534   6.254   2.207
   10CHTO  H147 3957   3.495   6.258   2.105
   10CHTO   N13 3958   3.513   6.390   2.263
   10CHTO  H139 3959   3.566   6.463   2.204
   10CHTO  H140 3960   3.551   6.394   2.364
   10CHTO   C76 3961   3.690   6.217   2.197
   10CHTO  H148 3962   3.731   6.218   2.298
   10CHTO   O49 3963   3.708   6.084   2.138
   10CHTO   C77 3964   3.641   5.979   2.211
   10CHTO  H149 3965   3.680   5.974   2.313
   10CHTO   C88 3966   3.675   5.844   2.147
   10CHTO   O58 3967   3.822   5.815   2.156
   10CHTO  H136 3968   3.870   5.875   2.102
   10CHTO   O51 3969   3.765   6.316   2.095
   10CHTO   C78 3970   3.918   6.371   2.132
   10CHTO  H150 3971   3.991   6.336   2.055
   10CHTO   C80 3972   3.970   6.328   2.271
   10CHTO  H152 3973   3.893   6.356   2.348
   10CHTO   O55 3974   3.983   6.185   2.269
   10CHTO  H134 3975   4.005   6.153   2.355
   10CHTO   C84 3976   4.108   6.397   2.309
   10CHTO  H156 3977   4.184   6.355   2.244
   10CHTO   N15 3978   4.150   6.368   2.450
   10CHTO  H143 3979   4.245   6.414   2.470
   10CHTO  H144 3980   4.078   6.406   2.519
   10CHTO   C87 3981   4.102   6.550   2.282
   10CHTO  H159 3982   4.039   6.599   2.356
   10CHTO   O53 3983   4.048   6.576   2.140
   10CHTO   C82 3984   3.915   6.525   2.122
   10CHTO  H154 3985   3.848   6.566   2.197
   10CHTO   C89 3986   3.863   6.570   1.984
   10CHTO   O59 3987   3.843   6.712   1.980
   10CHTO  H137 3988   3.771   6.736   2.035
   10CHTO   O45 3989   4.251   6.614   2.288
   10CHTO   C67 3990   4.256   6.756   2.269
   10CHTO  H124 3991   4.186   6.784   2.190
   10CHTO   C65 3992   4.218   6.833   2.400
   10CHTO  H122 3993   4.230   6.762   2.482
   10CHTO   O44 3994   4.078   6.867   2.390
   10CHTO  H102 3995   4.066   6.937   2.327
   10CHTO   C63 3996   4.318   6.950   2.434
   10CHTO  H120 3997   4.413   6.906   2.467
   10CHTO   N11 3998   4.282   7.034   2.553
   10CHTO  H108 3999   4.286   7.138   2.529
   10CHTO  H109 4000   4.347   7.014   2.636
   10CHTO   C61 4001   4.352   7.029   2.303
   10CHTO  H118 4002   4.429   7.103   2.329
   10CHTO   O40 4003   4.408   6.944   2.199
   10CHTO   C68 4004   4.398   6.799   2.215
   10CHTO  H125 4005   4.477   6.765   2.285
   10CHTO   C72 4006   4.427   6.731   2.078
   10CHTO   O48 4007   4.560   6.758   2.031
   10CHTO  H105 4008   4.573   6.714   1.949
   10CHTO   O38 4009   4.236   7.095   2.246
   10CHTO   C55 4010   4.251   7.221   2.175
   10CHTO  H112 4011   4.156   7.236   2.122
   10CHTO   C56 4012   4.376   7.226   2.076
   10CHTO  H113 4013   4.465   7.196   2.133
   10CHTO   O42 4014   4.356   7.127   1.974
   10CHTO  H100 4015   4.433   7.121   1.919
   10CHTO   C57 4016   4.396   7.370   2.014
   10CHTO  H114 4017   4.314   7.385   1.944
   10CHTO   N10 4018   4.523   7.383   1.938
   10CHTO  H106 4019   4.604   7.413   2.003
   10CHTO  H107 4020   4.512   7.456   1.859
   10CHTO   C58 4021   4.387   7.479   2.125
   10CHTO  H115 4022   4.477   7.471   2.191
   10CHTO   O37 4023   4.268   7.464   2.204
   10CHTO   C59 4024   4.260   7.340   2.276
   10CHTO  H116 4025   4.347   7.329   2.341
   10CHTO   C70 4026   4.136   7.347   2.367
   10CHTO   O46 4027   4.014   7.376   2.297
   10CHTO  H103 4028   3.943   7.378   2.359
   10CHTO   O39 4029   4.377   7.627   2.060
   10CHTO   C60 4030   4.438   7.730   2.140
   10CHTO  H117 4031   4.421   7.709   2.245
   10CHTO   C62 4032   4.592   7.737   2.116
   10CHTO  H119 4033   4.633   7.638   2.147
   10CHTO   O43 4034   4.618   7.753   1.975
   10CHTO  H101 4035   4.585   7.835   1.945
   10CHTO   C66 4036   4.656   7.852   2.206
   10CHTO  H123 4037   4.628   7.835   2.310
   10CHTO   N12 4038   4.805   7.851   2.203
   10CHTO  H110 4039   4.841   7.757   2.242
   10CHTO  H111 4040   4.840   7.868   2.103
   10CHTO   C69 4041   4.596   7.989   2.164
   10CHTO  H126 4042   4.618   8.010   2.057
   10CHTO   O41 4043   4.441   7.983   2.185
   10CHTO   C64 4044   4.371   7.867   2.109
   10CHTO  H121 4045   4.376   7.885   1.999
   10CHTO   C71 4046   4.222   7.864   2.151
   10CHTO   O47 4047   4.154   7.982   2.108
   10CHTO  H104 4048   4.064   7.978   2.134
   10CHTO   O34 4049   4.652   8.107   2.249
   10CHTO   C49 4050   4.678   8.250   2.291
   10CHTO   H91 4051   4.728   8.245   2.388
   10CHTO   C47 4052   4.543   8.323   2.306
   10CHTO   H89 4053   4.565   8.421   2.354
   10CHTO   O33 4054   4.460   8.247   2.396
   10CHTO   H70 4055   4.381   8.293   2.415
   10CHTO   C45 4056   4.477   8.347   2.161
   10CHTO   H87 4057   4.473   8.249   2.110
   10CHTO    N8 4058   4.339   8.402   2.167
   10CHTO   H75 4059   4.311   8.425   2.269
   10CHTO   H76 4060   4.330   8.490   2.106
   10CHTO   C43 4061   4.577   8.436   2.072
   10CHTO   H85 4062   4.533   8.440   1.972
   10CHTO   O29 4063   4.710   8.378   2.070
   10CHTO   C50 4064   4.770   8.324   2.189
   10CHTO   H92 4065   4.842   8.250   2.154
   10CHTO   C54 4066   4.864   8.427   2.259
   10CHTO   O36 4067   4.794   8.538   2.316
   10CHTO   H72 4068   4.856   8.596   2.357
   10CHTO   O27 4069   4.583   8.574   2.116
   10CHTO   C37 4070   4.642   8.698   2.074
   10CHTO   H79 4071   4.750   8.697   2.093
   10CHTO   C38 4072   4.621   8.725   1.922
   10CHTO   H80 4073   4.513   8.720   1.900
   10CHTO   O31 4074   4.688   8.620   1.850
   10CHTO   H68 4075   4.669   8.627   1.759
   10CHTO   C39 4076   4.677   8.867   1.881
   10CHTO   H81 4077   4.786   8.864   1.893
   10CHTO    N7 4078   4.651   8.902   1.737
   10CHTO   H73 4079   4.545   8.902   1.717
   10CHTO   H74 4080   4.701   8.831   1.672
   10CHTO   C40 4081   4.622   8.979   1.977
   10CHTO   H82 4082   4.517   8.997   1.956
   10CHTO   O26 4083   4.644   8.942   2.114
   10CHTO   C41 4084   4.579   8.817   2.153
   10CHTO   H83 4085   4.472   8.823   2.131
   10CHTO   C52 4086   4.594   8.801   2.306
   10CHTO   O35 4087   4.526   8.909   2.382
   10CHTO   H71 4088   4.569   8.991   2.366
   10CHTO   O28 4089   4.696   9.102   1.962
   10CHTO   C42 4090   4.639   9.231   2.003
   10CHTO   H84 4091   4.571   9.208   2.085
   10CHTO   C44 4092   4.554   9.305   1.895
   10CHTO   H86 4093   4.617   9.325   1.808
   10CHTO   O32 4094   4.448   9.216   1.856
   10CHTO   H69 4095   4.399   9.253   1.785
   10CHTO   C48 4096   4.499   9.445   1.947
   10CHTO   H90 4097   4.427   9.425   2.026
   10CHTO    N9 4098   4.421   9.519   1.841
   10CHTO   H77 4099   4.417   9.463   1.749
   10CHTO   H78 4100   4.463   9.617   1.824
   10CHTO   C51 4101   4.617   9.530   2.006
   10CHTO   H93 4102   4.685   9.555   1.925
   10CHTO   O30 4103   4.682   9.455   2.110
   10CHTO   C46 4104   4.748   9.327   2.059
   10CHTO   H88 4105   4.817   9.353   1.979
   10CHTO   C53 4106   4.828   9.264   2.176
   10CHTO   O72 4107   4.744   9.231   2.288
   10CHTO  H199 4108   4.687   9.161   2.265
   10CHTO   O22 4109   4.570   9.649   2.072
   10CHTO   C31 4110   4.651   9.773   2.080
   10CHTO   H59 4111   4.600   9.837   2.155
   10CHTO   C29 4112   4.796   9.752   2.130
   10CHTO   H57 4113   4.847   9.685   2.059
   10CHTO   O21 4114   4.792   9.684   2.257
   10CHTO   H37 4115   4.758   9.597   2.246
   10CHTO   C27 4116   4.876   9.888   2.139
   10CHTO   H55 4117   4.831   9.949   2.219
   10CHTO    N5 4118   5.019   9.867   2.170
   10CHTO   H43 4119   5.069   9.963   2.181
   10CHTO   H44 4120   5.029   9.811   2.262
   10CHTO   C25 4121   4.859   9.969   2.005
   10CHTO   H53 4122   4.911   9.916   1.923
   10CHTO   O17 4123   4.719   9.981   1.968
   10CHTO   C32 4124   4.653   9.855   1.948
   10CHTO   H60 4125   4.705   9.798   1.871
   10CHTO   C36 4126   4.510   9.886   1.896
   10CHTO   O25 4127   4.513   9.949   1.768
   10CHTO   H40 4128   4.542   9.888   1.703
   10CHTO   O15 4129   4.915   0.112   2.019
   10CHTO   C19 4130   4.966   0.204   1.919
   10CHTO   H47 4131   4.939   0.160   1.822
   10CHTO   C20 4132   4.905   0.347   1.929
   10CHTO   H48 4133   4.920   0.392   2.028
   10CHTO   O19 4134   4.763   0.334   1.909
   10CHTO   H35 4135   4.744   0.303   1.823
   10CHTO   C21 4136   4.968   0.446   1.822
   10CHTO   H49 4137   4.937   0.413   1.722
   10CHTO    N4 4138   4.921   0.586   1.837
   10CHTO   H41 4139   4.946   0.623   1.935
   10CHTO   H42 4140   4.813   0.590   1.824
   10CHTO   C22 4141   5.123   0.436   1.825
   10CHTO   H50 4142   5.160   0.481   1.917
   10CHTO   O14 4143   5.167   0.299   1.816
   10CHTO   C23 4144   5.121   0.213   1.921
   10CHTO   H51 4145   5.158   0.253   2.016
   10CHTO   C34 4146   5.186   0.076   1.902
   10CHTO   O23 4147   5.325   0.080   1.933
   10CHTO   H38 4148   5.363   9.996   1.917
   10CHTO   O16 4149   5.182   0.501   1.710
   10CHTO   C24 4150   5.344   0.518   1.718
   10CHTO   H52 4151   5.387   0.459   1.799
   10CHTO   C26 4152   5.376   0.668   1.740
   10CHTO   H54 4153   5.324   0.727   1.661
   10CHTO   O20 4154   5.324   0.708   1.868
   10CHTO   H36 4155   5.230   0.707   1.866
   10CHTO   C30 4156   5.530   0.697   1.729
   10CHTO   H58 4157   5.580   0.657   1.818
   10CHTO    N6 4158   5.558   0.843   1.730
   10CHTO   H45 4159   5.665   0.860   1.726
   10CHTO   H46 4160   5.512   0.890   1.644
   10CHTO   C33 4161   5.594   0.625   1.606
   10CHTO   H61 4162   5.562   0.675   1.513
   10CHTO   O18 4163   5.551   0.488   1.600
   10CHTO   C28 4164   5.410   0.469   1.586
   10CHTO   H56 4165   5.371   0.527   1.503
   10CHTO   C35 4166   5.386   0.318   1.560
   10CHTO   O24 4167   5.251   0.289   1.522
   10CHTO   H39 4168   5.193   0.304   1.594
   10CHTO    O9 4169   5.738   0.635   1.609
   10CHTO   C13 4170   5.810   0.642   1.461
   10CHTO   H26 4171   5.763   0.726   1.406
   10CHTO   C11 4172   5.795   0.504   1.383
   10CHTO   H24 4173   5.691   0.498   1.346
   10CHTO    O8 4174   5.818   0.393   1.471
   10CHTO    H3 4175   5.752   0.390   1.538
   10CHTO    C9 4176   5.893   0.506   1.262
   10CHTO   H22 4177   5.872   0.600   1.209
   10CHTO    N2 4178   5.866   0.401   1.161
   10CHTO   H10 4179   5.763   0.407   1.128
   10CHTO   H11 4180   5.886   0.304   1.202
   10CHTO    C7 4181   6.042   0.511   1.316
   10CHTO   H20 4182   6.094   0.575   1.243
   10CHTO    O4 4183   6.051   0.571   1.448
   10CHTO   C14 4184   5.965   0.683   1.472
   10CHTO   H27 4185   5.987   0.760   1.394
   10CHTO   C18 4186   6.005   0.744   1.608
   10CHTO   O13 4187   5.933   0.865   1.635
   10CHTO    H7 4188   5.842   0.845   1.651
   10CHTO    O2 4189   6.116   0.363   1.322
   10CHTO    C1 4190   6.255   0.366   1.358
   10CHTO   H14 4191   6.273   0.451   1.428
   10CHTO    C2 4192   6.353   0.381   1.235
   10CHTO   H15 4193   6.321   0.305   1.161
   10CHTO    O6 4194   6.335   0.512   1.178
   10CHTO    H1 4195   6.384   0.520   1.098
   10CHTO    C3 4196   6.506   0.359   1.276
   10CHTO   H16 4197   6.539   0.448   1.331
   10CHTO    N1 4198   6.597   0.347   1.157
   10CHTO    H8 4199   6.699   0.335   1.189
   10CHTO    H9 4200   6.568   0.262   1.097
   10CHTO    C4 4201   6.523   0.238   1.376
   10CHTO   H17 4202   6.514   0.144   1.320
   10CHTO    O1 4203   6.426   0.242   1.481
   10CHTO    C5 4204   6.289   0.237   1.437
   10CHTO   H18 4205   6.275   0.152   1.370
   10CHTO   C16 4206   6.198   0.219   1.561
   10CHTO   O11 4207   6.221   0.092   1.624
   10CHTO    H5 4208   6.189   0.023   1.568
   10CHTO    O3 4209   6.650   0.245   1.443
   10CHTO    C6 4210   6.699   0.117   1.496
   10CHTO   H19 4211   6.622   0.040   1.498
   10CHTO    C8 4212   6.819   0.064   1.411
   10CHTO   H21 4213   6.896   0.142   1.409
   10CHTO    O7 4214   6.770   0.042   1.277
   10CHTO    H2 4215   6.706   9.974   1.275
   10CHTO   C12 4216   6.879   9.933   1.475
   10CHTO   H25 4217   6.801   9.855   1.463
   10CHTO    N3 4218   7.000   9.885   1.399
   10CHTO   H12 4219   7.088   9.886   1.461
   10CHTO   H13 4220   6.983   9.786   1.360
   10CHTO   C15 4221   6.905   9.954   1.628
   10CHTO   H28 4222   6.993   0.016   1.647
   10CHTO   O10 4223   6.920   9.825   1.701
   10CHTO    H4 4224   6.997   9.780   1.672
   10CHTO    O5 4225   6.791   0.010   1.696
   10CHTO   C10 4226   6.746   0.135   1.643
   10CHTO   H23 4227   6.828   0.207   1.647
   10CHTO   C17 4228   6.634   0.188   1.734
   10CHTO   O12 4229   6.683   0.218   1.866
   10CHTO    H6 4230   6.704   0.138   1.911
   11CHTO  H203 4231   7.964   5.114   0.614
   11CHTO   O82 4232   7.871   5.126   0.610
   11CHTO  C123 4233   7.837   5.264   0.635
   11CHTO  H227 4234   7.885   5.326   0.557
   11CHTO   O77 4235   7.692   5.265   0.617
   11CHTO  C118 4236   7.634   5.395   0.628
   11CHTO  H222 4237   7.683   5.465   0.558
   11CHTO  C125 4238   7.481   5.384   0.590
   11CHTO   O84 4239   7.465   5.345   0.453
   11CHTO  H205 4240   7.373   5.339   0.433
   11CHTO  C114 4241   7.652   5.446   0.772
   11CHTO  H218 4242   7.599   5.379   0.840
   11CHTO  C116 4243   7.802   5.448   0.813
   11CHTO  H220 4244   7.853   5.531   0.758
   11CHTO   O79 4245   7.812   5.482   0.953
   11CHTO  H201 4246   7.772   5.416   1.006
   11CHTO  C120 4247   7.874   5.311   0.780
   11CHTO  H224 4248   7.836   5.237   0.855
   11CHTO   N21 4249   8.022   5.321   0.798
   11CHTO  H211 4250   8.057   5.421   0.776
   11CHTO  H212 4251   8.048   5.293   0.899
   11CHTO   O75 4252   7.592   5.577   0.774
   11CHTO  C112 4253   7.499   5.606   0.903
   11CHTO  H216 4254   7.546   5.561   0.993
   11CHTO   O73 4255   7.371   5.548   0.876
   11CHTO  C113 4256   7.270   5.572   0.976
   11CHTO  H217 4257   7.307   5.534   1.074
   11CHTO  C124 4258   7.146   5.491   0.938
   11CHTO   O83 4259   7.169   5.350   0.944
   11CHTO  H204 4260   7.090   5.304   0.923
   11CHTO  C109 4261   7.242   5.724   0.987
   11CHTO  H213 4262   7.208   5.757   0.887
   11CHTO  C110 4263   7.374   5.796   1.026
   11CHTO  H214 4264   7.404   5.763   1.126
   11CHTO   O78 4265   7.349   5.938   1.032
   11CHTO  H200 4266   7.425   5.983   1.064
   11CHTO  C111 4267   7.487   5.762   0.924
   11CHTO  H215 4268   7.460   5.806   0.826
   11CHTO   N19 4269   7.620   5.819   0.960
   11CHTO  H207 4270   7.654   5.886   0.882
   11CHTO  H208 4271   7.616   5.871   1.054
   11CHTO   O74 4272   7.136   5.752   1.084
   11CHTO  C115 4273   6.994   5.806   1.016
   11CHTO  H219 4274   7.008   5.839   0.913
   11CHTO   O76 4275   6.887   5.692   1.009
   11CHTO  C122 4276   6.756   5.728   0.962
   11CHTO  H226 4277   6.692   5.641   0.979
   11CHTO  C126 4278   6.759   5.750   0.806
   11CHTO   O85 4279   6.629   5.773   0.751
   11CHTO  H206 4280   6.577   5.696   0.758
   11CHTO  C121 4281   6.697   5.851   1.041
   11CHTO  H225 4282   6.605   5.885   0.989
   11CHTO   O81 4283   6.657   5.806   1.171
   11CHTO  H202 4284   6.608   5.872   1.215
   11CHTO  C119 4285   6.796   5.971   1.050
   11CHTO  H223 4286   6.806   6.004   0.947
   11CHTO  C117 4287   6.940   5.929   1.099
   11CHTO  H221 4288   6.948   5.899   1.203
   11CHTO   N20 4289   7.034   6.045   1.083
   11CHTO  H209 4290   7.132   6.019   1.122
   11CHTO  H210 4291   7.041   6.074   0.979
   11CHTO   O80 4292   6.730   6.104   1.120
   11CHTO  C103 4293   6.699   6.107   1.279
   11CHTO  H190 4294   6.682   6.007   1.319
   11CHTO  C101 4295   6.807   6.180   1.369
   11CHTO  H188 4296   6.844   6.268   1.316
   11CHTO   O68 4297   6.924   6.085   1.390
   11CHTO  H168 4298   6.995   6.130   1.433
   11CHTO   C99 4299   6.747   6.228   1.510
   11CHTO  H186 4300   6.719   6.139   1.571
   11CHTO   N17 4301   6.844   6.309   1.593
   11CHTO  H174 4302   6.800   6.332   1.689
   11CHTO  H175 4303   6.936   6.254   1.605
   11CHTO   C97 4304   6.615   6.305   1.485
   11CHTO  H184 4305   6.638   6.394   1.423
   11CHTO   O64 4306   6.522   6.216   1.419
   11CHTO  C104 4307   6.561   6.184   1.285
   11CHTO  H191 4308   6.569   6.275   1.226
   11CHTO  C108 4309   6.449   6.101   1.220
   11CHTO   O71 4310   6.419   5.982   1.293
   11CHTO  H171 4311   6.379   6.003   1.375
   11CHTO   O62 4312   6.547   6.344   1.606
   11CHTO   C91 4313   6.450   6.449   1.590
   11CHTO  H178 4314   6.405   6.439   1.492
   11CHTO   C92 4315   6.522   6.589   1.593
   11CHTO  H179 4316   6.622   6.582   1.547
   11CHTO   O66 4317   6.448   6.679   1.509
   11CHTO  H166 4318   6.495   6.760   1.498
   11CHTO   C93 4319   6.530   6.654   1.737
   11CHTO  H180 4320   6.565   6.756   1.721
   11CHTO   N16 4321   6.631   6.591   1.825
   11CHTO  H172 4322   6.585   6.547   1.912
   11CHTO  H173 4323   6.705   6.664   1.855
   11CHTO   C94 4324   6.385   6.660   1.801
   11CHTO  H181 4325   6.385   6.629   1.906
   11CHTO   O61 4326   6.288   6.576   1.734
   11CHTO   C95 4327   6.334   6.445   1.699
   11CHTO  H182 4328   6.371   6.395   1.789
   11CHTO  C106 4329   6.211   6.360   1.649
   11CHTO   O69 4330   6.249   6.225   1.618
   11CHTO  H169 4331   6.304   6.224   1.542
   11CHTO   O63 4332   6.334   6.805   1.789
   11CHTO   C96 4333   6.365   6.895   1.914
   11CHTO  H183 4334   6.427   6.840   1.985
   11CHTO   C98 4335   6.236   6.941   1.988
   11CHTO  H185 4336   6.169   6.990   1.916
   11CHTO   O67 4337   6.165   6.825   2.034
   11CHTO  H167 4338   6.216   6.778   2.098
   11CHTO  C102 4339   6.268   7.040   2.111
   11CHTO  H189 4340   6.300   6.974   2.193
   11CHTO   N18 4341   6.150   7.114   2.164
   11CHTO  H176 4342   6.135   7.090   2.268
   11CHTO  H177 4343   6.061   7.091   2.108
   11CHTO  C105 4344   6.387   7.134   2.076
   11CHTO  H192 4345   6.365   7.236   2.110
   11CHTO   O65 4346   6.415   7.144   1.935
   11CHTO  C100 4347   6.447   7.022   1.865
   11CHTO  H187 4348   6.419   7.039   1.760
   11CHTO  C107 4349   6.600   6.997   1.868
   11CHTO   O70 4350   6.670   7.099   1.796
   11CHTO  H170 4351   6.762   7.081   1.799
   11CHTO   O57 4352   6.510   7.076   2.162
   11CHTO   C85 4353   6.564   7.157   2.267
   11CHTO  H157 4354   6.478   7.206   2.317
   11CHTO   C83 4355   6.650   7.273   2.207
   11CHTO  H155 4356   6.585   7.334   2.143
   11CHTO   O56 4357   6.752   7.219   2.122
   11CHTO  H135 4358   6.799   7.288   2.079
   11CHTO   C81 4359   6.703   7.362   2.324
   11CHTO  H153 4360   6.617   7.398   2.380
   11CHTO   N14 4361   6.770   7.486   2.276
   11CHTO  H141 4362   6.704   7.541   2.212
   11CHTO  H142 4363   6.796   7.547   2.360
   11CHTO   C79 4364   6.792   7.276   2.421
   11CHTO  H151 4365   6.816   7.339   2.507
   11CHTO   O52 4366   6.716   7.162   2.473
   11CHTO   C86 4367   6.654   7.078   2.370
   11CHTO  H158 4368   6.739   7.029   2.319
   11CHTO   C90 4369   6.572   6.964   2.435
   11CHTO   O60 4370   6.657   6.875   2.510
   11CHTO  H138 4371   6.711   6.826   2.451
   11CHTO   O50 4372   6.915   7.230   2.363
   11CHTO   C73 4373   7.032   7.179   2.430
   11CHTO  H145 4374   7.002   7.112   2.512
   11CHTO   C74 4375   7.115   7.296   2.491
   11CHTO  H146 4376   7.049   7.351   2.560
   11CHTO   O54 4377   7.220   7.240   2.573
   11CHTO  H133 4378   7.268   7.308   2.615
   11CHTO   C75 4379   7.168   7.388   2.374
   11CHTO  H147 4380   7.081   7.428   2.320
   11CHTO   N13 4381   7.244   7.507   2.420
   11CHTO  H139 4382   7.275   7.566   2.335
   11CHTO  H140 4383   7.332   7.476   2.475
   11CHTO   C76 4384   7.252   7.298   2.272
   11CHTO  H148 4385   7.341   7.262   2.325
   11CHTO   O49 4386   7.173   7.184   2.226
   11CHTO   C77 4387   7.120   7.099   2.329
   11CHTO  H149 4388   7.202   7.052   2.383
   11CHTO   C88 4389   7.043   6.985   2.261
   11CHTO   O58 4390   6.987   6.890   2.360
   11CHTO  H136 4391   6.940   6.822   2.315
   11CHTO   O51 4392   7.286   7.377   2.141
   11CHTO   C78 4393   7.429   7.347   2.086
   11CHTO  H150 4394   7.471   7.257   2.135
   11CHTO   C80 4395   7.522   7.468   2.114
   11CHTO  H152 4396   7.469   7.561   2.083
   11CHTO   O55 4397   7.542   7.473   2.257
   11CHTO  H134 4398   7.463   7.499   2.300
   11CHTO   C84 4399   7.660   7.457   2.038
   11CHTO  H156 4400   7.715   7.374   2.082
   11CHTO   N15 4401   7.744   7.580   2.053
   11CHTO  H143 4402   7.837   7.567   2.001
   11CHTO  H144 4403   7.765   7.598   2.157
   11CHTO   C87 4404   7.634   7.423   1.889
   11CHTO  H159 4405   7.584   7.506   1.841
   11CHTO   O53 4406   7.549   7.296   1.881
   11CHTO   C82 4407   7.418   7.317   1.936
   11CHTO  H154 4408   7.369   7.398   1.883
   11CHTO   C89 4409   7.334   7.189   1.909
   11CHTO   O59 4410   7.392   7.071   1.966
   11CHTO  H137 4411   7.472   7.050   1.921
   11CHTO   O45 4412   7.773   7.390   1.811
   11CHTO   C67 4413   7.752   7.373   1.670
   11CHTO  H124 4414   7.653   7.330   1.654
   11CHTO   C65 4415   7.759   7.511   1.594
   11CHTO  H122 4416   7.824   7.575   1.654
   11CHTO   O44 4417   7.625   7.563   1.597
   11CHTO  H102 4418   7.625   7.651   1.565
   11CHTO   C63 4419   7.831   7.501   1.454
   11CHTO  H120 4420   7.938   7.496   1.470
   11CHTO   N11 4421   7.820   7.622   1.367
   11CHTO  H108 4422   7.883   7.612   1.281
   11CHTO  H109 4423   7.719   7.636   1.335
   11CHTO   C61 4424   7.790   7.365   1.385
   11CHTO  H118 4425   7.850   7.358   1.292
   11CHTO   O40 4426   7.824   7.248   1.466
   11CHTO   C68 4427   7.853   7.269   1.608
   11CHTO  H125 4428   7.956   7.309   1.618
   11CHTO   C72 4429   7.850   7.133   1.681
   11CHTO   O48 4430   7.722   7.068   1.677
   11CHTO  H105 4431   7.660   7.117   1.728
   11CHTO   O38 4432   7.649   7.361   1.354
   11CHTO   C55 4433   7.608   7.260   1.259
   11CHTO  H112 4434   7.677   7.175   1.264
   11CHTO   C56 4435   7.600   7.322   1.113
   11CHTO  H113 4436   7.536   7.411   1.119
   11CHTO   O42 4437   7.730   7.367   1.072
   11CHTO  H100 4438   7.758   7.438   1.126
   11CHTO   C57 4439   7.540   7.218   1.010
   11CHTO  H114 4440   7.614   7.138   0.998
   11CHTO   N10 4441   7.514   7.274   0.875
   11CHTO  H106 4442   7.524   7.197   0.800
   11CHTO  H107 4443   7.585   7.353   0.853
   11CHTO   C58 4444   7.411   7.156   1.068
   11CHTO  H115 4445   7.331   7.234   1.072
   11CHTO   O37 4446   7.433   7.104   1.200
   11CHTO   C59 4447   7.468   7.204   1.297
   11CHTO  H116 4448   7.393   7.284   1.297
   11CHTO   C70 4449   7.467   7.135   1.434
   11CHTO   O46 4450   7.460   7.227   1.543
   11CHTO  H103 4451   7.376   7.268   1.545
   11CHTO   O39 4452   7.360   7.027   0.980
   11CHTO   C60 4453   7.217   7.009   0.985
   11CHTO  H117 4454   7.173   7.077   1.057
   11CHTO   C62 4455   7.153   7.040   0.846
   11CHTO  H119 4456   7.179   7.145   0.823
   11CHTO   O43 4457   7.212   6.956   0.745
   11CHTO  H101 4458   7.192   6.866   0.761
   11CHTO   C66 4459   6.993   7.026   0.857
   11CHTO  H123 4460   6.958   7.092   0.936
   11CHTO   N12 4461   6.922   7.069   0.734
   11CHTO  H110 4462   6.992   7.103   0.658
   11CHTO  H111 4463   6.858   6.991   0.695
   11CHTO   C69 4464   6.957   6.881   0.900
   11CHTO  H126 4465   6.990   6.809   0.820
   11CHTO   O41 4466   7.030   6.845   1.034
   11CHTO   C64 4467   7.181   6.865   1.031
   11CHTO  H121 4468   7.226   6.792   0.961
   11CHTO   C71 4469   7.237   6.834   1.172
   11CHTO   O47 4470   7.183   6.920   1.273
   11CHTO  H104 4471   7.215   7.008   1.260
   11CHTO   O34 4472   6.801   6.864   0.922
   11CHTO   C49 4473   6.734   6.730   0.890
   11CHTO   H91 4474   6.797   6.679   0.817
   11CHTO   C47 4475   6.596   6.759   0.828
   11CHTO   H89 4476   6.558   6.662   0.790
   11CHTO   O33 4477   6.613   6.848   0.716
   11CHTO   H70 4478   6.660   6.805   0.647
   11CHTO   C45 4479   6.497   6.816   0.941
   11CHTO   H87 4480   6.544   6.904   0.988
   11CHTO    N8 4481   6.365   6.859   0.886
   11CHTO   H75 4482   6.380   6.934   0.810
   11CHTO   H76 4483   6.304   6.900   0.966
   11CHTO   C43 4484   6.482   6.706   1.057
   11CHTO   H85 4485   6.419   6.751   1.133
   11CHTO   O29 4486   6.613   6.673   1.109
   11CHTO   C50 4487   6.720   6.642   1.018
   11CHTO   H92 4488   6.813   6.655   1.074
   11CHTO   C54 4489   6.722   6.491   0.982
   11CHTO   O36 4490   6.749   6.412   1.099
   11CHTO   H72 4491   6.750   6.321   1.075
   11CHTO   O27 4492   6.413   6.588   1.012
   11CHTO   C37 4493   6.350   6.470   1.066
   11CHTO   H79 4494   6.424   6.411   1.122
   11CHTO   C38 4495   6.236   6.507   1.166
   11CHTO   H80 4496   6.166   6.576   1.116
   11CHTO   O31 4497   6.296   6.577   1.277
   11CHTO   H68 4498   6.230   6.610   1.335
   11CHTO   C39 4499   6.159   6.379   1.216
   11CHTO   H81 4500   6.228   6.322   1.279
   11CHTO    N7 4501   6.039   6.410   1.302
   11CHTO   H73 4502   5.993   6.319   1.335
   11CHTO   H74 4503   5.968   6.470   1.246
   11CHTO   C40 4504   6.118   6.286   1.096
   11CHTO   H82 4505   6.033   6.328   1.041
   11CHTO   O26 4506   6.231   6.262   1.009
   11CHTO   C41 4507   6.290   6.383   0.952
   11CHTO   H83 4508   6.213   6.440   0.898
   11CHTO   C52 4509   6.395   6.334   0.850
   11CHTO   O35 4510   6.443   6.440   0.761
   11CHTO   H71 4511   6.372   6.469   0.706
   11CHTO   O28 4512   6.086   6.154   1.143
   11CHTO   C42 4513   5.988   6.070   1.076
   11CHTO   H84 4514   5.988   6.102   0.972
   11CHTO   C44 4515   5.840   6.085   1.125
   11CHTO   H86 4516   5.838   6.068   1.233
   11CHTO   O32 4517   5.800   6.221   1.101
   11CHTO   H69 4518   5.798   6.239   1.009
   11CHTO   C48 4519   5.741   5.981   1.057
   11CHTO   H90 4520   5.731   6.008   0.953
   11CHTO    N9 4521   5.603   5.990   1.117
   11CHTO   H77 4522   5.531   6.012   1.040
   11CHTO   H78 4523   5.577   5.899   1.169
   11CHTO   C51 4524   5.803   5.836   1.064
   11CHTO   H93 4525   5.811   5.807   1.169
   11CHTO   O30 4526   5.932   5.838   1.001
   11CHTO   C46 4527   6.032   5.920   1.077
   11CHTO   H88 4528   6.035   5.885   1.180
   11CHTO   C53 4529   6.171   5.900   1.012
   11CHTO   O72 4530   6.173   5.942   0.875
   11CHTO  H199 4531   6.259   5.930   0.840
   11CHTO   O22 4532   5.731   5.736   0.989
   11CHTO   C31 4533   5.636   5.644   1.055
   11CHTO   H59 4534   5.608   5.691   1.152
   11CHTO   C29 4535   5.506   5.623   0.975
   11CHTO   H57 4536   5.533   5.573   0.880
   11CHTO   O21 4537   5.452   5.752   0.940
   11CHTO   H37 4538   5.381   5.742   0.880
   11CHTO   C27 4539   5.402   5.534   1.054
   11CHTO   H55 4540   5.367   5.591   1.142
   11CHTO    N5 4541   5.284   5.500   0.970
   11CHTO   H43 4542   5.238   5.590   0.933
   11CHTO   H44 4543   5.212   5.444   1.029
   11CHTO   C25 4544   5.471   5.403   1.109
   11CHTO   H53 4545   5.491   5.334   1.025
   11CHTO   O17 4546   5.599   5.433   1.173
   11CHTO   C32 4547   5.693   5.502   1.090
   11CHTO   H60 4548   5.709   5.447   0.997
   11CHTO   C36 4549   5.828   5.509   1.165
   11CHTO   O25 4550   5.884   5.378   1.185
   11CHTO   H40 4551   5.911   5.342   1.103
   11CHTO   O15 4552   5.377   5.331   1.217
   11CHTO   C19 4553   5.278   5.227   1.242
   11CHTO   H47 4554   5.275   5.219   1.351
   11CHTO   C20 4555   5.134   5.261   1.191
   11CHTO   H48 4556   5.133   5.284   1.083
   11CHTO   O19 4557   5.092   5.379   1.261
   11CHTO   H35 4558   5.010   5.409   1.228
   11CHTO   C21 4559   5.032   5.141   1.214
   11CHTO   H49 4560   5.019   5.127   1.321
   11CHTO    N4 4561   4.898   5.169   1.157
   11CHTO   H41 4562   4.856   5.257   1.202
   11CHTO   H42 4563   4.832   5.085   1.176
   11CHTO   C22 4564   5.096   5.012   1.157
   11CHTO   H50 4565   5.112   5.026   1.050
   11CHTO   O14 4566   5.223   4.989   1.221
   11CHTO   C23 4567   5.322   5.087   1.189
   11CHTO   H51 4568   5.336   5.087   1.080
   11CHTO   C34 4569   5.456   5.044   1.253
   11CHTO   O23 4570   5.500   4.919   1.200
   11CHTO   H38 4571   5.445   4.850   1.231
   11CHTO   O16 4572   5.021   4.891   1.184
   11CHTO   C24 4573   4.985   4.809   1.045
   11CHTO   H52 4574   5.007   4.868   0.956
   11CHTO   C26 4575   4.837   4.768   1.042
   11CHTO   H54 4576   4.819   4.693   1.123
   11CHTO   O20 4577   4.755   4.883   1.067
   11CHTO   H36 4578   4.766   4.913   1.155
   11CHTO   C30 4579   4.803   4.703   0.905
   11CHTO   H58 4580   4.803   4.783   0.829
   11CHTO    N6 4581   4.664   4.647   0.898
   11CHTO   H45 4582   4.610   4.667   0.990
   11CHTO   H46 4583   4.665   4.541   0.880
   11CHTO   C33 4584   4.910   4.598   0.857
   11CHTO   H61 4585   4.882   4.498   0.894
   11CHTO   O18 4586   5.045   4.625   0.902
   11CHTO   C28 4587   5.067   4.678   1.033
   11CHTO   H56 4588   5.034   4.608   1.110
   11CHTO   C35 4589   5.219   4.702   1.051
   11CHTO   O24 4590   5.294   4.580   1.057
   11CHTO   H39 4591   5.274   4.535   1.137
   11CHTO    O9 4592   4.904   4.587   0.713
   11CHTO   C13 4593   4.973   4.720   0.637
   11CHTO   H26 4594   4.993   4.798   0.714
   11CHTO   C11 4595   4.875   4.773   0.524
   11CHTO   H24 4596   4.778   4.796   0.571
   11CHTO    O8 4597   4.854   4.669   0.427
   11CHTO    H3 4598   4.808   4.596   0.467
   11CHTO    C9 4599   4.935   4.906   0.469
   11CHTO   H22 4600   4.920   4.980   0.549
   11CHTO    N2 4601   4.856   4.963   0.356
   11CHTO   H10 4602   4.752   4.969   0.383
   11CHTO   H11 4603   4.894   5.061   0.331
   11CHTO    C7 4604   5.092   4.893   0.447
   11CHTO   H20 4605   5.132   4.944   0.538
   11CHTO    O4 4606   5.135   4.756   0.447
   11CHTO   C14 4607   5.115   4.688   0.573
   11CHTO   H27 4608   5.194   4.721   0.643
   11CHTO   C18 4609   5.137   4.536   0.550
   11CHTO   O13 4610   5.270   4.508   0.509
   11CHTO    H7 4611   5.281   4.415   0.496
   11CHTO    O2 4612   5.154   4.969   0.312
   11CHTO    C1 4613   5.245   5.076   0.343
   11CHTO   H14 4614   5.272   5.072   0.451
   11CHTO    C2 4615   5.188   5.220   0.311
   11CHTO   H15 4616   5.165   5.222   0.203
   11CHTO    O6 4617   5.068   5.239   0.386
   11CHTO    H1 4618   5.028   5.321   0.364
   11CHTO    C3 4619   5.302   5.328   0.346
   11CHTO   H16 4620   5.331   5.318   0.452
   11CHTO    N1 4621   5.257   5.471   0.327
   11CHTO    H8 4622   5.318   5.521   0.253
   11CHTO    H9 4623   5.153   5.474   0.297
   11CHTO    C4 4624   5.430   5.291   0.262
   11CHTO   H17 4625   5.405   5.297   0.156
   11CHTO    O1 4626   5.473   5.158   0.294
   11CHTO    C5 4627   5.378   5.055   0.264
   11CHTO   H18 4628   5.355   5.057   0.158
   11CHTO   C16 4629   5.445   4.919   0.297
   11CHTO   O11 4630   5.478   4.906   0.436
   11CHTO    H5 4631   5.399   4.901   0.487
   11CHTO    O3 4632   5.544   5.374   0.292
   11CHTO    C6 4633   5.631   5.400   0.177
   11CHTO   H19 4634   5.614   5.330   0.094
   11CHTO    C8 4635   5.605   5.544   0.122
   11CHTO   H21 4636   5.612   5.614   0.206
   11CHTO    O7 4637   5.471   5.546   0.068
   11CHTO    H2 4638   5.408   5.539   0.137
   11CHTO   C12 4639   5.712   5.583   0.013
   11CHTO   H25 4640   5.693   5.517   2.746
   11CHTO    N3 4641   5.692   5.724   2.785
   11CHTO   H12 4642   5.701   5.793   0.047
   11CHTO   H13 4643   5.595   5.734   2.738
   11CHTO   C15 4644   5.856   5.555   0.068
   11CHTO   H28 4645   5.882   5.623   0.150
   11CHTO   O10 4646   5.963   5.564   2.781
   11CHTO    H4 4647   5.969   5.652   2.749
   11CHTO    O5 4648   5.868   5.419   0.111
   11CHTO   C10 4649   5.780   5.384   0.219
   11CHTO   H23 4650   5.801   5.450   0.303
   11CHTO   C17 4651   5.810   5.240   0.264
   11CHTO   O12 4652   5.940   5.232   0.323
   11CHTO    H6 4653   5.957   5.143   0.349
   12CHTO  H203 4654   4.894   2.206   2.427
   12CHTO   O82 4655   4.840   2.130   2.433
   12CHTO  C123 4656   4.915   2.020   2.488
   12CHTO  H227 4657   5.012   2.013   2.436
   12CHTO   O77 4658   4.936   2.058   2.627
   12CHTO  C118 4659   5.018   1.966   2.702
   12CHTO  H222 4660   5.114   1.953   2.649
   12CHTO  C125 4661   5.046   2.029   0.024
   12CHTO   O84 4662   4.926   2.053   0.098
   12CHTO  H205 4663   4.886   1.971   0.122
   12CHTO  C114 4664   4.947   1.829   2.711
   12CHTO  H218 4665   4.853   1.843   2.764
   12CHTO  C116 4666   4.913   1.774   2.568
   12CHTO  H220 4667   5.008   1.744   2.518
   12CHTO   O79 4668   4.834   1.654   2.582
   12CHTO  H201 4669   4.818   1.616   2.498
   12CHTO  C120 4670   4.837   1.883   2.481
   12CHTO  H224 4671   4.736   1.895   2.526
   12CHTO   N21 4672   4.817   1.837   2.340
   12CHTO  H211 4673   4.813   1.922   2.273
   12CHTO  H212 4674   4.897   1.770   2.310
   12CHTO   O75 4675   5.037   1.747   2.788
   12CHTO  C112 4676   4.965   1.622   0.048
   12CHTO  H216 4677   4.905   1.563   2.797
   12CHTO   O73 4678   4.883   1.677   0.153
   12CHTO  C113 4679   4.804   1.579   0.222
   12CHTO  H217 4680   4.739   1.527   0.148
   12CHTO  C124 4681   4.713   1.656   0.318
   12CHTO   O83 4682   4.612   1.574   0.378
   12CHTO  H204 4683   4.556   1.627   0.432
   12CHTO  C109 4684   4.897   1.477   0.294
   12CHTO  H213 4685   4.950   1.533   0.373
   12CHTO  C110 4686   4.999   1.416   0.194
   12CHTO  H214 4687   4.945   1.350   0.125
   12CHTO   O78 4688   5.092   1.334   0.268
   12CHTO  H200 4689   5.151   1.290   0.210
   12CHTO  C111 4690   5.072   1.527   0.113
   12CHTO  H215 4691   5.132   1.587   0.183
   12CHTO   N19 4692   5.166   1.475   0.010
   12CHTO  H207 4693   5.242   1.414   0.057
   12CHTO  H208 4694   5.214   1.557   2.779
   12CHTO   O74 4695   4.817   1.371   0.356
   12CHTO  C115 4696   4.858   1.335   0.507
   12CHTO  H219 4697   4.939   1.399   0.542
   12CHTO   O76 4698   4.739   1.363   0.606
   12CHTO  C122 4699   4.622   1.286   0.575
   12CHTO  H226 4700   4.578   1.329   0.485
   12CHTO  C126 4701   4.515   1.309   0.688
   12CHTO   O85 4702   4.564   1.273   0.818
   12CHTO  H206 4703   4.497   1.289   0.882
   12CHTO  C121 4704   4.652   1.131   0.552
   12CHTO  H225 4705   4.583   1.072   0.616
   12CHTO   O81 4706   4.621   1.096   0.417
   12CHTO  H202 4707   4.678   1.141   0.357
   12CHTO  C119 4708   4.799   1.096   0.591
   12CHTO  H223 4709   4.806   1.125   0.696
   12CHTO  C117 4710   4.903   1.183   0.511
   12CHTO  H221 4711   4.914   1.156   0.406
   12CHTO   N20 4712   5.040   1.166   0.571
   12CHTO  H209 4713   5.083   1.262   0.598
   12CHTO  H210 4714   5.105   1.114   0.502
   12CHTO   O80 4715   4.829   0.935   0.601
   12CHTO  C103 4716   4.814   0.841   0.474
   12CHTO  H190 4717   4.743   0.883   0.402
   12CHTO  C101 4718   4.947   0.804   0.397
   12CHTO  H188 4719   5.022   0.773   0.470
   12CHTO   O68 4720   4.999   0.929   0.324
   12CHTO  H168 4721   5.082   0.911   0.284
   12CHTO   C99 4722   4.923   0.683   0.294
   12CHTO  H186 4723   4.853   0.718   0.215
   12CHTO   N17 4724   5.047   0.635   0.224
   12CHTO  H174 4725   5.135   0.686   0.262
   12CHTO  H175 4726   5.038   0.650   0.117
   12CHTO   C97 4727   4.850   0.566   0.365
   12CHTO  H184 4728   4.919   0.521   0.439
   12CHTO   O64 4729   4.729   0.613   0.427
   12CHTO  C104 4730   4.749   0.709   0.532
   12CHTO  H191 4731   4.814   0.669   0.610
   12CHTO  C108 4732   4.614   0.738   0.598
   12CHTO   O71 4733   4.561   0.622   0.664
   12CHTO  H171 4734   4.537   0.558   0.600
   12CHTO   O62 4735   4.801   0.467   0.273
   12CHTO   C91 4736   4.825   0.328   0.301
   12CHTO  H178 4737   4.925   0.318   0.345
   12CHTO   C92 4738   4.832   0.257   0.160
   12CHTO  H179 4739   4.750   0.296   0.098
   12CHTO   O66 4740   4.953   0.301   0.096
   12CHTO  H166 4741   4.948   0.392   0.074
   12CHTO   C93 4742   4.825   0.100   0.166
   12CHTO  H180 4743   4.919   0.063   0.212
   12CHTO   N16 4744   4.816   0.036   0.032
   12CHTO  H172 4745   4.813   9.929   0.042
   12CHTO  H173 4746   4.901   0.065   2.792
   12CHTO   C94 4747   4.705   0.058   0.258
   12CHTO  H181 4748   4.610   0.098   0.221
   12CHTO   O61 4749   4.726   0.113   0.388
   12CHTO   C95 4750   4.719   0.257   0.395
   12CHTO  H182 4751   4.619   0.289   0.366
   12CHTO  C106 4752   4.739   0.297   0.546
   12CHTO   O69 4753   4.632   0.248   0.628
   12CHTO  H169 4754   4.634   0.154   0.631
   12CHTO   O63 4755   4.690   9.893   0.272
   12CHTO   C96 4756   4.792   9.823   0.372
   12CHTO  H183 4757   4.855   9.899   0.419
   12CHTO   C98 4758   4.885   9.718   0.304
   12CHTO  H185 4759   4.824   9.650   0.242
   12CHTO   O67 4760   4.970   9.789   0.212
   12CHTO  H167 4761   5.021   9.728   0.162
   12CHTO  C102 4762   4.974   9.634   0.409
   12CHTO  H189 4763   5.050   9.704   0.447
   12CHTO   N18 4764   5.048   9.520   0.351
   12CHTO  H176 4765   5.155   9.533   0.365
   12CHTO  H177 4766   5.027   9.510   0.245
   12CHTO  C105 4767   4.888   9.591   0.532
   12CHTO  H192 4768   4.825   9.506   0.503
   12CHTO   O65 4769   4.803   9.695   0.582
   12CHTO  C100 4770   4.712   9.750   0.486
   12CHTO  H187 4771   4.654   9.667   0.441
   12CHTO  C107 4772   4.612   9.844   0.556
   12CHTO   O70 4773   4.528   9.773   0.648
   12CHTO  H170 4774   4.579   9.744   0.721
   12CHTO   O57 4775   4.993   9.547   0.647
   12CHTO   C85 4776   4.947   9.463   0.753
   12CHTO  H157 4777   4.855   9.412   0.716
   12CHTO   C83 4778   4.901   9.549   0.875
   12CHTO  H155 4779   4.820   9.614   0.841
   12CHTO   O56 4780   5.009   9.636   0.914
   12CHTO  H135 4781   5.081   9.587   0.947
   12CHTO   C81 4782   4.848   9.455   0.986
   12CHTO  H153 4783   4.767   9.396   0.945
   12CHTO   N14 4784   4.786   9.529   1.099
   12CHTO  H141 4785   4.830   9.502   1.193
   12CHTO  H142 4786   4.681   9.510   1.103
   12CHTO   C79 4787   4.962   9.356   1.032
   12CHTO  H151 4788   4.918   9.285   1.102
   12CHTO   O52 4789   5.011   9.278   0.917
   12CHTO   C86 4790   5.054   9.358   0.803
   12CHTO  H158 4791   5.146   9.410   0.839
   12CHTO   C90 4792   5.100   9.266   0.688
   12CHTO   O60 4793   4.996   9.179   0.642
   12CHTO  H138 4794   4.975   9.116   0.709
   12CHTO   O50 4795   5.073   9.421   1.096
   12CHTO   C73 4796   5.131   9.409   1.227
   12CHTO  H145 4797   5.060   9.362   1.297
   12CHTO   C74 4798   5.169   9.551   1.281
   12CHTO  H146 4799   5.076   9.611   1.281
   12CHTO   O54 4800   5.208   9.537   1.419
   12CHTO  H133 4801   5.227   9.621   1.456
   12CHTO   C75 4802   5.280   9.615   1.188
   12CHTO  H147 4803   5.239   9.626   1.087
   12CHTO   N13 4804   5.323   9.751   1.229
   12CHTO  H139 4805   5.398   9.788   1.162
   12CHTO  H140 4806   5.238   9.818   1.227
   12CHTO   C76 4807   5.404   9.514   1.178
   12CHTO  H148 4808   5.450   9.506   1.276
   12CHTO   O49 4809   5.358   9.382   1.135
   12CHTO   C77 4810   5.260   9.321   1.220
   12CHTO  H149 4811   5.300   9.309   1.321
   12CHTO   C88 4812   5.230   9.180   1.169
   12CHTO   O58 4813   5.349   9.094   1.169
   12CHTO  H136 4814   5.411   9.125   1.105
   12CHTO   O51 4815   5.509   9.560   1.063
   12CHTO   C78 4816   5.639   9.468   1.069
   12CHTO  H150 4817   5.621   9.377   1.130
   12CHTO   C80 4818   5.758   9.546   1.128
   12CHTO  H152 4819   5.782   9.632   1.062
   12CHTO   O55 4820   5.717   9.597   1.256
   12CHTO  H134 4821   5.700   9.527   1.316
   12CHTO   C84 4822   5.885   9.452   1.140
   12CHTO  H156 4823   5.862   9.375   1.214
   12CHTO   N15 4824   6.007   9.525   1.190
   12CHTO  H143 4825   6.089   9.457   1.198
   12CHTO  H144 4826   5.987   9.567   1.287
   12CHTO   C87 4827   5.914   9.381   1.006
   12CHTO  H159 4828   5.956   9.453   0.937
   12CHTO   O53 4829   5.781   9.321   0.943
   12CHTO   C82 4830   5.679   9.420   0.928
   12CHTO  H154 4831   5.717   9.504   0.868
   12CHTO   C89 4832   5.558   9.362   0.850
   12CHTO   O59 4833   5.494   9.255   0.920
   12CHTO  H137 4834   5.450   9.289   0.996
   12CHTO   O45 4835   6.024   9.254   1.032
   12CHTO   C67 4836   6.102   9.206   0.921
   12CHTO  H124 4837   6.177   9.138   0.962
   12CHTO   C65 4838   6.016   9.128   0.815
   12CHTO  H122 4839   5.914   9.130   0.851
   12CHTO   O44 4840   6.061   8.992   0.812
   12CHTO  H102 4841   6.146   8.986   0.773
   12CHTO   C63 4842   6.012   9.203   0.676
   12CHTO  H120 4843   5.968   9.301   0.692
   12CHTO   N11 4844   5.921   9.145   0.572
   12CHTO  H108 4845   5.823   9.133   0.613
   12CHTO  H109 4846   5.958   9.050   0.540
   12CHTO   C61 4847   6.161   9.227   0.627
   12CHTO  H118 4848   6.155   9.302   0.546
   12CHTO   O40 4849   6.248   9.283   0.729
   12CHTO   C68 4850   6.187   9.324   0.855
   12CHTO  H125 4851   6.123   9.411   0.832
   12CHTO   C72 4852   6.298   9.373   0.950
   12CHTO   O48 4853   6.358   9.494   0.903
   12CHTO  H105 4854   6.426   9.520   0.963
   12CHTO   O38 4855   6.226   9.107   0.581
   12CHTO   C55 4856   6.332   9.126   0.486
   12CHTO  H112 4857   6.366   9.231   0.486
   12CHTO   C56 4858   6.283   9.081   0.342
   12CHTO  H113 4859   6.240   8.980   0.354
   12CHTO   O42 4860   6.175   9.166   0.299
   12CHTO  H100 4861   6.204   9.255   0.291
   12CHTO   C57 4862   6.401   9.078   0.237
   12CHTO  H114 4863   6.432   9.181   0.220
   12CHTO   N10 4864   6.364   9.019   0.106
   12CHTO  H106 4865   6.326   9.096   0.040
   12CHTO  H107 4866   6.288   8.943   0.118
   12CHTO   C58 4867   6.521   9.000   0.299
   12CHTO  H115 4868   6.491   8.893   0.313
   12CHTO   O37 4869   6.558   9.057   0.425
   12CHTO   C59 4870   6.457   9.042   0.527
   12CHTO  H116 4871   6.431   8.937   0.538
   12CHTO   C70 4872   6.515   9.092   0.660
   12CHTO   O46 4873   6.629   9.018   0.703
   12CHTO  H103 4874   6.701   9.034   0.645
   12CHTO   O39 4875   6.655   9.008   0.204
   12CHTO   C60 4876   6.754   8.912   0.247
   12CHTO  H117 4877   6.742   8.894   0.354
   12CHTO   C62 4878   6.737   8.776   0.174
   12CHTO  H119 4879   6.632   8.744   0.191
   12CHTO   O43 4880   6.758   8.791   0.032
   12CHTO  H101 4881   6.689   8.844   2.815
   12CHTO   C66 4882   6.835   8.670   0.243
   12CHTO  H123 4883   6.810   8.665   0.349
   12CHTO   N12 4884   6.816   8.531   0.192
   12CHTO  H110 4885   6.714   8.500   0.208
   12CHTO  H111 4886   6.885   8.464   0.242
   12CHTO   C69 4887   6.983   8.716   0.233
   12CHTO  H126 4888   7.018   8.709   0.127
   12CHTO   O41 4889   6.999   8.867   0.283
   12CHTO   C64 4890   6.898   8.966   0.226
   12CHTO  H121 4891   6.916   8.981   0.118
   12CHTO   C71 4892   6.917   9.103   0.297
   12CHTO   O47 4893   7.046   9.158   0.269
   12CHTO  H104 4894   7.052   9.182   0.179
   12CHTO   O34 4895   7.077   8.622   0.324
   12CHTO   C49 4896   7.181   8.631   0.443
   12CHTO   H91 4897   7.278   8.655   0.399
   12CHTO   C47 4898   7.188   8.493   0.512
   12CHTO   H89 4899   7.271   8.502   0.586
   12CHTO   O33 4900   7.224   8.390   0.418
   12CHTO   H70 4901   7.310   8.406   0.383
   12CHTO   C45 4902   7.047   8.457   0.584
   12CHTO   H87 4903   6.987   8.398   0.513
   12CHTO    N8 4904   7.075   8.373   0.703
   12CHTO   H75 4905   7.031   8.417   0.792
   12CHTO   H76 4906   7.036   8.274   0.689
   12CHTO   C43 4907   6.961   8.591   0.609
   12CHTO   H85 4908   6.916   8.613   0.514
   12CHTO   O29 4909   7.048   8.697   0.653
   12CHTO   C50 4910   7.145   8.737   0.554
   12CHTO   H92 4911   7.107   8.827   0.504
   12CHTO   C54 4912   7.269   8.789   0.630
   12CHTO   O36 4913   7.367   8.846   0.542
   12CHTO   H72 4914   7.442   8.873   0.592
   12CHTO   O27 4915   6.848   8.574   0.696
   12CHTO   C37 4916   6.753   8.562   0.802
   12CHTO   H79 4917   6.795   8.502   0.884
   12CHTO   C38 4918   6.719   8.703   0.860
   12CHTO   H80 4919   6.684   8.767   0.777
   12CHTO   O31 4920   6.840   8.759   0.914
   12CHTO   H68 4921   6.825   8.848   0.939
   12CHTO   C39 4922   6.605   8.693   0.969
   12CHTO   H81 4923   6.648   8.642   1.055
   12CHTO    N7 4924   6.558   8.827   1.017
   12CHTO   H73 4925   6.482   8.815   1.093
   12CHTO   H74 4926   6.519   8.885   0.935
   12CHTO   C40 4927   6.484   8.606   0.918
   12CHTO   H82 4928   6.424   8.662   0.845
   12CHTO   O26 4929   6.531   8.481   0.863
   12CHTO   C41 4930   6.623   8.495   0.751
   12CHTO   H83 4931   6.577   8.558   0.673
   12CHTO   C52 4932   6.649   8.355   0.691
   12CHTO   O35 4933   6.526   8.293   0.637
   12CHTO   H71 4934   6.495   8.343   0.563
   12CHTO   O28 4935   6.399   8.564   1.027
   12CHTO   C42 4936   6.257   8.534   1.007
   12CHTO   H84 4937   6.230   8.479   1.097
   12CHTO   C44 4938   6.221   8.440   0.887
   12CHTO   H86 4939   6.258   8.486   0.795
   12CHTO   O32 4940   6.291   8.317   0.907
   12CHTO   H69 4941   6.280   8.260   0.833
   12CHTO   C48 4942   6.065   8.418   0.871
   12CHTO   H90 4943   6.031   8.357   0.955
   12CHTO    N9 4944   6.031   8.339   0.747
   12CHTO   H77 4945   5.924   8.325   0.741
   12CHTO   H78 4946   6.081   8.243   0.750
   12CHTO   C51 4947   5.989   8.556   0.877
   12CHTO   H93 4948   6.018   8.614   0.790
   12CHTO   O30 4949   6.025   8.621   0.999
   12CHTO   C46 4950   6.169   8.662   1.004
   12CHTO   H88 4951   6.193   8.721   0.915
   12CHTO   C53 4952   6.189   8.749   1.131
   12CHTO   O72 4953   6.114   8.870   1.122
   12CHTO  H199 4954   6.129   8.922   1.198
   12CHTO   O22 4955   5.846   8.539   0.882
   12CHTO   C31 4956   5.751   8.651   0.866
   12CHTO   H59 4957   5.650   8.606   0.876
   12CHTO   C29 4958   5.762   8.762   0.973
   12CHTO   H57 4959   5.863   8.805   0.968
   12CHTO   O21 4960   5.749   8.700   1.103
   12CHTO   H37 4961   5.821   8.643   1.119
   12CHTO   C27 4962   5.657   8.877   0.953
   12CHTO   H55 4963   5.556   8.836   0.970
   12CHTO    N5 4964   5.677   8.992   1.046
   12CHTO   H43 4965   5.765   8.977   1.107
   12CHTO   H44 4966   5.590   9.005   1.108
   12CHTO   C25 4967   5.660   8.925   0.803
   12CHTO   H53 4968   5.756   8.975   0.783
   12CHTO   O17 4969   5.649   8.812   0.712
   12CHTO   C32 4970   5.754   8.715   0.724
   12CHTO   H60 4971   5.851   8.764   0.709
   12CHTO   C36 4972   5.733   8.609   0.613
   12CHTO   O25 4973   5.737   8.667   0.482
   12CHTO   H40 4974   5.662   8.722   0.469
   12CHTO   O15 4975   5.546   9.020   0.772
   12CHTO   C19 4976   5.434   9.031   0.680
   12CHTO   H47 4977   5.382   9.122   0.714
   12CHTO   C20 4978   5.475   9.050   0.531
   12CHTO   H48 4979   5.532   8.963   0.493
   12CHTO   O19 4980   5.561   9.166   0.525
   12CHTO   H35 4981   5.643   9.148   0.566
   12CHTO   C21 4982   5.347   9.068   0.440
   12CHTO   H49 4983   5.297   9.160   0.469
   12CHTO    N4 4984   5.380   9.081   0.296
   12CHTO   H41 4985   5.444   9.167   0.280
   12CHTO   H42 4986   5.289   9.095   0.238
   12CHTO   C22 4987   5.249   8.951   0.468
   12CHTO   H50 4988   5.293   8.858   0.432
   12CHTO   O14 4989   5.219   8.940   0.608
   12CHTO   C23 4990   5.332   8.915   0.694
   12CHTO   H51 4991   5.375   8.818   0.664
   12CHTO   C34 4992   5.282   8.903   0.838
   12CHTO   O23 4993   5.197   8.789   0.856
   12CHTO   H38 4994   5.115   8.803   0.811
   12CHTO   O16 4995   5.120   8.974   0.408
   12CHTO   C24 4996   5.048   8.840   0.357
   12CHTO   H52 4997   5.102   8.751   0.389
   12CHTO   C26 4998   5.041   8.844   0.203
   12CHTO   H54 4999   4.991   8.939   0.173
   12CHTO   O20 5000   5.175   8.845   0.151
   12CHTO   H36 5001   5.217   8.927   0.170
   12CHTO   C30 5002   4.958   8.724   0.147
   12CHTO   H58 5003   5.017   8.632   0.160
   12CHTO    N6 5004   4.937   8.738   2.820
   12CHTO   H45 5005   4.976   8.652   2.768
   12CHTO   H46 5006   4.832   8.749   2.796
   12CHTO   C33 5007   4.824   8.705   0.225
   12CHTO   H61 5008   4.756   8.787   0.199
   12CHTO   O18 5009   4.847   8.709   0.368
   12CHTO   C28 5010   4.905   8.831   0.416
   12CHTO   H56 5011   4.848   8.918   0.383
   12CHTO   C35 5012   4.908   8.828   0.571
   12CHTO   O24 5013   4.776   8.826   0.627
   12CHTO   H39 5014   4.782   8.824   0.721
   12CHTO    O9 5015   4.756   8.585   0.186
   12CHTO   C13 5016   4.828   8.447   0.234
   12CHTO   H26 5017   4.928   8.472   0.277
   12CHTO   C11 5018   4.842   8.350   0.109
   12CHTO   H24 5019   4.913   8.397   0.039
   12CHTO    O8 5020   4.716   8.339   0.039
   12CHTO    H3 5021   4.652   8.299   0.094
   12CHTO    C9 5022   4.901   8.216   0.158
   12CHTO   H22 5023   4.995   8.242   0.209
   12CHTO    N2 5024   4.942   8.123   0.050
   12CHTO   H10 5025   5.011   8.173   2.803
   12CHTO   H11 5026   4.855   8.090   2.815
   12CHTO    C7 5027   4.803   8.153   0.264
   12CHTO   H20 5028   4.856   8.061   0.300
   12CHTO    O4 5029   4.784   8.241   0.376
   12CHTO   C14 5030   4.748   8.379   0.353
   12CHTO   H27 5031   4.777   8.433   0.446
   12CHTO   C18 5032   4.594   8.394   0.339
   12CHTO   O13 5033   4.528   8.353   0.460
   12CHTO    H7 5034   4.435   8.364   0.450
   12CHTO    O2 5035   4.654   8.112   0.202
   12CHTO    C1 5036   4.631   7.972   0.182
   12CHTO   H14 5037   4.728   7.916   0.186
   12CHTO    C2 5038   4.561   7.942   0.043
   12CHTO   H15 5039   4.470   8.004   0.041
   12CHTO    O6 5040   4.649   7.982   2.756
   12CHTO    H1 5041   4.728   7.932   2.758
   12CHTO    C3 5042   4.521   7.786   0.030
   12CHTO   H16 5043   4.614   7.728   0.022
   12CHTO    N1 5044   4.441   7.758   2.726
   12CHTO    H8 5045   4.427   7.847   2.667
   12CHTO    H9 5046   4.344   7.716   2.751
   12CHTO    C4 5047   4.450   7.736   0.162
   12CHTO   H17 5048   4.351   7.781   0.168
   12CHTO    O1 5049   4.527   7.772   0.279
   12CHTO    C5 5050   4.541   7.915   0.296
   12CHTO   H18 5051   4.443   7.962   0.287
   12CHTO   C16 5052   4.596   7.941   0.439
   12CHTO   O11 5053   4.727   7.887   0.456
   12CHTO    H5 5054   4.757   7.905   0.544
   12CHTO    O3 5055   4.440   7.592   0.162
   12CHTO    C6 5056   4.365   7.527   0.270
   12CHTO   H19 5057   4.370   7.582   0.364
   12CHTO    C8 5058   4.214   7.511   0.229
   12CHTO   H21 5059   4.210   7.466   0.130
   12CHTO    O7 5060   4.156   7.643   0.223
   12CHTO    H2 5061   4.157   7.683   0.308
   12CHTO   C12 5062   4.136   7.418   0.331
   12CHTO   H25 5063   4.126   7.476   0.425
   12CHTO    N3 5064   3.996   7.391   0.282
   12CHTO   H12 5065   3.980   7.286   0.266
   12CHTO   H13 5066   3.924   7.430   0.353
   12CHTO   C15 5067   4.218   7.288   0.361
   12CHTO   H28 5068   4.219   7.220   0.275
   12CHTO   O10 5069   4.165   7.211   0.485
   12CHTO    H4 5070   4.162   7.268   0.560
   12CHTO    O5 5071   4.352   7.320   0.400
   12CHTO   C10 5072   4.427   7.386   0.296
   12CHTO   H23 5073   4.423   7.326   0.206
   12CHTO   C17 5074   4.573   7.390   0.343
   12CHTO   O12 5075   4.661   7.438   0.242
   12CHTO    H6 5076   4.749   7.438   0.275
   13CHTO  H203 5077   8.771   4.662   1.813
   13CHTO   O82 5078   8.679   4.654   1.796
   13CHTO  C123 5079   8.631   4.771   1.729
   13CHTO  H227 5080   8.685   4.783   1.634
   13CHTO   O77 5081   8.492   4.735   1.704
   13CHTO  C118 5082   8.413   4.836   1.639
   13CHTO  H222 5083   8.460   4.864   1.543
   13CHTO  C125 5084   8.271   4.776   1.610
   13CHTO   O84 5085   8.279   4.668   1.516
   13CHTO  H205 5086   8.193   4.634   1.501
   13CHTO  C114 5087   8.406   4.959   1.731
   13CHTO  H218 5088   8.365   4.928   1.827
   13CHTO  C116 5089   8.549   5.014   1.757
   13CHTO  H220 5090   8.592   5.051   1.662
   13CHTO   O79 5091   8.539   5.130   1.843
   13CHTO  H201 5092   8.504   5.106   1.927
   13CHTO  C120 5093   8.641   4.901   1.819
   13CHTO  H224 5094   8.601   4.880   1.920
   13CHTO   N21 5095   8.781   4.947   1.836
   13CHTO  H211 5096   8.808   5.018   1.759
   13CHTO  H212 5097   8.849   4.863   1.836
   13CHTO   O75 5098   8.319   5.052   1.665
   13CHTO  C112 5099   8.219   5.128   1.770
   13CHTO  H216 5100   8.279   5.178   1.847
   13CHTO   O73 5101   8.133   5.028   1.827
   13CHTO  C113 5102   8.037   5.078   1.921
   13CHTO  H217 5103   8.091   5.132   2.000
   13CHTO  C124 5104   7.967   4.959   1.989
   13CHTO   O83 5105   7.904   4.868   1.897
   13CHTO  H204 5106   7.970   4.824   1.846
   13CHTO  C109 5107   7.938   5.174   1.850
   13CHTO  H213 5108   7.885   5.115   1.774
   13CHTO  C110 5109   8.018   5.289   1.780
   13CHTO  H214 5110   8.056   5.356   1.857
   13CHTO   O78 5111   7.927   5.364   1.697
   13CHTO  H200 5112   7.968   5.441   1.664
   13CHTO  C111 5113   8.135   5.235   1.692
   13CHTO  H215 5114   8.092   5.184   1.605
   13CHTO   N19 5115   8.224   5.341   1.639
   13CHTO  H207 5116   8.301   5.297   1.577
   13CHTO  H208 5117   8.167   5.411   1.580
   13CHTO   O74 5118   7.840   5.225   1.947
   13CHTO  C115 5119   7.701   5.275   1.882
   13CHTO  H219 5120   7.715   5.365   1.821
   13CHTO   O76 5121   7.641   5.169   1.782
   13CHTO  C122 5122   7.595   5.048   1.844
   13CHTO  H226 5123   7.683   4.992   1.875
   13CHTO  C126 5124   7.525   4.962   1.734
   13CHTO   O85 5125   7.411   5.027   1.676
   13CHTO  H206 5126   7.439   5.102   1.627
   13CHTO  C121 5127   7.499   5.072   1.969
   13CHTO  H225 5128   7.403   5.019   1.951
   13CHTO   O81 5129   7.557   5.014   2.086
   13CHTO  H202 5130   7.638   5.056   2.108
   13CHTO  C119 5131   7.468   5.223   1.989
   13CHTO  H223 5132   7.417   5.255   1.898
   13CHTO  C117 5133   7.601   5.308   2.002
   13CHTO  H221 5134   7.658   5.288   2.092
   13CHTO   N20 5135   7.571   5.454   2.007
   13CHTO  H209 5136   7.507   5.476   2.091
   13CHTO  H210 5137   7.524   5.486   1.915
   13CHTO   O80 5138   7.355   5.250   2.102
   13CHTO  C103 5139   7.203   5.293   2.059
   13CHTO  H190 5140   7.151   5.333   2.146
   13CHTO  C101 5141   7.189   5.399   1.944
   13CHTO  H188 5142   7.245   5.367   1.856
   13CHTO   O68 5143   7.249   5.536   1.995
   13CHTO  H168 5144   7.200   5.567   2.068
   13CHTO   C99 5145   7.035   5.415   1.902
   13CHTO  H186 5146   6.979   5.454   1.990
   13CHTO   N17 5147   7.013   5.511   1.789
   13CHTO  H174 5148   6.960   5.599   1.825
   13CHTO  H175 5149   7.107   5.539   1.743
   13CHTO   C97 5150   6.974   5.275   1.872
   13CHTO  H184 5151   7.019   5.236   1.779
   13CHTO   O64 5152   6.993   5.186   1.983
   13CHTO  C104 5153   7.130   5.159   2.019
   13CHTO  H191 5154   7.185   5.111   1.938
   13CHTO  C108 5155   7.133   5.062   2.138
   13CHTO   O71 5156   7.068   4.938   2.110
   13CHTO  H171 5157   6.975   4.952   2.102
   13CHTO   O62 5158   6.830   5.285   1.856
   13CHTO   C91 5159   6.760   5.173   1.798
   13CHTO  H178 5160   6.827   5.086   1.796
   13CHTO   C92 5161   6.723   5.205   1.649
   13CHTO  H179 5162   6.674   5.304   1.646
   13CHTO   O66 5163   6.845   5.219   1.574
   13CHTO  H166 5164   6.893   5.294   1.603
   13CHTO   C93 5165   6.627   5.095   1.586
   13CHTO  H180 5166   6.684   5.002   1.579
   13CHTO   N16 5167   6.582   5.126   1.448
   13CHTO  H172 5168   6.667   5.132   1.382
   13CHTO  H173 5169   6.527   5.219   1.447
   13CHTO   C94 5170   6.505   5.074   1.682
   13CHTO  H181 5171   6.451   5.166   1.699
   13CHTO   O61 5172   6.555   5.031   1.810
   13CHTO   C95 5173   6.630   5.133   1.878
   13CHTO  H182 5174   6.567   5.221   1.889
   13CHTO  C106 5175   6.663   5.084   2.024
   13CHTO   O69 5176   6.748   4.968   2.025
   13CHTO  H169 5177   6.833   4.991   1.993
   13CHTO   O63 5178   6.400   4.956   1.629
   13CHTO   C96 5179   6.255   4.954   1.711
   13CHTO  H183 5180   6.181   4.909   1.645
   13CHTO   C98 5181   6.200   5.093   1.755
   13CHTO  H185 5182   6.278   5.150   1.807
   13CHTO   O67 5183   6.170   5.166   1.635
   13CHTO  H167 5184   6.249   5.188   1.589
   13CHTO  C102 5185   6.072   5.083   1.850
   13CHTO  H189 5186   5.991   5.041   1.788
   13CHTO   N18 5187   6.022   5.214   1.900
   13CHTO  H176 5188   5.934   5.199   1.962
   13CHTO  H177 5189   5.997   5.278   1.816
   13CHTO  C105 5190   6.103   4.984   1.966
   13CHTO  H192 5191   6.180   5.028   2.030
   13CHTO   O65 5192   6.151   4.857   1.919
   13CHTO  C100 5193   6.268   4.858   1.836
   13CHTO  H187 5194   6.353   4.890   1.897
   13CHTO  C107 5195   6.294   4.712   1.791
   13CHTO   O70 5196   6.180   4.653   1.728
   13CHTO  H170 5197   6.164   4.694   1.645
   13CHTO   O57 5198   5.963   4.961   2.053
   13CHTO   C85 5199   5.864   4.868   2.007
   13CHTO  H157 5200   5.902   4.825   1.912
   13CHTO   C83 5201   5.734   4.945   1.968
   13CHTO  H155 5202   5.759   5.014   1.887
   13CHTO   O56 5203   5.691   5.027   2.079
   13CHTO  H135 5204   5.665   4.974   2.152
   13CHTO   C81 5205   5.627   4.844   1.918
   13CHTO  H153 5206   5.670   4.790   1.833
   13CHTO   N14 5207   5.506   4.909   1.862
   13CHTO  H141 5208   5.534   4.978   1.784
   13CHTO  H142 5209   5.441   4.835   1.821
   13CHTO   C79 5210   5.595   4.740   2.031
   13CHTO  H151 5211   5.528   4.665   1.988
   13CHTO   O52 5212   5.717   4.669   2.070
   13CHTO   C86 5213   5.828   4.755   2.112
   13CHTO  H158 5214   5.794   4.799   2.209
   13CHTO   C90 5215   5.949   4.664   2.146
   13CHTO   O60 5216   6.057   4.736   2.206
   13CHTO  H138 5217   6.033   4.766   2.292
   13CHTO   O50 5218   5.532   4.796   2.148
   13CHTO   C73 5219   5.413   4.757   2.218
   13CHTO  H145 5220   5.353   4.687   2.157
   13CHTO   C74 5221   5.326   4.883   2.248
   13CHTO  H146 5222   5.306   4.932   2.151
   13CHTO   O54 5223   5.199   4.839   2.299
   13CHTO  H133 5224   5.142   4.912   2.313
   13CHTO   C75 5225   5.405   4.979   2.346
   13CHTO  H147 5226   5.497   5.010   2.297
   13CHTO   N13 5227   5.332   5.104   2.379
   13CHTO  H139 5228   5.391   5.164   2.445
   13CHTO  H140 5229   5.313   5.160   2.289
   13CHTO   C76 5230   5.445   4.896   2.477
   13CHTO  H148 5231   5.351   4.864   2.524
   13CHTO   O49 5232   5.520   4.776   2.440
   13CHTO   C77 5233   5.449   4.687   2.353
   13CHTO  H149 5234   5.356   4.654   2.401
   13CHTO   C88 5235   5.531   4.559   2.332
   13CHTO   O58 5236   5.554   4.487   2.461
   13CHTO  H136 5237   5.610   4.537   2.516
   13CHTO   O51 5238   5.538   4.984   2.585
   13CHTO   C78 5239   5.702   5.012   2.563
   13CHTO  H150 5240   5.742   5.066   2.652
   13CHTO   C80 5241   5.731   5.098   2.438
   13CHTO  H152 5242   5.697   5.042   2.348
   13CHTO   O55 5243   5.655   5.219   2.453
   13CHTO  H134 5244   5.663   5.272   2.376
   13CHTO   C84 5245   5.886   5.127   2.424
   13CHTO  H156 5246   5.917   5.184   2.512
   13CHTO   N15 5247   5.919   5.211   2.303
   13CHTO  H143 5248   5.969   5.301   2.333
   13CHTO  H144 5249   5.982   5.158   2.234
   13CHTO   C87 5250   5.964   4.993   2.425
   13CHTO  H159 5251   5.942   4.936   2.334
   13CHTO   O53 5252   5.921   4.910   2.552
   13CHTO   C82 5253   5.781   4.880   2.555
   13CHTO  H154 5254   5.754   4.823   2.467
   13CHTO   C89 5255   5.752   4.791   2.678
   13CHTO   O59 5256   5.817   4.664   2.665
   13CHTO  H137 5257   5.798   4.611   2.741
   13CHTO   O45 5258   6.130   5.020   2.431
   13CHTO   C67 5259   6.201   4.922   2.509
   13CHTO  H124 5260   6.146   4.827   2.512
   13CHTO   C65 5261   6.342   4.896   2.448
   13CHTO  H122 5262   6.327   4.886   2.341
   13CHTO   O44 5263   6.394   4.773   2.501
   13CHTO  H102 5264   6.414   4.783   2.592
   13CHTO   C63 5265   6.433   5.023   2.468
   13CHTO  H120 5266   6.383   5.109   2.424
   13CHTO   N11 5267   6.563   5.021   2.393
   13CHTO  H108 5268   6.581   4.925   2.350
   13CHTO  H109 5269   6.645   5.047   2.457
   13CHTO   C61 5270   6.446   5.052   2.622
   13CHTO  H118 5271   6.499   5.148   2.629
   13CHTO   O40 5272   6.316   5.070   2.684
   13CHTO   C68 5273   6.210   4.972   2.659
   13CHTO  H125 5274   6.115   5.026   2.680
   13CHTO   C72 5275   6.217   4.855   2.761
   13CHTO   O48 5276   6.190   4.897   0.075
   13CHTO  H105 5277   6.194   4.823   0.132
   13CHTO   O38 5278   6.518   4.950   2.695
   13CHTO   C55 5279   6.609   4.986   2.802
   13CHTO  H112 5280   6.625   4.893   0.037
   13CHTO   C56 5281   6.555   5.103   0.077
   13CHTO  H113 5282   6.523   5.187   0.014
   13CHTO   O42 5283   6.438   5.055   0.145
   13CHTO  H100 5284   6.399   5.124   0.195
   13CHTO   C57 5285   6.667   5.151   0.178
   13CHTO  H114 5286   6.689   5.069   0.246
   13CHTO   N10 5287   6.623   5.268   0.259
   13CHTO  H106 5288   6.574   5.233   0.349
   13CHTO  H107 5289   6.708   5.329   0.287
   13CHTO   C58 5290   6.795   5.183   0.096
   13CHTO  H115 5291   6.772   5.264   0.023
   13CHTO   O37 5292   6.839   5.066   0.025
   13CHTO   C59 5293   6.749   5.023   2.742
   13CHTO  H116 5294   6.739   5.101   2.668
   13CHTO   C70 5295   6.812   4.902   2.671
   13CHTO   O46 5296   6.839   4.790   2.756
   13CHTO  H103 5297   6.759   4.753   2.787
   13CHTO   O39 5298   6.922   5.226   0.192
   13CHTO   C60 5299   6.981   5.352   0.153
   13CHTO  H117 5300   6.939   5.386   0.059
   13CHTO   C62 5301   6.954   5.461   0.260
   13CHTO  H119 5302   6.843   5.467   0.271
   13CHTO   O43 5303   7.010   5.421   0.387
   13CHTO  H101 5304   6.988   5.485   0.453
   13CHTO   C66 5305   7.007   5.602   0.206
   13CHTO  H123 5306   6.957   5.624   0.111
   13CHTO   N12 5307   6.973   5.715   0.297
   13CHTO  H110 5308   6.866   5.723   0.306
   13CHTO  H111 5309   7.020   5.700   0.393
   13CHTO   C69 5310   7.159   5.593   0.175
   13CHTO  H126 5311   7.217   5.580   0.269
   13CHTO   O41 5312   7.188   5.472   0.078
   13CHTO   C64 5313   7.135   5.338   0.130
   13CHTO  H121 5314   7.184   5.313   0.227
   13CHTO   C71 5315   7.167   5.226   0.029
   13CHTO   O47 5316   7.307   5.220   0.004
   13CHTO  H104 5317   7.325   5.151   2.762
   13CHTO   O34 5318   7.207   5.721   0.107
   13CHTO   C49 5319   7.312   5.800   0.041
   13CHTO   H91 5320   7.332   5.753   2.766
   13CHTO   C47 5321   7.439   5.799   0.131
   13CHTO   H89 5322   7.516   5.853   0.070
   13CHTO   O33 5323   7.484   5.664   0.152
   13CHTO   H70 5324   7.568   5.665   0.194
   13CHTO   C45 5325   7.411   5.875   0.272
   13CHTO   H87 5326   7.375   5.800   0.344
   13CHTO    N8 5327   7.539   5.931   0.324
   13CHTO   H75 5328   7.619   5.922   0.252
   13CHTO   H76 5329   7.567   5.883   0.416
   13CHTO   C43 5330   7.290   5.980   0.255
   13CHTO   H85 5331   7.200   5.919   0.266
   13CHTO   O29 5332   7.298   6.041   0.126
   13CHTO   C50 5333   7.270   5.949   0.019
   13CHTO   H92 5334   7.161   5.950   0.002
   13CHTO   C54 5335   7.328   6.004   2.706
   13CHTO   O36 5336   7.262   6.126   2.668
   13CHTO   H72 5337   7.284   6.194   2.727
   13CHTO   O27 5338   7.278   6.077   0.361
   13CHTO   C37 5339   7.207   6.197   0.396
   13CHTO   H79 5340   7.160   6.185   0.495
   13CHTO   C38 5341   7.307   6.316   0.406
   13CHTO   H80 5342   7.370   6.316   0.316
   13CHTO   O31 5343   7.393   6.291   0.520
   13CHTO   H68 5344   7.449   6.217   0.503
   13CHTO   C39 5345   7.234   6.455   0.420
   13CHTO   H81 5346   7.184   6.457   0.517
   13CHTO    N7 5347   7.328   6.572   0.417
   13CHTO   H73 5348   7.397   6.566   0.500
   13CHTO   H74 5349   7.383   6.574   0.323
   13CHTO   C40 5350   7.123   6.469   0.309
   13CHTO   H82 5351   7.169   6.476   0.210
   13CHTO   O26 5352   7.033   6.357   0.318
   13CHTO   C41 5353   7.095   6.228   0.291
   13CHTO   H83 5354   7.138   6.229   0.190
   13CHTO   C52 5355   6.982   6.123   0.295
   13CHTO   O35 5356   6.883   6.142   0.187
   13CHTO   H71 5357   6.923   6.124   0.104
   13CHTO   O28 5358   7.037   6.583   0.331
   13CHTO   C42 5359   6.955   6.636   0.222
   13CHTO   H84 5360   6.952   6.557   0.146
   13CHTO   C44 5361   7.014   6.762   0.151
   13CHTO   H86 5362   7.029   6.840   0.226
   13CHTO   O32 5363   7.143   6.725   0.099
   13CHTO   H69 5364   7.186   6.800   0.063
   13CHTO   C48 5365   6.918   6.819   0.038
   13CHTO   H90 5366   6.916   6.746   2.776
   13CHTO    N9 5367   6.969   6.947   2.798
   13CHTO   H77 5368   6.979   7.022   0.054
   13CHTO   H78 5369   7.064   6.929   2.750
   13CHTO   C51 5370   6.772   6.833   0.095
   13CHTO   H93 5371   6.772   6.910   0.173
   13CHTO   O30 5372   6.730   6.706   0.146
   13CHTO   C46 5373   6.807   6.662   0.265
   13CHTO   H88 5374   6.805   6.740   0.341
   13CHTO   C53 5375   6.736   6.535   0.318
   13CHTO   O72 5376   6.787   6.494   0.445
   13CHTO  H199 5377   6.743   6.415   0.472
   13CHTO   O22 5378   6.677   6.866   2.812
   13CHTO   C31 5379   6.540   6.917   0.019
   13CHTO   H59 5380   6.492   6.929   2.739
   13CHTO   C29 5381   6.450   6.822   0.101
   13CHTO   H57 5382   6.493   6.813   0.202
   13CHTO   O21 5383   6.457   6.691   0.041
   13CHTO   H37 5384   6.412   6.629   0.094
   13CHTO   C27 5385   6.303   6.878   0.113
   13CHTO   H55 5386   6.259   6.881   0.012
   13CHTO    N5 5387   6.215   6.794   0.199
   13CHTO   H43 5388   6.171   6.851   0.279
   13CHTO   H44 5389   6.269   6.709   0.239
   13CHTO   C25 5390   6.307   7.027   0.163
   13CHTO   H53 5391   6.340   7.028   0.269
   13CHTO   O17 5392   6.402   7.107   0.086
   13CHTO   C32 5393   6.537   7.058   0.086
   13CHTO   H60 5394   6.573   7.049   0.188
   13CHTO   C36 5395   6.626   7.159   0.010
   13CHTO   O25 5396   6.631   7.284   0.079
   13CHTO   H40 5397   6.686   7.344   0.032
   13CHTO   O15 5398   6.164   7.095   0.154
   13CHTO   C19 5399   6.064   7.154   0.065
   13CHTO   H47 5400   6.089   7.262   0.066
   13CHTO   C20 5401   6.071   7.103   2.738
   13CHTO   H48 5402   6.057   6.994   2.732
   13CHTO   O19 5403   6.203   7.133   2.689
   13CHTO   H35 5404   6.215   7.096   2.603
   13CHTO   C21 5405   5.960   7.171   2.647
   13CHTO   H49 5406   5.983   7.277   2.639
   13CHTO    N4 5407   5.957   7.117   2.509
   13CHTO   H41 5408   5.934   7.012   2.510
   13CHTO   H42 5409   5.883   7.169   2.450
   13CHTO   C22 5410   5.822   7.159   2.718
   13CHTO   H50 5411   5.794   7.054   2.722
   13CHTO   O14 5412   5.829   7.213   0.031
   13CHTO   C23 5413   5.918   7.142   0.119
   13CHTO   H51 5414   5.885   7.037   0.123
   13CHTO   C34 5415   5.901   7.202   0.259
   13CHTO   O23 5416   5.967   7.125   0.359
   13CHTO   H38 5417   5.955   7.165   0.443
   13CHTO   O16 5418   5.721   7.237   2.650
   13CHTO   C24 5419   5.571   7.188   2.676
   13CHTO   H52 5420   5.561   7.136   2.771
   13CHTO   C26 5421   5.528   7.095   2.561
   13CHTO   H54 5422   5.543   7.148   2.464
   13CHTO   O20 5423   5.612   6.978   2.562
   13CHTO   H36 5424   5.700   7.001   2.538
   13CHTO   C30 5425   5.377   7.057   2.572
   13CHTO   H58 5426   5.362   6.993   2.660
   13CHTO    N6 5427   5.330   6.975   2.456
   13CHTO   H45 5428   5.410   6.955   2.387
   13CHTO   H46 5429   5.250   7.025   2.403
   13CHTO   C33 5430   5.289   7.184   2.594
   13CHTO   H61 5431   5.289   7.244   2.502
   13CHTO   O18 5432   5.344   7.265   2.700
   13CHTO   C28 5433   5.478   7.312   2.682
   13CHTO   H56 5434   5.487   7.368   2.589
   13CHTO   C35 5435   5.511   7.404   2.802
   13CHTO   O24 5436   5.636   7.474   2.787
   13CHTO   H39 5437   5.650   7.529   0.041
   13CHTO    O9 5438   5.150   7.153   2.618
   13CHTO   C13 5439   5.119   7.090   2.769
   13CHTO   H26 5440   5.209   7.105   0.013
   13CHTO   C11 5441   5.082   6.937   2.755
   13CHTO   H24 5442   5.171   6.884   2.718
   13CHTO    O8 5443   4.977   6.919   2.658
   13CHTO    H3 5444   5.006   6.946   2.573
   13CHTO    C9 5445   5.046   6.885   0.077
   13CHTO   H22 5446   5.134   6.908   0.139
   13CHTO    N2 5447   5.037   6.737   0.083
   13CHTO   H10 5448   5.126   6.692   0.042
   13CHTO   H11 5449   4.950   6.703   0.029
   13CHTO    C7 5450   4.923   6.967   0.136
   13CHTO   H20 5451   4.959   7.000   0.236
   13CHTO    O4 5452   4.890   7.084   0.058
   13CHTO   C14 5453   5.001   7.169   0.024
   13CHTO   H27 5454   5.042   7.211   0.118
   13CHTO   C18 5455   4.948   7.288   2.761
   13CHTO   O13 5456   4.862   7.373   0.018
   13CHTO    H7 5457   4.912   7.419   0.083
   13CHTO    O2 5458   4.783   6.877   0.156
   13CHTO    C1 5459   4.737   6.869   0.292
   13CHTO   H14 5460   4.746   6.969   0.340
   13CHTO    C2 5461   4.816   6.763   0.380
   13CHTO   H15 5462   4.819   6.670   0.320
   13CHTO    O6 5463   4.951   6.810   0.401
   13CHTO    H1 5464   4.950   6.892   0.447
   13CHTO    C3 5465   4.746   6.735   0.521
   13CHTO   H16 5466   4.762   6.823   0.585
   13CHTO    N1 5467   4.806   6.618   0.593
   13CHTO    H8 5468   4.911   6.636   0.612
   13CHTO    H9 5469   4.795   6.528   0.534
   13CHTO    C4 5470   4.590   6.722   0.506
   13CHTO   H17 5471   4.566   6.624   0.463
   13CHTO    O1 5472   4.534   6.827   0.426
   13CHTO    C5 5473   4.585   6.833   0.291
   13CHTO   H18 5474   4.573   6.736   0.243
   13CHTO   C16 5475   4.502   6.938   0.213
   13CHTO   O11 5476   4.365   6.899   0.202
   13CHTO    H5 5477   4.357   6.827   0.143
   13CHTO    O3 5478   4.528   6.738   0.635
   13CHTO    C6 5479   4.399   6.671   0.655
   13CHTO   H19 5480   4.351   6.643   0.561
   13CHTO    C8 5481   4.419   6.542   0.741
   13CHTO   H21 5482   4.481   6.568   0.827
   13CHTO    O7 5483   4.490   6.447   0.659
   13CHTO    H2 5484   4.438   6.421   0.586
   13CHTO   C12 5485   4.281   6.485   0.793
   13CHTO   H25 5486   4.228   6.447   0.704
   13CHTO    N3 5487   4.301   6.369   0.886
   13CHTO   H12 5488   4.206   6.331   0.919
   13CHTO   H13 5489   4.356   6.291   0.835
   13CHTO   C15 5490   4.195   6.601   0.856
   13CHTO   H28 5491   4.241   6.639   0.948
   13CHTO   O10 5492   4.048   6.559   0.886
   13CHTO    H4 5493   4.009   6.523   0.809
   13CHTO    O5 5494   4.179   6.708   0.761
   13CHTO   C10 5495   4.303   6.771   0.727
   13CHTO   H23 5496   4.351   6.807   0.818
   13CHTO   C17 5497   4.274   6.896   0.641
   13CHTO   O12 5498   4.205   6.866   0.520
   13CHTO    H6 5499   4.260   6.817   0.462
   14CHTO  H203 5500   6.910   4.546   2.101
   14CHTO   O82 5501   6.897   4.634   2.129
   14CHTO  C123 5502   6.808   4.639   2.242
   14CHTO  H227 5503   6.798   4.744   2.275
   14CHTO   O77 5504   6.680   4.592   2.188
   14CHTO  C118 5505   6.572   4.596   2.283
   14CHTO  H222 5506   6.564   4.698   2.324
   14CHTO  C125 5507   6.439   4.562   2.207
   14CHTO   O84 5508   6.403   4.667   2.117
   14CHTO  H205 5509   6.324   4.645   2.073
   14CHTO  C114 5510   6.601   4.498   2.398
   14CHTO  H218 5511   6.613   4.398   2.356
   14CHTO  C116 5512   6.735   4.536   2.467
   14CHTO  H220 5513   6.723   4.633   2.520
   14CHTO   O79 5514   6.763   4.438   2.569
   14CHTO  H201 5515   6.700   4.444   2.638
   14CHTO  C120 5516   6.853   4.546   2.362
   14CHTO  H224 5517   6.871   4.443   2.324
   14CHTO   N21 5518   6.980   4.593   2.424
   14CHTO  H211 5519   6.961   4.660   2.506
   14CHTO  H212 5520   7.044   4.639   2.350
   14CHTO   O75 5521   6.487   4.505   2.485
   14CHTO  C112 5522   6.397   4.363   2.515
   14CHTO  H216 5523   6.435   4.316   2.608
   14CHTO   O73 5524   6.412   4.276   2.402
   14CHTO  C113 5525   6.338   4.154   2.412
   14CHTO  H217 5526   6.364   4.103   2.507
   14CHTO  C124 5527   6.383   4.062   2.298
   14CHTO   O83 5528   6.521   4.024   2.307
   14CHTO  H204 5529   6.534   3.968   2.380
   14CHTO  C109 5530   6.186   4.185   2.409
   14CHTO  H213 5531   6.166   4.238   2.315
   14CHTO  C110 5532   6.153   4.276   2.531
   14CHTO  H214 5533   6.167   4.218   2.623
   14CHTO   O78 5534   6.014   4.313   2.524
   14CHTO  H200 5535   5.959   4.238   2.536
   14CHTO  C111 5536   6.245   4.402   2.533
   14CHTO  H215 5537   6.217   4.467   2.448
   14CHTO   N19 5538   6.228   4.485   2.656
   14CHTO  H207 5539   6.290   4.573   2.651
   14CHTO  H208 5540   6.253   4.427   2.744
   14CHTO   O74 5541   6.105   4.063   2.414
   14CHTO  C115 5542   6.032   4.027   2.273
   14CHTO  H219 5543   6.075   4.083   2.190
   14CHTO   O76 5544   6.054   3.874   2.233
   14CHTO  C122 5545   5.974   3.783   2.311
   14CHTO  H226 5546   6.005   3.793   2.415
   14CHTO  C126 5547   6.008   3.635   2.270
   14CHTO   O85 5548   6.144   3.599   2.297
   14CHTO  H206 5549   6.202   3.647   2.242
   14CHTO  C121 5550   5.819   3.812   2.297
   14CHTO  H225 5551   5.772   3.730   2.237
   14CHTO   O81 5552   5.758   3.809   2.426
   14CHTO  H202 5553   5.792   3.878   2.480
   14CHTO  C119 5554   5.791   3.947   2.225
   14CHTO  H223 5555   5.827   3.934   2.122
   14CHTO  C117 5556   5.878   4.063   2.287
   14CHTO  H221 5557   5.862   4.080   2.394
   14CHTO   N20 5558   5.849   4.195   2.222
   14CHTO  H209 5559   5.907   4.273   2.268
   14CHTO  H210 5560   5.743   4.218   2.231
   14CHTO   O80 5561   5.636   3.972   2.201
   14CHTO  C103 5562   5.580   3.973   2.056
   14CHTO  H190 5563   5.638   4.041   1.994
   14CHTO  C101 5564   5.571   3.834   1.983
   14CHTO  H188 5565   5.513   3.765   2.045
   14CHTO   O68 5566   5.713   3.774   1.965
   14CHTO  H168 5567   5.707   3.688   1.927
   14CHTO   C99 5568   5.495   3.851   1.843
   14CHTO  H186 5569   5.555   3.919   1.779
   14CHTO   N17 5570   5.476   3.724   1.766
   14CHTO  H174 5571   5.508   3.639   1.824
   14CHTO  H175 5572   5.529   3.729   1.672
   14CHTO   C97 5573   5.359   3.924   1.866
   14CHTO  H184 5574   5.292   3.855   1.920
   14CHTO   O64 5575   5.379   4.048   1.937
   14CHTO  C104 5576   5.435   4.033   2.068
   14CHTO  H191 5577   5.374   3.965   2.128
   14CHTO  C108 5578   5.431   4.168   2.140
   14CHTO   O71 5579   5.505   4.270   2.072
   14CHTO  H171 5580   5.463   4.291   1.991
   14CHTO   O62 5581   5.300   3.968   1.742
   14CHTO   C91 5582   5.156   3.967   1.737
   14CHTO  H178 5583   5.123   3.870   1.776
   14CHTO   C92 5584   5.112   3.969   1.587
   14CHTO  H179 5585   5.169   3.892   1.531
   14CHTO   O66 5586   4.975   3.927   1.582
   14CHTO  H166 5587   4.948   3.915   1.493
   14CHTO   C93 5588   5.123   4.112   1.521
   14CHTO  H180 5589   5.060   4.109   1.431
   14CHTO   N16 5590   5.259   4.144   1.471
   14CHTO  H172 5591   5.289   4.070   1.397
   14CHTO  H173 5592   5.260   4.243   1.427
   14CHTO   C94 5593   5.068   4.223   1.618
   14CHTO  H181 5594   5.148   4.287   1.658
   14CHTO   O61 5595   5.001   4.168   1.733
   14CHTO   C95 5596   5.083   4.085   1.817
   14CHTO  H182 5597   5.159   4.148   1.865
   14CHTO  C106 5598   4.991   4.031   1.933
   14CHTO   O69 5599   5.066   3.956   2.029
   14CHTO  H169 5600   5.008   3.923   2.095
   14CHTO   O63 5601   4.962   4.310   1.539
   14CHTO   C96 5602   4.984   4.467   1.542
   14CHTO  H183 5603   4.905   4.511   1.482
   14CHTO   C98 5604   5.120   4.513   1.481
   14CHTO  H185 5605   5.203   4.455   1.524
   14CHTO   O67 5606   5.117   4.478   1.341
   14CHTO  H167 5607   5.199   4.497   1.301
   14CHTO  C102 5608   5.146   4.670   1.501
   14CHTO  H189 5609   5.066   4.722   1.444
   14CHTO   N18 5610   5.274   4.721   1.446
   14CHTO  H176 5611   5.256   4.798   1.373
   14CHTO  H177 5612   5.339   4.758   1.524
   14CHTO  C105 5613   5.126   4.702   1.652
   14CHTO  H192 5614   5.200   4.646   1.710
   14CHTO   O65 5615   4.995   4.663   1.696
   14CHTO  C100 5616   4.967   4.522   1.690
   14CHTO  H187 5617   5.037   4.470   1.757
   14CHTO  C107 5618   4.824   4.504   1.745
   14CHTO   O70 5619   4.787   4.366   1.762
   14CHTO  H170 5620   4.701   4.361   1.798
   14CHTO   O57 5621   5.151   4.866   1.674
   14CHTO   C85 5622   5.049   4.956   1.717
   14CHTO  H157 5623   4.953   4.901   1.717
   14CHTO   C83 5624   5.032   5.067   1.608
   14CHTO  H155 5625   4.992   5.020   1.518
   14CHTO   O56 5626   5.161   5.121   1.571
   14CHTO  H135 5627   5.199   5.166   1.644
   14CHTO   C81 5628   4.930   5.174   1.658
   14CHTO  H153 5629   4.837   5.122   1.683
   14CHTO   N14 5630   4.891   5.273   1.555
   14CHTO  H141 5631   4.853   5.222   1.468
   14CHTO  H142 5632   4.816   5.338   1.593
   14CHTO   C79 5633   4.985   5.240   1.790
   14CHTO  H151 5634   4.910   5.311   1.824
   14CHTO   O52 5635   4.998   5.138   1.894
   14CHTO   C86 5636   5.080   5.022   1.858
   14CHTO  H158 5637   5.184   5.059   1.864
   14CHTO   C90 5638   5.065   4.918   1.973
   14CHTO   O60 5639   5.156   4.808   1.959
   14CHTO  H138 5640   5.244   4.838   1.972
   14CHTO   O50 5641   5.111   5.310   1.773
   14CHTO   C73 5642   5.146   5.439   1.824
   14CHTO  H145 5643   5.080   5.467   1.908
   14CHTO   C74 5644   5.131   5.547   1.712
   14CHTO  H146 5645   5.028   5.540   1.673
   14CHTO   O54 5646   5.144   5.677   1.771
   14CHTO  H133 5647   5.072   5.694   1.829
   14CHTO   C75 5648   5.238   5.520   1.598
   14CHTO  H147 5649   5.220   5.419   1.557
   14CHTO   N13 5650   5.232   5.614   1.484
   14CHTO  H139 5651   5.153   5.686   1.498
   14CHTO  H140 5652   5.213   5.560   1.392
   14CHTO   C76 5653   5.384   5.517   1.665
   14CHTO  H148 5654   5.402   5.616   1.709
   14CHTO   O49 5655   5.388   5.416   1.771
   14CHTO   C77 5656   5.294   5.438   1.877
   14CHTO  H149 5657   5.315   5.533   1.925
   14CHTO   C88 5658   5.314   5.331   1.985
   14CHTO   O58 5659   5.450   5.338   2.044
   14CHTO  H136 5660   5.459   5.271   2.109
   14CHTO   O51 5661   5.498   5.475   1.562
   14CHTO   C78 5662   5.640   5.532   1.606
   14CHTO  H150 5663   5.637   5.569   1.711
   14CHTO   C80 5664   5.682   5.648   1.513
   14CHTO  H152 5665   5.679   5.613   1.408
   14CHTO   O55 5666   5.583   5.752   1.529
   14CHTO  H134 5667   5.599   5.821   1.468
   14CHTO   C84 5668   5.827   5.699   1.549
   14CHTO  H156 5669   5.824   5.741   1.649
   14CHTO   N15 5670   5.873   5.810   1.457
   14CHTO  H143 5671   5.961   5.782   1.403
   14CHTO  H144 5672   5.894   5.898   1.514
   14CHTO   C87 5673   5.926   5.579   1.549
   14CHTO  H159 5674   5.936   5.540   1.448
   14CHTO   O53 5675   5.871   5.468   1.644
   14CHTO   C82 5676   5.744   5.419   1.600
   14CHTO  H154 5677   5.752   5.380   1.498
   14CHTO   C89 5678   5.702   5.299   1.689
   14CHTO   O59 5679   5.690   5.334   1.828
   14CHTO  H137 5680   5.618   5.393   1.840
   14CHTO   O45 5681   6.073   5.625   1.604
   14CHTO   C67 5682   6.174   5.523   1.598
   14CHTO  H124 5683   6.136   5.428   1.637
   14CHTO   C65 5684   6.226   5.501   1.451
   14CHTO  H122 5685   6.137   5.493   1.388
   14CHTO   O44 5686   6.301   5.379   1.442
   14CHTO  H102 5687   6.246   5.305   1.461
   14CHTO   C63 5688   6.301   5.631   1.402
   14CHTO  H120 5689   6.232   5.715   1.410
   14CHTO   N11 5690   6.338   5.633   1.257
   14CHTO  H108 5691   6.278   5.704   1.203
   14CHTO  H109 5692   6.327   5.536   1.213
   14CHTO   C61 5693   6.420   5.663   1.500
   14CHTO  H118 5694   6.457   5.763   1.471
   14CHTO   O40 5695   6.374   5.674   1.637
   14CHTO   C68 5696   6.293   5.565   1.694
   14CHTO  H125 5697   6.247   5.606   1.785
   14CHTO   C72 5698   6.380   5.444   1.739
   14CHTO   O48 5699   6.485   5.481   1.829
   14CHTO  H105 5700   6.549   5.534   1.784
   14CHTO   O38 5701   6.529   5.567   1.500
   14CHTO   C55 5702   6.655   5.606   1.442
   14CHTO  H112 5703   6.642   5.697   1.381
   14CHTO   C56 5704   6.710   5.484   1.357
   14CHTO  H113 5705   6.709   5.396   1.423
   14CHTO   O42 5706   6.619   5.454   1.249
   14CHTO  H100 5707   6.612   5.527   1.191
   14CHTO   C57 5708   6.856   5.510   1.303
   14CHTO  H114 5709   6.848   5.587   1.226
   14CHTO   N10 5710   6.919   5.391   1.240
   14CHTO  H106 5711   6.971   5.331   1.313
   14CHTO  H107 5712   6.845   5.331   1.190
   14CHTO   C58 5713   6.946   5.566   1.416
   14CHTO  H115 5714   6.967   5.485   1.490
   14CHTO   O37 5715   6.883   5.677   1.483
   14CHTO   C59 5716   6.761   5.643   1.551
   14CHTO  H116 5717   6.777   5.560   1.619
   14CHTO   C70 5718   6.724   5.768   1.632
   14CHTO   O46 5719   6.632   5.741   1.738
   14CHTO  H103 5720   6.549   5.718   1.703
   14CHTO   O39 5721   7.085   5.624   1.357
   14CHTO   C60 5722   7.189   5.636   1.456
   14CHTO  H117 5723   7.144   5.654   1.554
   14CHTO   C62 5724   7.274   5.506   1.465
   14CHTO  H119 5725   7.204   5.424   1.495
   14CHTO   O43 5726   7.327   5.475   1.334
   14CHTO  H101 5727   7.374   5.394   1.337
   14CHTO   C66 5728   7.387   5.523   1.578
   14CHTO  H123 5729   7.338   5.546   1.673
   14CHTO   N12 5730   7.464   5.398   1.600
   14CHTO  H110 5731   7.398   5.319   1.630
   14CHTO  H111 5732   7.541   5.415   1.674
   14CHTO   C69 5733   7.477   5.644   1.541
   14CHTO  H126 5734   7.529   5.625   1.444
   14CHTO   O41 5735   7.388   5.771   1.528
   14CHTO   C64 5736   7.279   5.758   1.425
   14CHTO  H121 5737   7.324   5.744   1.325
   14CHTO   C71 5738   7.197   5.889   1.423
   14CHTO   O47 5739   7.277   5.999   1.379
   14CHTO  H104 5740   7.225   6.077   1.378
   14CHTO   O34 5741   7.587   5.672   1.652
   14CHTO   C49 5742   7.716   5.752   1.617
   14CHTO   H91 5743   7.766   5.699   1.536
   14CHTO   C47 5744   7.807   5.753   1.742
   14CHTO   H89 5745   7.902   5.802   1.707
   14CHTO   O33 5746   7.839   5.619   1.782
   14CHTO   H70 5747   7.905   5.620   1.849
   14CHTO   C45 5748   7.740   5.834   1.864
   14CHTO   H87 5749   7.681   5.764   1.924
   14CHTO    N8 5750   7.848   5.889   1.950
   14CHTO   H75 5751   7.912   5.809   1.984
   14CHTO   H76 5752   7.906   5.962   1.895
   14CHTO   C43 5753   7.632   5.941   1.808
   14CHTO   H85 5754   7.540   5.884   1.794
   14CHTO   O29 5755   7.679   5.998   1.684
   14CHTO   C50 5756   7.690   5.902   1.577
   14CHTO   H92 5757   7.597   5.906   1.518
   14CHTO   C54 5758   7.797   5.955   1.477
   14CHTO   O36 5759   7.802   5.878   1.357
   14CHTO   H72 5760   7.837   5.793   1.375
   14CHTO   O27 5761   7.597   6.042   1.904
   14CHTO   C37 5762   7.485   6.096   1.975
   14CHTO   H79 5763   7.519   6.159   2.058
   14CHTO   C38 5764   7.398   6.186   1.882
   14CHTO   H80 5765   7.372   6.128   1.792
   14CHTO   O31 5766   7.481   6.298   1.842
   14CHTO   H68 5767   7.436   6.350   1.779
   14CHTO   C39 5768   7.267   6.234   1.955
   14CHTO   H81 5769   7.297   6.302   2.035
   14CHTO    N7 5770   7.174   6.312   1.865
   14CHTO   H73 5771   7.087   6.343   1.920
   14CHTO   H74 5772   7.225   6.398   1.825
   14CHTO   C40 5773   7.192   6.112   2.021
   14CHTO   H82 5774   7.145   6.049   1.945
   14CHTO   O26 5775   7.283   6.038   2.104
   14CHTO   C41 5776   7.397   5.982   2.033
   14CHTO   H83 5777   7.361   5.917   1.951
   14CHTO   C52 5778   7.476   5.893   2.132
   14CHTO   O35 5779   7.396   5.779   2.179
   14CHTO   H71 5780   7.448   5.728   2.239
   14CHTO   O28 5781   7.093   6.155   2.117
   14CHTO   C42 5782   6.973   6.075   2.148
   14CHTO   H84 5783   6.945   6.110   2.247
   14CHTO   C44 5784   6.990   5.920   2.162
   14CHTO   H86 5785   7.027   5.880   2.066
   14CHTO   O32 5786   7.090   5.895   2.262
   14CHTO   H69 5787   7.175   5.924   2.232
   14CHTO   C48 5788   6.855   5.847   2.198
   14CHTO   H90 5789   6.831   5.871   2.302
   14CHTO    N9 5790   6.867   5.697   2.194
   14CHTO   H77 5791   6.940   5.664   2.265
   14CHTO   H78 5792   6.894   5.665   2.094
   14CHTO   C51 5793   6.736   5.898   2.108
   14CHTO   H93 5794   6.747   5.858   2.007
   14CHTO   O30 5795   6.732   6.041   2.109
   14CHTO   C46 5796   6.854   6.106   2.053
   14CHTO   H88 5797   6.875   6.065   1.954
   14CHTO   C53 5798   6.826   6.258   2.043
   14CHTO   O72 5799   6.718   6.283   1.953
   14CHTO  H199 5800   6.703   6.376   1.948
   14CHTO   O22 5801   6.608   5.863   2.165
   14CHTO   C31 5802   6.499   5.797   2.091
   14CHTO   H59 5803   6.547   5.745   2.004
   14CHTO   C29 5804   6.428   5.690   2.176
   14CHTO   H57 5805   6.392   5.742   2.266
   14CHTO   O21 5806   6.526   5.594   2.219
   14CHTO   H37 5807   6.489   5.537   2.284
   14CHTO   C27 5808   6.305   5.623   2.102
   14CHTO   H55 5809   6.343   5.564   2.018
   14CHTO    N5 5810   6.226   5.533   2.191
   14CHTO   H43 5811   6.263   5.535   2.292
   14CHTO   H44 5812   6.228   5.432   2.152
   14CHTO   C25 5813   6.214   5.736   2.041
   14CHTO   H53 5814   6.171   5.795   2.123
   14CHTO   O17 5815   6.294   5.824   1.958
   14CHTO   C32 5816   6.395   5.897   2.031
   14CHTO   H60 5817   6.348   5.952   2.112
   14CHTO   C36 5818   6.458   5.999   1.933
   14CHTO   O25 5819   6.363   6.099   1.895
   14CHTO   H40 5820   6.404   6.160   1.835
   14CHTO   O15 5821   6.098   5.678   1.952
   14CHTO   C19 5822   5.957   5.712   1.946
   14CHTO   H47 5823   5.925   5.676   1.847
   14CHTO   C20 5824   5.871   5.641   2.055
   14CHTO   H48 5825   5.911   5.659   2.156
   14CHTO   O19 5826   5.881   5.499   2.030
   14CHTO   H35 5827   5.967   5.469   2.048
   14CHTO   C21 5828   5.720   5.687   2.054
   14CHTO   H49 5829   5.673   5.651   1.963
   14CHTO    N4 5830   5.642   5.631   2.168
   14CHTO   H41 5831   5.644   5.523   2.163
   14CHTO   H42 5832   5.539   5.664   2.162
   14CHTO   C22 5833   5.714   5.843   2.049
   14CHTO   H50 5834   5.758   5.882   2.141
   14CHTO   O14 5835   5.789   5.889   1.935
   14CHTO   C23 5836   5.930   5.865   1.946
   14CHTO   H51 5837   5.965   5.913   2.040
   14CHTO   C34 5838   6.000   5.936   1.829
   14CHTO   O23 5839   5.989   6.078   1.840
   14CHTO   H38 5840   6.032   6.118   1.768
   14CHTO   O16 5841   5.579   5.891   2.036
   14CHTO   C24 5842   5.555   6.041   1.977
   14CHTO   H52 5843   5.614   6.059   1.887
   14CHTO   C26 5844   5.590   6.148   2.081
   14CHTO   H54 5845   5.537   6.123   2.177
   14CHTO   O20 5846   5.732   6.143   2.105
   14CHTO   H36 5847   5.755   6.201   2.175
   14CHTO   C30 5848   5.544   6.290   2.034
   14CHTO   H58 5849   5.607   6.323   1.950
   14CHTO    N6 5850   5.565   6.391   2.142
   14CHTO   H45 5851   5.670   6.396   2.168
   14CHTO   H46 5852   5.508   6.364   2.230
   14CHTO   C33 5853   5.397   6.289   1.980
   14CHTO   H61 5854   5.327   6.270   2.063
   14CHTO   O18 5855   5.383   6.183   1.884
   14CHTO   C28 5856   5.407   6.051   1.936
   14CHTO   H56 5857   5.344   6.033   2.023
   14CHTO   C35 5858   5.372   5.944   1.829
   14CHTO   O24 5859   5.449   5.955   1.708
   14CHTO   H39 5860   5.539   5.935   1.726
   14CHTO    O9 5861   5.357   6.416   1.924
   14CHTO   C13 5862   5.270   6.518   2.022
   14CHTO   H26 5863   5.290   6.490   2.127
   14CHTO   C11 5864   5.116   6.508   1.986
   14CHTO   H24 5865   5.083   6.404   2.006
   14CHTO    O8 5866   5.097   6.534   1.846
   14CHTO    H3 5867   5.007   6.522   1.822
   14CHTO    C9 5868   5.039   6.605   2.080
   14CHTO   H22 5869   5.060   6.570   2.182
   14CHTO    N2 5870   4.891   6.592   2.069
   14CHTO   H10 5871   4.863   6.532   1.984
   14CHTO   H11 5872   4.849   6.551   2.160
   14CHTO    C7 5873   5.096   6.753   2.067
   14CHTO   H20 5874   5.127   6.778   2.171
   14CHTO    O4 5875   5.210   6.760   1.979
   14CHTO   C14 5876   5.319   6.670   2.007
   14CHTO   H27 5877   5.369   6.702   2.101
   14CHTO   C18 5878   5.420   6.693   1.892
   14CHTO   O13 5879   5.548   6.632   1.917
   14CHTO    H7 5880   5.540   6.539   1.916
   14CHTO    O2 5881   4.986   6.869   2.016
   14CHTO    C1 5882   5.004   7.007   2.057
   14CHTO   H14 5883   4.958   7.071   1.979
   14CHTO    C2 5884   5.153   7.057   2.079
   14CHTO   H15 5885   5.197   6.994   2.159
   14CHTO    O6 5886   5.226   7.037   1.957
   14CHTO    H1 5887   5.316   7.058   1.970
   14CHTO    C3 5888   5.154   7.211   2.123
   14CHTO   H16 5889   5.115   7.271   2.038
   14CHTO    N1 5890   5.292   7.262   2.152
   14CHTO    H8 5891   5.316   7.345   2.088
   14CHTO    H9 5892   5.302   7.291   2.256
   14CHTO    C4 5893   5.053   7.236   2.242
   14CHTO   H17 5894   5.096   7.196   2.334
   14CHTO    O1 5895   4.925   7.175   2.217
   14CHTO    C5 5896   4.924   7.035   2.187
   14CHTO   H18 5897   4.970   6.979   2.269
   14CHTO   C16 5898   4.776   6.990   2.174
   14CHTO   O11 5899   4.705   7.005   2.298
   14CHTO    H5 5900   4.694   7.096   2.318
   14CHTO    O3 5901   5.022   7.376   2.254
   14CHTO    C6 5902   5.008   7.430   2.390
   14CHTO   H19 5903   5.019   7.354   2.467
   14CHTO    C8 5904   5.116   7.541   2.414
   14CHTO   H21 5905   5.109   7.614   2.333
   14CHTO    O7 5906   5.245   7.478   2.410
   14CHTO    H2 5907   5.255   7.417   2.480
   14CHTO   C12 5908   5.091   7.616   2.551
   14CHTO   H25 5909   5.111   7.542   2.631
   14CHTO    N3 5910   5.189   7.730   2.572
   14CHTO   H12 5911   5.257   7.738   2.489
   14CHTO   H13 5912   5.243   7.715   2.664
   14CHTO   C15 5913   4.942   7.662   2.561
   14CHTO   H28 5914   4.919   7.743   2.491
   14CHTO   O10 5915   4.901   7.706   2.705
   14CHTO    H4 5916   4.815   7.743   2.705
   14CHTO    O5 5917   4.853   7.552   2.538
   14CHTO   C10 5918   4.866   7.492   2.407
   14CHTO   H23 5919   4.849   7.569   2.332
   14CHTO   C17 5920   4.754   7.388   2.392
   14CHTO   O12 5921   4.624   7.449   2.398
   14CHTO    H6 5922   4.607   7.480   2.486
   15CHTO  H203 5923   7.860   4.584   2.113
   15CHTO   O82 5924   7.780   4.633   2.112
   15CHTO  C123 5925   7.679   4.563   2.037
   15CHTO  H227 5926   7.663   4.464   2.085
   15CHTO   O77 5927   7.561   4.647   2.054
   15CHTO  C118 5928   7.441   4.596   1.993
   15CHTO  H222 5929   7.418   4.496   2.034
   15CHTO  C125 5930   7.324   4.694   2.030
   15CHTO   O84 5931   7.298   4.694   2.170
   15CHTO  H205 5932   7.228   4.754   2.189
   15CHTO  C114 5933   7.461   4.587   1.841
   15CHTO  H218 5934   7.485   4.686   1.803
   15CHTO  C116 5935   7.586   4.498   1.806
   15CHTO  H220 5936   7.565   4.392   1.833
   15CHTO   O79 5937   7.605   4.502   1.664
   15CHTO  H201 5938   7.674   4.444   1.639
   15CHTO  C120 5939   7.714   4.549   1.884
   15CHTO  H224 5940   7.739   4.648   1.842
   15CHTO   N21 5941   7.832   4.460   1.863
   15CHTO  H211 5942   7.800   4.358   1.847
   15CHTO  H212 5943   7.889   4.495   1.778
   15CHTO   O75 5944   7.335   4.545   1.783
   15CHTO  C112 5945   7.294   4.384   1.796
   15CHTO  H216 5946   7.320   4.348   1.896
   15CHTO   O73 5947   7.365   4.313   1.693
   15CHTO  C113 5948   7.351   4.171   1.706
   15CHTO  H217 5949   7.381   4.141   1.808
   15CHTO  C124 5950   7.452   4.108   1.608
   15CHTO   O83 5951   7.465   3.966   1.624
   15CHTO  H204 5952   7.386   3.923   1.597
   15CHTO  C109 5953   7.204   4.129   1.679
   15CHTO  H213 5954   7.183   4.149   1.573
   15CHTO  C110 5955   7.106   4.210   1.770
   15CHTO  H214 5956   7.110   4.170   1.871
   15CHTO   O78 5957   6.971   4.187   1.723
   15CHTO  H200 5958   6.909   4.228   1.781
   15CHTO  C111 5959   7.139   4.363   1.772
   15CHTO  H215 5960   7.114   4.406   1.674
   15CHTO   N19 5961   7.059   4.437   1.873
   15CHTO  H207 5962   7.122   4.484   1.948
   15CHTO  H208 5963   6.999   4.513   1.825
   15CHTO   O74 5964   7.190   3.985   1.703
   15CHTO  C115 5965   7.072   3.909   1.626
   15CHTO  H219 5966   6.974   3.935   1.667
   15CHTO   O76 5967   7.064   3.951   1.473
   15CHTO  C122 5968   7.179   3.908   1.398
   15CHTO  H226 5969   7.265   3.962   1.438
   15CHTO  C126 5970   7.161   3.959   1.251
   15CHTO   O85 5971   7.277   3.934   1.170
   15CHTO  H206 5972   7.263   3.967   1.084
   15CHTO  C121 5973   7.202   3.751   1.405
   15CHTO  H225 5974   7.187   3.708   1.304
   15CHTO   O81 5975   7.338   3.725   1.443
   15CHTO  H202 5976   7.357   3.634   1.433
   15CHTO  C119 5977   7.103   3.682   1.504
   15CHTO  H223 5978   7.005   3.694   1.458
   15CHTO  C117 5979   7.099   3.753   1.644
   15CHTO  H221 5980   7.192   3.747   1.701
   15CHTO   N20 5981   6.996   3.691   1.733
   15CHTO  H209 5982   6.897   3.701   1.690
   15CHTO  H210 5983   7.019   3.586   1.749
   15CHTO   O80 5984   7.119   3.521   1.504
   15CHTO  C103 5985   6.990   3.427   1.488
   15CHTO  H190 5986   6.934   3.423   1.582
   15CHTO  C101 5987   6.891   3.467   1.372
   15CHTO  H188 5988   6.949   3.507   1.288
   15CHTO   O68 5989   6.799   3.576   1.423
   15CHTO  H168 5990   6.848   3.654   1.443
   15CHTO   C99 5991   6.805   3.343   1.319
   15CHTO  H186 5992   6.736   3.309   1.399
   15CHTO   N17 5993   6.720   3.376   1.199
   15CHTO  H174 5994   6.739   3.477   1.165
   15CHTO  H175 5995   6.616   3.362   1.222
   15CHTO   C97 5996   6.901   3.224   1.293
   15CHTO  H184 5997   6.975   3.256   1.218
   15CHTO   O64 5998   6.963   3.187   1.417
   15CHTO  C104 5999   7.056   3.285   1.467
   15CHTO  H191 6000   7.140   3.295   1.398
   15CHTO  C108 6001   7.114   3.239   1.601
   15CHTO   O71 6002   7.197   3.123   1.585
   15CHTO  H171 6003   7.230   3.098   1.669
   15CHTO   O62 6004   6.834   3.103   1.251
   15CHTO   C91 6005   6.895   3.030   1.141
   15CHTO  H178 6006   6.995   3.069   1.125
   15CHTO   C92 6007   6.815   3.058   1.009
   15CHTO  H179 6008   6.803   3.167   0.996
   15CHTO   O66 6009   6.897   3.015   0.899
   15CHTO  H166 6010   6.858   3.040   0.818
   15CHTO   C93 6011   6.676   2.981   1.002
   15CHTO  H180 6012   6.655   2.962   0.896
   15CHTO   N16 6013   6.561   3.062   1.049
   15CHTO  H172 6014   6.593   3.161   1.079
   15CHTO  H173 6015   6.509   3.013   1.130
   15CHTO   C94 6016   6.684   2.842   1.078
   15CHTO  H181 6017   6.651   2.850   1.181
   15CHTO   O61 6018   6.820   2.796   1.081
   15CHTO   C95 6019   6.905   2.874   1.167
   15CHTO  H182 6020   6.878   2.855   1.270
   15CHTO  C106 6021   7.051   2.823   1.148
   15CHTO   O69 6022   7.059   2.681   1.170
   15CHTO  H169 6023   7.147   2.653   1.159
   15CHTO   O63 6024   6.600   2.736   1.002
   15CHTO   C96 6025   6.575   2.602   1.087
   15CHTO  H183 6026   6.593   2.623   1.192
   15CHTO   C98 6027   6.665   2.482   1.045
   15CHTO  H185 6028   6.667   2.474   0.936
   15CHTO   O67 6029   6.800   2.514   1.084
   15CHTO  H167 6030   6.859   2.447   1.054
   15CHTO  C102 6031   6.618   2.342   1.111
   15CHTO  H189 6032   6.636   2.352   1.219
   15CHTO   N18 6033   6.695   2.223   1.066
   15CHTO  H176 6034   6.659   2.135   1.117
   15CHTO  H177 6035   6.686   2.211   0.960
   15CHTO  C105 6036   6.465   2.326   1.087
   15CHTO  H192 6037   6.446   2.319   0.980
   15CHTO   O65 6038   6.393   2.440   1.137
   15CHTO  C100 6039   6.423   2.564   1.071
   15CHTO  H187 6040   6.402   2.553   0.963
   15CHTO  C107 6041   6.331   2.675   1.126
   15CHTO   O70 6042   6.193   2.649   1.095
   15CHTO  H170 6043   6.179   2.658   1.003
   15CHTO   O57 6044   6.411   2.186   1.162
   15CHTO   C85 6045   6.390   2.177   1.304
   15CHTO  H157 6046   6.433   2.269   1.349
   15CHTO   C83 6047   6.475   2.059   1.362
   15CHTO  H155 6048   6.580   2.086   1.353
   15CHTO   O56 6049   6.455   1.942   1.281
   15CHTO  H135 6050   6.513   1.873   1.309
   15CHTO   C81 6051   6.442   2.038   1.513
   15CHTO  H153 6052   6.465   2.131   1.566
   15CHTO   N14 6053   6.529   1.937   1.578
   15CHTO  H141 6054   6.632   1.963   1.564
   15CHTO  H142 6055   6.508   1.933   1.683
   15CHTO   C79 6056   6.288   2.008   1.531
   15CHTO  H151 6057   6.269   2.000   1.638
   15CHTO   O52 6058   6.211   2.123   1.484
   15CHTO   C86 6059   6.237   2.159   1.344
   15CHTO  H158 6060   6.190   2.077   1.285
   15CHTO   C90 6061   6.157   2.287   1.309
   15CHTO   O60 6062   6.016   2.266   1.325
   15CHTO  H138 6063   5.970   2.346   1.305
   15CHTO   O50 6064   6.242   1.888   1.468
   15CHTO   C73 6065   6.143   1.787   1.447
   15CHTO  H145 6066   6.046   1.833   1.420
   15CHTO   C74 6067   6.122   1.701   1.576
   15CHTO  H146 6068   6.088   1.769   1.655
   15CHTO   O54 6069   6.013   1.609   1.553
   15CHTO  H133 6070   5.932   1.656   1.545
   15CHTO   C75 6071   6.258   1.630   1.613
   15CHTO  H147 6072   6.329   1.708   1.643
   15CHTO   N13 6073   6.251   1.540   1.731
   15CHTO  H139 6074   6.274   1.438   1.704
   15CHTO  H140 6075   6.152   1.542   1.775
   15CHTO   C76 6076   6.322   1.557   1.484
   15CHTO  H148 6077   6.271   1.462   1.468
   15CHTO   O49 6078   6.317   1.637   1.361
   15CHTO   C77 6079   6.188   1.693   1.332
   15CHTO  H149 6080   6.116   1.613   1.320
   15CHTO   C88 6081   6.194   1.766   1.197
   15CHTO   O58 6082   6.062   1.821   1.157
   15CHTO  H136 6083   6.038   1.890   1.216
   15CHTO   O51 6084   6.477   1.540   1.513
   15CHTO   C78 6085   6.546   1.419   1.448
   15CHTO  H150 6086   6.497   1.390   1.352
   15CHTO   C80 6087   6.541   1.298   1.545
   15CHTO  H152 6088   6.573   1.334   1.646
   15CHTO   O55 6089   6.404   1.255   1.555
   15CHTO  H134 6090   6.396   1.188   1.620
   15CHTO   C84 6091   6.636   1.180   1.500
   15CHTO  H156 6092   6.593   1.135   1.410
   15CHTO   N15 6093   6.646   1.071   1.603
   15CHTO  H143 6094   6.611   0.978   1.563
   15CHTO  H144 6095   6.588   1.094   1.690
   15CHTO   C87 6096   6.776   1.235   1.464
   15CHTO  H159 6097   6.824   1.274   1.554
   15CHTO   O53 6098   6.760   1.345   1.362
   15CHTO   C82 6099   6.692   1.458   1.416
   15CHTO  H154 6100   6.743   1.494   1.506
   15CHTO   C89 6101   6.701   1.571   1.310
   15CHTO   O59 6102   6.656   1.698   1.359
   15CHTO  H137 6103   6.715   1.729   1.425
   15CHTO   O45 6104   6.872   1.124   1.395
   15CHTO   C67 6105   7.010   1.160   1.405
   15CHTO  H124 6106   7.018   1.268   1.423
   15CHTO   C65 6107   7.079   1.084   1.524
   15CHTO  H122 6108   7.019   0.995   1.543
   15CHTO   O44 6109   7.070   1.172   1.638
   15CHTO  H102 6110   6.981   1.182   1.664
   15CHTO   C63 6111   7.223   1.031   1.487
   15CHTO  H120 6112   7.212   0.946   1.420
   15CHTO   N11 6113   7.302   0.969   1.599
   15CHTO  H108 6114   7.243   0.893   1.647
   15CHTO  H109 6115   7.328   1.044   1.671
   15CHTO   C61 6116   7.298   1.143   1.407
   15CHTO  H118 6117   7.396   1.101   1.378
   15CHTO   O40 6118   7.229   1.178   1.283
   15CHTO   C68 6119   7.088   1.137   1.269
   15CHTO  H125 6120   7.084   1.029   1.241
   15CHTO   C72 6121   7.024   1.216   1.153
   15CHTO   O48 6122   7.085   1.186   1.027
   15CHTO  H105 6123   7.043   1.236   0.959
   15CHTO   O38 6124   7.317   1.261   1.487
   15CHTO   C55 6125   7.407   1.361   1.436
   15CHTO  H112 6126   7.415   1.353   1.326
   15CHTO   C56 6127   7.549   1.350   1.507
   15CHTO  H113 6128   7.531   1.349   1.615
   15CHTO   O42 6129   7.608   1.223   1.474
   15CHTO  H100 6130   7.559   1.153   1.512
   15CHTO   C57 6131   7.643   1.470   1.466
   15CHTO  H114 6132   7.664   1.460   1.360
   15CHTO   N10 6133   7.773   1.472   1.538
   15CHTO  H106 6134   7.762   1.429   1.637
   15CHTO  H107 6135   7.846   1.414   1.483
   15CHTO   C58 6136   7.567   1.604   1.489
   15CHTO  H115 6137   7.545   1.616   1.597
   15CHTO   O37 6138   7.441   1.602   1.417
   15CHTO   C59 6139   7.348   1.503   1.462
   15CHTO  H116 6140   7.327   1.517   1.568
   15CHTO   C70 6141   7.217   1.522   1.384
   15CHTO   O46 6142   7.156   1.649   1.409
   15CHTO  H103 6143   7.078   1.657   1.357
   15CHTO   O39 6144   7.660   1.738   1.436
   15CHTO   C60 6145   7.608   1.812   1.325
   15CHTO  H117 6146   7.559   1.744   1.256
   15CHTO   C62 6147   7.504   1.919   1.372
   15CHTO  H119 6148   7.424   1.863   1.426
   15CHTO   O43 6149   7.567   2.009   1.465
   15CHTO  H101 6150   7.590   1.963   1.544
   15CHTO   C66 6151   7.439   1.991   1.244
   15CHTO  H123 6152   7.387   1.916   1.185
   15CHTO   N12 6153   7.336   2.092   1.282
   15CHTO  H110 6154   7.258   2.044   1.339
   15CHTO  H111 6155   7.296   2.138   1.193
   15CHTO   C69 6156   7.548   2.053   1.152
   15CHTO  H126 6157   7.594   2.143   1.200
   15CHTO   O41 6158   7.663   1.946   1.120
   15CHTO   C64 6159   7.722   1.881   1.246
   15CHTO  H121 6160   7.769   1.959   1.310
   15CHTO   C71 6161   7.832   1.780   1.206
   15CHTO   O47 6162   7.941   1.845   1.141
   15CHTO  H104 6163   7.987   1.900   1.201
   15CHTO   O34 6164   7.482   2.099   1.013
   15CHTO   C49 6165   7.449   2.146   0.869
   15CHTO   H91 6166   7.488   2.070   0.801
   15CHTO   C47 6167   7.520   2.281   0.844
   15CHTO   H89 6168   7.505   2.304   0.736
   15CHTO   O33 6169   7.661   2.263   0.868
   15CHTO   H70 6170   7.707   2.341   0.847
   15CHTO   C45 6171   7.452   2.395   0.935
   15CHTO   H87 6172   7.459   2.363   1.040
   15CHTO    N8 6173   7.521   2.526   0.922
   15CHTO   H75 6174   7.626   2.515   0.947
   15CHTO   H76 6175   7.512   2.562   0.821
   15CHTO   C43 6176   7.294   2.404   0.903
   15CHTO   H85 6177   7.252   2.473   0.977
   15CHTO   O29 6178   7.233   2.273   0.913
   15CHTO   C50 6179   7.296   2.161   0.847
   15CHTO   H92 6180   7.250   2.070   0.887
   15CHTO   C54 6181   7.259   2.156   0.696
   15CHTO   O36 6182   7.118   2.139   0.678
   15CHTO   H72 6183   7.098   2.137   0.586
   15CHTO   O27 6184   7.266   2.463   0.775
   15CHTO   C37 6185   7.169   2.515   0.683
   15CHTO   H79 6186   7.131   2.435   0.618
   15CHTO   C38 6187   7.046   2.577   0.757
   15CHTO   H80 6188   7.083   2.646   0.833
   15CHTO   O31 6189   6.978   2.468   0.822
   15CHTO   H68 6190   6.907   2.501   0.875
   15CHTO   C39 6191   6.950   2.654   0.657
   15CHTO   H81 6192   6.906   2.579   0.590
   15CHTO    N7 6193   6.836   2.723   0.726
   15CHTO   H73 6194   6.874   2.797   0.795
   15CHTO   H74 6195   6.771   2.769   0.653
   15CHTO   C40 6196   7.033   2.754   0.567
   15CHTO   H82 6197   7.070   2.838   0.627
   15CHTO   O26 6198   7.140   2.683   0.503
   15CHTO   C41 6199   7.236   2.623   0.594
   15CHTO   H83 6200   7.279   2.701   0.658
   15CHTO   C52 6201   7.352   2.564   0.510
   15CHTO   O35 6202   7.428   2.668   0.436
   15CHTO   H71 6203   7.473   2.724   0.497
   15CHTO   O28 6204   6.955   2.807   0.457
   15CHTO   C42 6205   6.982   2.934   0.389
   15CHTO   H84 6206   6.937   2.920   0.291
   15CHTO   C44 6207   7.132   2.972   0.361
   15CHTO   H86 6208   7.183   2.984   0.457
   15CHTO   O32 6209   7.191   2.862   0.290
   15CHTO   H69 6210   7.200   2.787   0.347
   15CHTO   C48 6211   7.147   3.106   0.279
   15CHTO   H90 6212   7.113   3.086   0.177
   15CHTO    N9 6213   7.291   3.148   0.265
   15CHTO   H77 6214   7.347   3.070   0.215
   15CHTO   H78 6215   7.298   3.240   0.209
   15CHTO   C51 6216   7.058   3.223   0.337
   15CHTO   H93 6217   7.103   3.261   0.429
   15CHTO   O30 6218   6.923   3.178   0.359
   15CHTO   C46 6219   6.911   3.056   0.454
   15CHTO   H88 6220   6.959   3.080   0.549
   15CHTO   C53 6221   6.761   3.029   0.476
   15CHTO   O72 6222   6.698   3.139   0.542
   15CHTO  H199 6223   6.608   3.120   0.557
   15CHTO   O22 6224   7.046   3.329   0.239
   15CHTO   C31 6225   7.015   3.471   0.266
   15CHTO   H59 6226   7.007   3.519   0.167
   15CHTO   C29 6227   6.881   3.497   0.339
   15CHTO   H57 6228   6.884   3.444   0.436
   15CHTO   O21 6229   6.775   3.436   0.262
   15CHTO   H37 6230   6.785   3.343   0.261
   15CHTO   C27 6231   6.856   3.651   0.366
   15CHTO   H55 6232   6.844   3.701   0.269
   15CHTO    N5 6233   6.734   3.677   0.447
   15CHTO   H43 6234   6.746   3.634   0.546
   15CHTO   H44 6235   6.716   3.783   0.454
   15CHTO   C25 6236   6.983   3.713   0.433
   15CHTO   H53 6237   6.997   3.668   0.533
   15CHTO   O17 6238   7.101   3.685   0.353
   15CHTO   C32 6239   7.132   3.546   0.339
   15CHTO   H60 6240   7.146   3.501   0.438
   15CHTO   C36 6241   7.264   3.534   0.259
   15CHTO   O25 6242   7.374   3.590   0.332
   15CHTO   H40 6243   7.452   3.581   0.281
   15CHTO   O15 6244   6.971   3.873   0.448
   15CHTO   C19 6245   7.043   3.997   0.472
   15CHTO   H47 6246   7.112   4.003   0.386
   15CHTO   C20 6247   6.953   4.124   0.472
   15CHTO   H48 6248   6.874   4.118   0.549
   15CHTO   O19 6249   6.889   4.130   0.343
   15CHTO   H35 6250   6.827   4.061   0.334
   15CHTO   C21 6251   7.037   4.256   0.500
   15CHTO   H49 6252   7.107   4.270   0.417
   15CHTO    N4 6253   6.953   4.379   0.507
   15CHTO   H41 6254   6.902   4.393   0.413
   15CHTO   H42 6255   7.016   4.465   0.526
   15CHTO   C22 6256   7.122   4.236   0.628
   15CHTO   H50 6257   7.055   4.226   0.714
   15CHTO   O14 6258   7.204   4.118   0.615
   15CHTO   C23 6259   7.133   3.994   0.600
   15CHTO   H51 6260   7.074   3.978   0.691
   15CHTO   C34 6261   7.239   3.883   0.595
   15CHTO   O23 6262   7.328   3.898   0.484
   15CHTO   H38 6263   7.392   3.830   0.486
   15CHTO   O16 6264   7.216   4.343   0.648
   15CHTO   C24 6265   7.259   4.369   0.801
   15CHTO   H52 6266   7.215   4.296   0.869
   15CHTO   C26 6267   7.214   4.511   0.843
   15CHTO   H54 6268   7.247   4.583   0.764
   15CHTO   O20 6269   7.070   4.514   0.845
   15CHTO   H36 6270   7.037   4.458   0.913
   15CHTO   C30 6271   7.279   4.554   0.978
   15CHTO   H58 6272   7.250   4.484   1.058
   15CHTO    N6 6273   7.236   4.689   1.023
   15CHTO   H45 6274   7.282   4.713   1.118
   15CHTO   H46 6275   7.265   4.763   0.950
   15CHTO   C33 6276   7.433   4.541   0.960
   15CHTO   H61 6277   7.464   4.598   0.871
   15CHTO   O18 6278   7.459   4.401   0.937
   15CHTO   C28 6279   7.414   4.353   0.810
   15CHTO   H56 6280   7.461   4.408   0.729
   15CHTO   C35 6281   7.454   4.203   0.799
   15CHTO   O24 6282   7.595   4.182   0.803
   15CHTO   H39 6283   7.635   4.216   0.726
   15CHTO    O9 6284   7.515   4.592   1.068
   15CHTO   C13 6285   7.667   4.652   1.018
   15CHTO   H26 6286   7.651   4.756   0.982
   15CHTO   C11 6287   7.735   4.561   0.907
   15CHTO   H24 6288   7.675   4.568   0.816
   15CHTO    O8 6289   7.736   4.423   0.948
   15CHTO    H3 6290   7.648   4.391   0.958
   15CHTO    C9 6291   7.876   4.618   0.877
   15CHTO   H22 6292   7.861   4.724   0.852
   15CHTO    N2 6293   7.941   4.559   0.757
   15CHTO   H10 6294   7.875   4.568   0.672
   15CHTO   H11 6295   8.035   4.608   0.738
   15CHTO    C7 6296   7.963   4.608   1.007
   15CHTO   H20 6297   8.060   4.657   0.981
   15CHTO    O4 6298   7.903   4.678   1.118
   15CHTO   C14 6299   7.761   4.667   1.146
   15CHTO   H27 6300   7.732   4.762   1.195
   15CHTO   C18 6301   7.738   4.555   1.250
   15CHTO   O13 6302   7.801   4.587   1.374
   15CHTO    H7 6303   7.787   4.517   1.435
   15CHTO    O2 6304   7.991   4.449   1.050
   15CHTO    C1 6305   8.066   4.419   1.169
   15CHTO   H14 6306   8.020   4.473   1.255
   15CHTO    C2 6307   8.221   4.457   1.163
   15CHTO   H15 6308   8.258   4.414   1.068
   15CHTO    O6 6309   8.235   4.600   1.160
   15CHTO    H1 6310   8.202   4.634   1.079
   15CHTO    C3 6311   8.301   4.394   1.288
   15CHTO   H16 6312   8.270   4.447   1.379
   15CHTO    N1 6313   8.449   4.412   1.274
   15CHTO    H8 6314   8.485   4.363   1.184
   15CHTO    H9 6315   8.473   4.517   1.270
   15CHTO    C4 6316   8.261   4.243   1.310
   15CHTO   H17 6317   8.297   4.184   1.226
   15CHTO    O1 6318   8.118   4.233   1.320
   15CHTO    C5 6319   8.050   4.267   1.198
   15CHTO   H18 6320   8.095   4.213   1.114
   15CHTO   C16 6321   7.902   4.224   1.211
   15CHTO   O11 6322   7.890   4.081   1.223
   15CHTO    H5 6323   7.923   4.053   1.306
   15CHTO    O3 6324   8.316   4.191   1.433
   15CHTO    C6 6325   8.271   4.059   1.481
   15CHTO   H19 6326   8.168   4.036   1.453
   15CHTO    C8 6327   8.361   3.944   1.422
   15CHTO   H21 6328   8.466   3.970   1.439
   15CHTO    O7 6329   8.334   3.938   1.280
   15CHTO    H2 6330   8.368   4.014   1.237
   15CHTO   C12 6331   8.330   3.806   1.492
   15CHTO   H25 6332   8.226   3.778   1.463
   15CHTO    N3 6333   8.420   3.696   1.443
   15CHTO   H12 6334   8.395   3.603   1.491
   15CHTO   H13 6335   8.523   3.722   1.463
   15CHTO   C15 6336   8.334   3.824   1.648
   15CHTO   H28 6337   8.435   3.846   1.683
   15CHTO   O10 6338   8.279   3.702   1.725
   15CHTO    H4 6339   8.333   3.627   1.709
   15CHTO    O5 6340   8.244   3.929   1.688
   15CHTO   C10 6341   8.277   4.059   1.637
   15CHTO   H23 6342   8.377   4.086   1.671
   15CHTO   C17 6343   8.177   4.156   1.700
   15CHTO   O12 6344   8.205   4.293   1.669
   15CHTO    H6 6345   8.190   4.309   1.578
   16CHTO  H203 6346   5.942   4.426   0.982
   16CHTO   O82 6347   6.005   4.392   1.043
   16CHTO  C123 6348   6.138   4.406   0.990
   16CHTO  H227 6349   6.158   4.512   0.971
   16CHTO   O77 6350   6.221   4.358   1.099
   16CHTO  C118 6351   6.362   4.368   1.074
   16CHTO  H222 6352   6.387   4.472   1.047
   16CHTO  C125 6353   6.439   4.331   1.207
   16CHTO   O84 6354   6.414   4.197   1.251
   16CHTO  H205 6355   6.325   4.189   1.280
   16CHTO  C114 6356   6.400   4.276   0.957
   16CHTO  H218 6357   6.373   4.173   0.983
   16CHTO  C116 6358   6.318   4.313   0.829
   16CHTO  H220 6359   6.352   4.413   0.792
   16CHTO   O79 6360   6.350   4.219   0.725
   16CHTO  H201 6361   6.307   4.242   0.645
   16CHTO  C120 6362   6.163   4.317   0.861
   16CHTO  H224 6363   6.133   4.212   0.881
   16CHTO   N21 6364   6.083   4.364   0.745
   16CHTO  H211 6365   5.985   4.321   0.747
   16CHTO  H212 6366   6.077   4.472   0.743
   16CHTO   O75 6367   6.542   4.290   0.944
   16CHTO  C112 6368   6.628   4.166   0.869
   16CHTO  H216 6369   6.639   4.191   0.762
   16CHTO   O73 6370   6.558   4.042   0.889
   16CHTO  C113 6371   6.618   3.930   0.822
   16CHTO  H217 6372   6.626   3.952   0.713
   16CHTO  C124 6373   6.526   3.809   0.838
   16CHTO   O83 6374   6.399   3.827   0.776
   16CHTO  H204 6375   6.345   3.752   0.791
   16CHTO  C109 6376   6.760   3.903   0.881
   16CHTO  H213 6377   6.745   3.874   0.986
   16CHTO  C110 6378   6.846   4.032   0.873
   16CHTO  H214 6379   6.870   4.052   0.768
   16CHTO   O78 6380   6.971   4.006   0.941
   16CHTO  H200 6381   7.029   4.080   0.931
   16CHTO  C111 6382   6.771   4.154   0.935
   16CHTO  H215 6383   6.757   4.135   1.042
   16CHTO   N19 6384   6.845   4.282   0.922
   16CHTO  H207 6385   6.789   4.362   0.968
   16CHTO  H208 6386   6.941   4.273   0.971
   16CHTO   O74 6387   6.825   3.793   0.809
   16CHTO  C115 6388   6.872   3.672   0.906
   16CHTO  H219 6389   6.879   3.704   1.010
   16CHTO   O76 6390   6.766   3.555   0.907
   16CHTO  C122 6391   6.778   3.468   0.794
   16CHTO  H226 6392   6.769   3.529   0.704
   16CHTO  C126 6393   6.657   3.369   0.791
   16CHTO   O85 6394   6.531   3.436   0.776
   16CHTO  H206 6395   6.526   3.476   0.692
   16CHTO  C121 6396   6.917   3.391   0.794
   16CHTO  H225 6397   6.903   3.290   0.837
   16CHTO   O81 6398   6.963   3.376   0.659
   16CHTO  H202 6399   6.905   3.321   0.611
   16CHTO  C119 6400   7.025   3.467   0.879
   16CHTO  H223 6401   6.998   3.447   0.983
   16CHTO  C117 6402   7.015   3.622   0.857
   16CHTO  H221 6403   7.024   3.656   0.754
   16CHTO   N20 6404   7.123   3.695   0.932
   16CHTO  H209 6405   7.115   3.675   1.038
   16CHTO  H210 6406   7.220   3.665   0.895
   16CHTO   O80 6407   7.171   3.398   0.870
   16CHTO  C103 6408   7.192   3.256   0.933
   16CHTO  H190 6409   7.099   3.217   0.972
   16CHTO  C101 6410   7.256   3.148   0.838
   16CHTO  H188 6411   7.348   3.189   0.795
   16CHTO   O68 6412   7.156   3.118   0.722
   16CHTO  H168 6413   7.143   3.195   0.670
   16CHTO   C99 6414   7.293   3.015   0.920
   16CHTO  H186 6415   7.199   2.968   0.954
   16CHTO   N17 6416   7.365   2.912   0.837
   16CHTO  H174 6417   7.376   2.821   0.894
   16CHTO  H175 6418   7.461   2.951   0.806
   16CHTO   C97 6419   7.372   3.050   1.050
   16CHTO  H184 6420   7.474   3.081   1.020
   16CHTO   O64 6421   7.304   3.152   1.125
   16CHTO  C104 6422   7.289   3.277   1.055
   16CHTO  H191 6423   7.386   3.314   1.018
   16CHTO  C108 6424   7.237   3.385   1.151
   16CHTO   O71 6425   7.331   3.416   1.254
   16CHTO  H171 6426   7.296   3.482   1.310
   16CHTO   O62 6427   7.381   2.935   1.138
   16CHTO   C91 6428   7.476   2.945   1.246
   16CHTO  H178 6429   7.561   3.002   1.209
   16CHTO   C92 6430   7.534   2.803   1.282
   16CHTO  H179 6431   7.570   2.755   1.190
   16CHTO   O66 6432   7.651   2.823   1.362
   16CHTO  H166 6433   7.696   2.742   1.376
   16CHTO   C93 6434   7.434   2.712   1.364
   16CHTO  H180 6435   7.495   2.651   1.433
   16CHTO   N16 6436   7.365   2.613   1.277
   16CHTO  H172 6437   7.383   2.512   1.312
   16CHTO  H173 6438   7.259   2.633   1.271
   16CHTO   C94 6439   7.333   2.799   1.449
   16CHTO  H181 6440   7.242   2.824   1.392
   16CHTO   O61 6441   7.395   2.922   1.486
   16CHTO   C95 6442   7.418   3.014   1.378
   16CHTO  H182 6443   7.323   3.063   1.353
   16CHTO  C106 6444   7.513   3.127   1.430
   16CHTO   O69 6445   7.540   3.227   1.330
   16CHTO  H169 6446   7.462   3.276   1.312
   16CHTO   O63 6447   7.294   2.721   1.585
   16CHTO   C96 6448   7.136   2.680   1.605
   16CHTO  H183 6449   7.129   2.636   1.704
   16CHTO   C98 6450   7.083   2.574   1.505
   16CHTO  H185 6451   7.104   2.604   1.402
   16CHTO   O67 6452   7.160   2.455   1.527
   16CHTO  H167 6453   7.248   2.467   1.499
   16CHTO  C102 6454   6.926   2.553   1.526
   16CHTO  H189 6455   6.912   2.535   1.634
   16CHTO   N18 6456   6.863   2.438   1.457
   16CHTO  H176 6457   6.911   2.346   1.488
   16CHTO  H177 6458   6.758   2.433   1.480
   16CHTO  C105 6459   6.857   2.688   1.488
   16CHTO  H192 6460   6.830   2.685   1.382
   16CHTO   O65 6461   6.938   2.806   1.505
   16CHTO  C100 6462   7.043   2.810   1.603
   16CHTO  H187 6463   7.107   2.895   1.577
   16CHTO  C107 6464   6.984   2.838   1.743
   16CHTO   O70 6465   6.922   2.967   1.748
   16CHTO  H170 6466   6.987   3.035   1.743
   16CHTO   O57 6467   6.723   2.695   1.576
   16CHTO   C85 6468   6.606   2.751   1.513
   16CHTO  H157 6469   6.613   2.724   1.406
   16CHTO   C83 6470   6.611   2.907   1.517
   16CHTO  H155 6471   6.700   2.939   1.462
   16CHTO   O56 6472   6.629   2.951   1.653
   16CHTO  H135 6473   6.641   3.044   1.656
   16CHTO   C81 6474   6.486   2.965   1.446
   16CHTO  H153 6475   6.486   2.929   1.343
   16CHTO   N14 6476   6.490   3.113   1.431
   16CHTO  H141 6477   6.571   3.156   1.487
   16CHTO  H142 6478   6.399   3.158   1.464
   16CHTO   C79 6479   6.353   2.913   1.515
   16CHTO  H151 6480   6.270   2.944   1.451
   16CHTO   O52 6481   6.351   2.767   1.518
   16CHTO   C86 6482   6.469   2.704   1.577
   16CHTO  H158 6483   6.463   2.730   1.684
   16CHTO   C90 6484   6.455   2.550   1.570
   16CHTO   O60 6485   6.447   2.505   1.434
   16CHTO  H138 6486   6.439   2.411   1.433
   16CHTO   O50 6487   6.330   2.966   1.647
   16CHTO   C73 6488   6.212   2.971   1.729
   16CHTO  H145 6489   6.178   2.869   1.752
   16CHTO   C74 6490   6.096   3.048   1.659
   16CHTO  H146 6491   6.073   2.994   1.565
   16CHTO   O54 6492   5.978   3.037   1.741
   16CHTO  H133 6493   5.905   3.078   1.698
   16CHTO   C75 6494   6.142   3.197   1.632
   16CHTO  H147 6495   6.228   3.194   1.562
   16CHTO   N13 6496   6.041   3.281   1.564
   16CHTO  H139 6497   6.015   3.237   1.469
   16CHTO  H140 6498   6.080   3.380   1.547
   16CHTO   C76 6499   6.195   3.265   1.767
   16CHTO  H148 6500   6.109   3.288   1.831
   16CHTO   O49 6501   6.288   3.178   1.840
   16CHTO   C77 6502   6.245   3.044   1.863
   16CHTO  H149 6503   6.155   3.045   1.925
   16CHTO   C88 6504   6.350   2.971   1.948
   16CHTO   O58 6505   6.486   2.991   1.898
   16CHTO  H136 6506   6.546   2.944   1.953
   16CHTO   O51 6507   6.283   3.396   1.729
   16CHTO   C78 6508   6.366   3.456   1.851
   16CHTO  H150 6509   6.370   3.385   1.937
   16CHTO   C80 6510   6.303   3.588   1.898
   16CHTO  H152 6511   6.296   3.658   1.812
   16CHTO   O55 6512   6.169   3.556   1.942
   16CHTO  H134 6513   6.123   3.635   1.965
   16CHTO   C84 6514   6.389   3.653   2.013
   16CHTO  H156 6515   6.385   3.586   2.100
   16CHTO   N15 6516   6.335   3.785   2.058
   16CHTO  H143 6517   6.236   3.773   2.097
   16CHTO  H144 6518   6.331   3.853   1.975
   16CHTO   C87 6519   6.538   3.665   1.970
   16CHTO  H159 6520   6.548   3.742   1.893
   16CHTO   O53 6521   6.588   3.529   1.916
   16CHTO   C82 6522   6.511   3.480   1.805
   16CHTO  H154 6523   6.515   3.551   1.722
   16CHTO   C89 6524   6.575   3.348   1.755
   16CHTO   O59 6525   6.706   3.371   1.703
   16CHTO  H137 6526   6.743   3.289   1.675
   16CHTO   O45 6527   6.632   3.702   2.096
   16CHTO   C67 6528   6.767   3.737   2.061
   16CHTO  H124 6529   6.793   3.692   1.966
   16CHTO   C65 6530   6.784   3.893   2.050
   16CHTO  H122 6531   6.683   3.936   2.055
   16CHTO   O44 6532   6.841   3.924   1.921
   16CHTO  H102 6533   6.783   3.898   1.853
   16CHTO   C63 6534   6.861   3.953   2.173
   16CHTO  H120 6535   6.806   3.929   2.263
   16CHTO   N11 6536   6.868   4.102   2.179
   16CHTO  H108 6537   6.912   4.133   2.272
   16CHTO  H109 6538   6.770   4.144   2.170
   16CHTO   C61 6539   7.001   3.881   2.184
   16CHTO  H118 6540   7.044   3.911   2.281
   16CHTO   O40 6541   6.992   3.737   2.185
   16CHTO   C68 6542   6.864   3.670   2.169
   16CHTO  H125 6543   6.814   3.667   2.268
   16CHTO   C72 6544   6.899   3.523   2.132
   16CHTO   O48 6545   6.785   3.438   2.116
   16CHTO  H105 6546   6.813   3.352   2.092
   16CHTO   O38 6547   7.091   3.913   2.075
   16CHTO   C55 6548   7.232   3.906   2.105
   16CHTO  H112 6549   7.249   3.861   2.204
   16CHTO   C56 6550   7.294   4.052   2.095
   16CHTO  H113 6551   7.260   4.095   2.000
   16CHTO   O42 6552   7.236   4.133   2.199
   16CHTO  H100 6553   7.263   4.222   2.190
   16CHTO   C57 6554   7.452   4.050   2.103
   16CHTO  H114 6555   7.479   4.021   2.204
   16CHTO   N10 6556   7.514   4.183   2.076
   16CHTO  H106 6557   7.523   4.239   2.168
   16CHTO  H107 6558   7.454   4.240   2.006
   16CHTO   C58 6559   7.506   3.944   2.004
   16CHTO  H115 6560   7.483   3.975   1.900
   16CHTO   O37 6561   7.446   3.816   2.031
   16CHTO   C59 6562   7.305   3.812   2.004
   16CHTO  H116 6563   7.286   3.843   1.901
   16CHTO   C70 6564   7.261   3.666   2.020
   16CHTO   O46 6565   7.321   3.578   1.924
   16CHTO  H103 6566   7.288   3.597   1.838
   16CHTO   O39 6567   7.665   3.921   2.020
   16CHTO   C60 6568   7.719   3.841   1.913
   16CHTO  H117 6569   7.640   3.780   1.869
   16CHTO   C62 6570   7.780   3.928   1.800
   16CHTO  H119 6571   7.698   3.996   1.767
   16CHTO   O43 6572   7.887   4.010   1.851
   16CHTO  H101 6573   7.854   4.073   1.913
   16CHTO   C66 6574   7.822   3.833   1.679
   16CHTO  H123 6575   7.736   3.773   1.650
   16CHTO   N12 6576   7.861   3.909   1.558
   16CHTO  H110 6577   7.886   3.841   1.477
   16CHTO  H111 6578   7.944   3.975   1.580
   16CHTO   C69 6579   7.934   3.735   1.726
   16CHTO  H126 6580   8.027   3.792   1.745
   16CHTO   O41 6581   7.891   3.658   1.860
   16CHTO   C64 6582   7.825   3.743   1.970
   16CHTO  H121 6583   7.902   3.802   2.022
   16CHTO   C71 6584   7.762   3.648   2.075
   16CHTO   O47 6585   7.665   3.560   2.017
   16CHTO  H104 6586   7.630   3.503   2.083
   16CHTO   O34 6587   7.963   3.628   1.614
   16CHTO   C49 6588   7.940   3.488   1.549
   16CHTO   H91 6589   7.992   3.490   1.453
   16CHTO   C47 6590   7.789   3.465   1.525
   16CHTO   H89 6591   7.781   3.371   1.465
   16CHTO   O33 6592   7.738   3.574   1.446
   16CHTO   H70 6593   7.774   3.572   1.360
   16CHTO   C45 6594   7.714   3.446   1.666
   16CHTO   H87 6595   7.734   3.536   1.726
   16CHTO    N8 6596   7.567   3.434   1.651
   16CHTO   H75 6597   7.520   3.430   1.749
   16CHTO   H76 6598   7.528   3.518   1.597
   16CHTO   C43 6599   7.780   3.324   1.748
   16CHTO   H85 6600   7.735   3.329   1.847
   16CHTO   O29 6601   7.924   3.340   1.755
   16CHTO   C50 6602   7.998   3.375   1.637
   16CHTO   H92 6603   8.097   3.410   1.671
   16CHTO   C54 6604   8.034   3.250   1.551
   16CHTO   O36 6605   8.121   3.161   1.622
   16CHTO   H72 6606   8.075   3.121   1.693
   16CHTO   O27 6607   7.747   3.193   1.696
   16CHTO   C37 6608   7.707   3.077   1.771
   16CHTO   H79 6609   7.765   3.072   1.864
   16CHTO   C38 6610   7.556   3.083   1.811
   16CHTO   H80 6611   7.498   3.107   1.721
   16CHTO   O31 6612   7.539   3.190   1.906
   16CHTO   H68 6613   7.448   3.204   1.923
   16CHTO   C39 6614   7.501   2.948   1.874
   16CHTO   H81 6615   7.536   2.945   1.978
   16CHTO    N7 6616   7.351   2.943   1.880
   16CHTO   H73 6617   7.311   2.864   1.818
   16CHTO   H74 6618   7.308   3.038   1.852
   16CHTO   C40 6619   7.559   2.818   1.805
   16CHTO   H82 6620   7.503   2.794   1.714
   16CHTO   O26 6621   7.699   2.833   1.778
   16CHTO   C41 6622   7.730   2.945   1.691
   16CHTO   H83 6623   7.664   2.944   1.603
   16CHTO   C52 6624   7.875   2.928   1.641
   16CHTO   O35 6625   7.894   2.804   1.562
   16CHTO   H71 6626   7.846   2.810   1.481
   16CHTO   O28 6627   7.553   2.706   1.895
   16CHTO   C42 6628   7.541   2.564   1.856
   16CHTO   H84 6629   7.607   2.514   1.926
   16CHTO   C44 6630   7.592   2.525   1.713
   16CHTO   H86 6631   7.537   2.583   1.639
   16CHTO   O32 6632   7.731   2.562   1.704
   16CHTO   H69 6633   7.782   2.513   1.765
   16CHTO   C48 6634   7.573   2.371   1.678
   16CHTO   H90 6635   7.645   2.315   1.738
   16CHTO    N9 6636   7.605   2.340   1.534
   16CHTO   H77 6637   7.686   2.268   1.529
   16CHTO   H78 6638   7.632   2.430   1.480
   16CHTO   C51 6639   7.429   2.320   1.718
   16CHTO   H93 6640   7.356   2.365   1.649
   16CHTO   O30 6641   7.402   2.356   1.854
   16CHTO   C46 6642   7.398   2.506   1.878
   16CHTO   H88 6643   7.328   2.552   1.808
   16CHTO   C53 6644   7.347   2.524   2.023
   16CHTO   O72 6645   7.318   2.660   2.056
   16CHTO  H199 6646   7.287   2.665   2.144
   16CHTO   O22 6647   7.422   2.176   1.710
   16CHTO   C31 6648   7.311   2.092   1.760
   16CHTO   H59 6649   7.269   2.145   1.848
   16CHTO   C29 6650   7.195   2.070   1.660
   16CHTO   H57 6651   7.239   2.030   1.567
   16CHTO   O21 6652   7.139   2.198   1.628
   16CHTO   H37 6653   7.202   2.252   1.584
   16CHTO   C27 6654   7.084   1.971   1.712
   16CHTO   H55 6655   7.031   2.019   1.795
   16CHTO    N5 6656   6.985   1.935   1.607
   16CHTO   H43 6657   7.033   1.881   1.527
   16CHTO   H44 6658   6.905   1.877   1.649
   16CHTO   C25 6659   7.152   1.842   1.773
   16CHTO   H53 6660   7.199   1.785   1.692
   16CHTO   O17 6661   7.254   1.879   1.869
   16CHTO   C32 6662   7.363   1.954   1.814
   16CHTO   H60 6663   7.408   1.899   1.731
   16CHTO   C36 6664   7.468   1.970   1.927
   16CHTO   O25 6665   7.590   2.026   1.878
   16CHTO   H40 6666   7.652   2.031   1.948
   16CHTO   O15 6667   7.047   1.751   1.846
   16CHTO   C19 6668   6.949   1.738   1.952
   16CHTO   H47 6669   6.969   1.638   1.993
   16CHTO   C20 6670   6.964   1.842   2.068
   16CHTO   H48 6671   6.957   1.945   2.030
   16CHTO   O19 6672   7.096   1.823   2.123
   16CHTO   H35 6673   7.114   1.889   2.187
   16CHTO   C21 6674   6.853   1.822   2.179
   16CHTO   H49 6675   6.870   1.726   2.228
   16CHTO    N4 6676   6.858   1.925   2.286
   16CHTO   H41 6677   6.844   2.024   2.243
   16CHTO   H42 6678   6.953   1.922   2.336
   16CHTO   C22 6679   6.714   1.814   2.111
   16CHTO   H50 6680   6.691   1.911   2.066
   16CHTO   O14 6681   6.713   1.712   2.010
   16CHTO   C23 6682   6.802   1.736   1.900
   16CHTO   H51 6683   6.774   1.831   1.852
   16CHTO   C34 6684   6.783   1.623   1.797
   16CHTO   O23 6685   6.650   1.623   1.745
   16CHTO   H38 6686   6.640   1.553   1.683
   16CHTO   O16 6687   6.610   1.774   2.203
   16CHTO   C24 6688   6.466   1.825   2.155
   16CHTO   H52 6689   6.468   1.867   2.055
   16CHTO   C26 6690   6.415   1.932   2.254
   16CHTO   H54 6691   6.412   1.887   2.356
   16CHTO   O20 6692   6.510   2.041   2.255
   16CHTO   H36 6693   6.486   2.103   2.322
   16CHTO   C30 6694   6.272   1.981   2.215
   16CHTO   H58 6695   6.280   2.047   2.128
   16CHTO    N6 6696   6.212   2.067   2.322
   16CHTO   H45 6697   6.201   2.010   2.413
   16CHTO   H46 6698   6.116   2.103   2.290
   16CHTO   C33 6699   6.177   1.865   2.173
   16CHTO   H61 6700   6.134   1.816   2.262
   16CHTO   O18 6701   6.244   1.765   2.094
   16CHTO   C28 6702   6.363   1.709   2.153
   16CHTO   H56 6703   6.344   1.676   2.256
   16CHTO   C35 6704   6.408   1.589   2.068
   16CHTO   O24 6705   6.512   1.512   2.130
   16CHTO   H39 6706   6.534   1.440   2.074
   16CHTO    O9 6707   6.064   1.921   2.102
   16CHTO   C13 6708   5.960   1.818   2.038
   16CHTO   H26 6709   6.010   1.721   2.021
   16CHTO   C11 6710   5.907   1.882   1.903
   16CHTO   H24 6711   5.991   1.885   1.833
   16CHTO    O8 6712   5.865   2.018   1.925
   16CHTO    H3 6713   5.792   2.022   1.983
   16CHTO    C9 6714   5.796   1.791   1.845
   16CHTO   H22 6715   5.843   1.692   1.833
   16CHTO    N2 6716   5.754   1.828   1.708
   16CHTO   H10 6717   5.796   1.923   1.678
   16CHTO   H11 6718   5.646   1.830   1.700
   16CHTO    C7 6719   5.678   1.778   1.949
   16CHTO   H20 6720   5.611   1.701   1.905
   16CHTO    O4 6721   5.725   1.730   2.077
   16CHTO   C14 6722   5.841   1.788   2.140
   16CHTO   H27 6723   5.879   1.711   2.211
   16CHTO   C18 6724   5.802   1.912   2.224
   16CHTO   O13 6725   5.725   1.875   2.340
   16CHTO    H7 6726   5.780   1.828   2.400
   16CHTO    O2 6727   5.593   1.921   1.971
   16CHTO    C1 6728   5.451   1.909   1.991
   16CHTO   H14 6729   5.413   2.009   2.021
   16CHTO    C2 6730   5.406   1.804   2.103
   16CHTO   H15 6731   5.456   1.709   2.080
   16CHTO    O6 6732   5.452   1.853   2.230
   16CHTO    H1 6733   5.411   1.934   2.252
   16CHTO    C3 6734   5.246   1.783   2.103
   16CHTO   H16 6735   5.198   1.877   2.132
   16CHTO    N1 6736   5.202   1.678   2.201
   16CHTO    H8 6737   5.286   1.637   2.255
   16CHTO    H9 6738   5.148   1.598   2.152
   16CHTO    C4 6739   5.199   1.754   1.956
   16CHTO   H17 6740   5.242   1.659   1.923
   16CHTO    O1 6741   5.239   1.861   1.868
   16CHTO    C5 6742   5.381   1.877   1.855
   16CHTO   H18 6743   5.424   1.785   1.816
   16CHTO   C16 6744   5.405   1.990   1.751
   16CHTO   O11 6745   5.344   2.114   1.789
   16CHTO    H5 6746   5.359   2.179   1.723
   16CHTO    O3 6747   5.055   1.751   1.944
   16CHTO    C6 6748   5.004   1.664   1.837
   16CHTO   H19 6749   5.082   1.631   1.768
   16CHTO    C8 6750   4.938   1.536   1.899
   16CHTO   H21 6751   4.863   1.568   1.972
   16CHTO    O7 6752   5.041   1.462   1.967
   16CHTO    H2 6753   5.106   1.431   1.906
   16CHTO   C12 6754   4.867   1.450   1.787
   16CHTO   H25 6755   4.948   1.412   1.721
   16CHTO    N3 6756   4.797   1.329   1.844
   16CHTO   H12 6757   4.839   1.239   1.802
   16CHTO   H13 6758   4.803   1.327   1.951
   16CHTO   C15 6759   4.772   1.541   1.702
   16CHTO   H28 6760   4.686   1.574   1.760
   16CHTO   O10 6761   4.723   1.472   1.571
   16CHTO    H4 6762   4.657   1.524   1.530
   16CHTO    O5 6763   4.844   1.655   1.651
   16CHTO   C10 6764   4.898   1.741   1.753
   16CHTO   H23 6765   4.817   1.776   1.817
   16CHTO   C17 6766   4.960   1.864   1.684
   16CHTO   O12 6767   4.861   1.942   1.616
   16CHTO    H6 6768   4.804   1.983   1.679
   17CHTO  H203 6769   5.671   4.245   0.913
   17CHTO   O82 6770   5.727   4.319   0.929
   17CHTO  C123 6771   5.650   4.440   0.926
   17CHTO  H227 6772   5.571   4.434   1.002
   17CHTO   O77 6773   5.748   4.542   0.962
   17CHTO  C118 6774   5.693   4.674   0.980
   17CHTO  H222 6775   5.616   4.673   1.058
   17CHTO  C125 6776   5.814   4.763   1.028
   17CHTO   O84 6777   5.773   4.892   1.072
   17CHTO  H205 6778   5.848   4.941   1.101
   17CHTO  C114 6779   5.632   4.723   0.847
   17CHTO  H218 6780   5.712   4.735   0.774
   17CHTO  C116 6781   5.530   4.620   0.787
   17CHTO  H220 6782   5.438   4.621   0.849
   17CHTO   O79 6783   5.490   4.666   0.656
   17CHTO  H201 6784   5.564   4.667   0.598
   17CHTO  C120 6785   5.591   4.474   0.784
   17CHTO  H224 6786   5.672   4.474   0.708
   17CHTO   N21 6787   5.489   4.374   0.740
   17CHTO  H211 6788   5.510   4.277   0.783
   17CHTO  H212 6789   5.488   4.367   0.632
   17CHTO   O75 6790   5.570   4.849   0.878
   17CHTO  C112 6791   5.596   4.961   0.765
   17CHTO  H216 6792   5.579   4.915   0.666
   17CHTO   O73 6793   5.731   5.006   0.780
   17CHTO  C113 6794   5.772   5.101   0.682
   17CHTO  H217 6795   5.757   5.058   0.581
   17CHTO  C124 6796   5.924   5.123   0.698
   17CHTO   O83 6797   5.960   5.171   0.828
   17CHTO  H204 6798   6.053   5.182   0.833
   17CHTO  C109 6799   5.689   5.232   0.696
   17CHTO  H213 6800   5.711   5.274   0.795
   17CHTO  C110 6801   5.537   5.198   0.685
   17CHTO  H214 6802   5.515   5.167   0.582
   17CHTO   O78 6803   5.461   5.317   0.710
   17CHTO  H200 6804   5.475   5.349   0.797
   17CHTO  C111 6805   5.497   5.083   0.783
   17CHTO  H215 6806   5.508   5.120   0.886
   17CHTO   N19 6807   5.356   5.038   0.768
   17CHTO  H207 6808   5.334   4.960   0.840
   17CHTO  H208 6809   5.289   5.121   0.785
   17CHTO   O74 6810   5.726   5.329   0.593
   17CHTO  C115 6811   5.807   5.460   0.651
   17CHTO  H219 6812   5.787   5.477   0.757
   17CHTO   O76 6813   5.962   5.441   0.639
   17CHTO  C122 6814   6.043   5.550   0.686
   17CHTO  H226 6815   6.145   5.528   0.655
   17CHTO  C126 6816   6.046   5.554   0.843
   17CHTO   O85 6817   6.103   5.437   0.901
   17CHTO  H206 6818   6.195   5.433   0.881
   17CHTO  C121 6819   6.001   5.688   0.624
   17CHTO  H225 6820   6.050   5.767   0.684
   17CHTO   O81 6821   6.051   5.697   0.490
   17CHTO  H202 6822   6.010   5.633   0.435
   17CHTO  C119 6823   5.846   5.713   0.628
   17CHTO  H223 6824   5.821   5.725   0.734
   17CHTO  C117 6825   5.764   5.590   0.573
   17CHTO  H221 6826   5.779   5.568   0.468
   17CHTO   N20 6827   5.617   5.613   0.588
   17CHTO  H209 6828   5.562   5.529   0.548
   17CHTO  H210 6829   5.588   5.703   0.535
   17CHTO   O80 6830   5.807   5.856   0.569
   17CHTO  C103 6831   5.838   5.983   0.650
   17CHTO  H190 6832   5.859   5.958   0.754
   17CHTO  C101 6833   5.952   6.076   0.594
   17CHTO  H188 6834   5.930   6.100   0.490
   17CHTO   O68 6835   6.086   6.002   0.598
   17CHTO  H168 6836   6.152   6.054   0.557
   17CHTO   C99 6837   5.957   6.213   0.677
   17CHTO  H186 6838   5.986   6.191   0.782
   17CHTO   N17 6839   6.057   6.313   0.625
   17CHTO  H174 6840   6.062   6.398   0.691
   17CHTO  H175 6841   6.154   6.266   0.616
   17CHTO   C97 6842   5.815   6.276   0.686
   17CHTO  H184 6843   5.788   6.314   0.586
   17CHTO   O64 6844   5.719   6.180   0.734
   17CHTO  C104 6845   5.704   6.066   0.649
   17CHTO  H191 6846   5.682   6.097   0.546
   17CHTO  C108 6847   5.582   5.985   0.696
   17CHTO   O71 6848   5.461   6.059   0.674
   17CHTO  H171 6849   5.444   6.065   0.582
   17CHTO   O62 6850   5.806   6.381   0.785
   17CHTO   C91 6851   5.705   6.479   0.759
   17CHTO  H178 6852   5.624   6.432   0.701
   17CHTO   C92 6853   5.766   6.591   0.667
   17CHTO  H179 6854   5.835   6.546   0.593
   17CHTO   O66 6855   5.661   6.650   0.589
   17CHTO  H166 6856   5.597   6.690   0.644
   17CHTO   C93 6857   5.838   6.705   0.748
   17CHTO  H180 6858   5.865   6.783   0.675
   17CHTO   N16 6859   5.968   6.666   0.809
   17CHTO  H172 6860   5.953   6.584   0.878
   17CHTO  H173 6861   6.038   6.638   0.732
   17CHTO   C94 6862   5.736   6.766   0.853
   17CHTO  H181 6863   5.782   6.780   0.952
   17CHTO   O61 6864   5.618   6.685   0.876
   17CHTO   C95 6865   5.642   6.544   0.890
   17CHTO  H182 6866   5.710   6.528   0.974
   17CHTO  C106 6867   5.506   6.476   0.930
   17CHTO   O69 6868   5.525   6.336   0.956
   17CHTO  H169 6869   5.443   6.297   0.979
   17CHTO   O63 6870   5.690   6.899   0.795
   17CHTO   C96 6871   5.701   7.022   0.887
   17CHTO  H183 6872   5.674   6.992   0.989
   17CHTO   C98 6873   5.605   7.135   0.842
   17CHTO  H185 6874   5.627   7.162   0.737
   17CHTO   O67 6875   5.470   7.085   0.840
   17CHTO  H167 6876   5.461   7.019   0.774
   17CHTO  C102 6877   5.615   7.264   0.936
   17CHTO  H189 6878   5.557   7.239   1.026
   17CHTO   N18 6879   5.551   7.386   0.881
   17CHTO  H176 6880   5.560   7.468   0.951
   17CHTO  H177 6881   5.598   7.413   0.788
   17CHTO  C105 6882   5.763   7.288   0.979
   17CHTO  H192 6883   5.786   7.395   0.975
   17CHTO   O65 6884   5.859   7.221   0.894
   17CHTO  C100 6885   5.850   7.077   0.886
   17CHTO  H187 6886   5.895   7.049   0.790
   17CHTO  C107 6887   5.937   7.013   0.998
   17CHTO   O70 6888   6.075   7.049   0.984
   17CHTO  H170 6889   6.087   7.140   1.003
   17CHTO   O57 6890   5.770   7.238   1.129
   17CHTO   C85 6891   5.800   7.328   1.237
   17CHTO  H157 6892   5.724   7.409   1.231
   17CHTO   C83 6893   5.939   7.398   1.218
   17CHTO  H155 6894   5.935   7.456   1.126
   17CHTO   O56 6895   6.041   7.299   1.198
   17CHTO  H135 6896   6.053   7.248   1.276
   17CHTO   C81 6897   5.963   7.495   1.337
   17CHTO  H153 6898   5.880   7.566   1.340
   17CHTO   N14 6899   6.083   7.581   1.318
   17CHTO  H141 6900   6.089   7.653   1.397
   17CHTO  H142 6901   6.172   7.521   1.319
   17CHTO   C79 6902   5.963   7.415   1.472
   17CHTO  H151 6903   5.971   7.488   1.553
   17CHTO   O52 6904   5.836   7.345   1.490
   17CHTO   C86 6905   5.800   7.258   1.378
   17CHTO  H158 6906   5.875   7.176   1.382
   17CHTO   C90 6907   5.663   7.189   1.404
   17CHTO   O60 6908   5.556   7.284   1.414
   17CHTO  H138 6909   5.567   7.335   1.492
   17CHTO   O50 6910   6.073   7.323   1.484
   17CHTO   C73 6911   6.176   7.258   1.560
   17CHTO  H145 6912   6.235   7.333   1.615
   17CHTO   C74 6913   6.272   7.180   1.464
   17CHTO  H146 6914   6.308   7.253   1.389
   17CHTO   O54 6915   6.387   7.139   1.539
   17CHTO  H133 6916   6.437   7.213   1.567
   17CHTO   C75 6917   6.194   7.060   1.397
   17CHTO  H147 6918   6.115   7.101   1.333
   17CHTO   N13 6919   6.277   6.978   1.304
   17CHTO  H139 6920   6.285   6.876   1.339
   17CHTO  H140 6921   6.377   7.018   1.295
   17CHTO   C76 6922   6.122   6.971   1.509
   17CHTO  H148 6923   6.199   6.924   1.570
   17CHTO   O49 6924   6.038   7.056   1.594
   17CHTO   C77 6925   6.113   7.158   1.662
   17CHTO  H149 6926   6.193   7.112   1.721
   17CHTO   C88 6927   6.021   7.226   1.764
   17CHTO   O58 6928   6.094   7.321   1.847
   17CHTO  H136 6929   6.034   7.363   1.907
   17CHTO   O51 6930   6.023   6.863   1.440
   17CHTO   C78 6931   5.908   6.792   1.531
   17CHTO  H150 6932   5.838   6.869   1.573
   17CHTO   C80 6933   5.967   6.710   1.648
   17CHTO  H152 6934   6.047   6.644   1.607
   17CHTO   O55 6935   6.029   6.801   1.740
   17CHTO  H134 6936   5.965   6.858   1.779
   17CHTO   C84 6937   5.857   6.621   1.719
   17CHTO  H156 6938   5.785   6.689   1.766
   17CHTO   N15 6939   5.913   6.535   1.829
   17CHTO  H143 6940   5.835   6.478   1.875
   17CHTO  H144 6941   5.959   6.597   1.903
   17CHTO   C87 6942   5.782   6.537   1.613
   17CHTO  H159 6943   5.851   6.466   1.567
   17CHTO   O53 6944   5.725   6.631   1.508
   17CHTO   C82 6945   5.826   6.703   1.436
   17CHTO  H154 6946   5.892   6.633   1.386
   17CHTO   C89 6947   5.759   6.789   1.326
   17CHTO   O59 6948   5.694   6.707   1.228
   17CHTO  H137 6949   5.619   6.665   1.266
   17CHTO   O45 6950   5.655   6.451   1.685
   17CHTO   C67 6951   5.571   6.363   1.608
   17CHTO  H124 6952   5.524   6.294   1.678
   17CHTO   C65 6953   5.457   6.442   1.533
   17CHTO  H122 6954   5.501   6.536   1.502
   17CHTO   O44 6955   5.357   6.468   1.633
   17CHTO  H102 6956   5.309   6.390   1.653
   17CHTO   C63 6957   5.412   6.374   1.398
   17CHTO  H120 6958   5.484   6.400   1.320
   17CHTO   N11 6959   5.285   6.425   1.338
   17CHTO  H108 6960   5.202   6.399   1.400
   17CHTO  H109 6961   5.271   6.384   1.240
   17CHTO   C61 6962   5.419   6.217   1.414
   17CHTO  H118 6963   5.391   6.174   1.317
   17CHTO   O40 6964   5.556   6.174   1.440
   17CHTO   C68 6965   5.648   6.269   1.504
   17CHTO  H125 6966   5.693   6.332   1.424
   17CHTO   C72 6967   5.763   6.189   1.569
   17CHTO   O48 6968   5.718   6.092   1.664
   17CHTO  H105 6969   5.792   6.046   1.699
   17CHTO   O38 6970   5.337   6.167   1.522
   17CHTO   C55 6971   5.215   6.091   1.507
   17CHTO  H112 6972   5.219   6.016   1.587
   17CHTO   C56 6973   5.188   6.025   1.365
   17CHTO  H113 6974   5.191   6.105   1.289
   17CHTO   O42 6975   5.296   5.935   1.334
   17CHTO  H100 6976   5.301   5.865   1.397
   17CHTO   C57 6977   5.048   5.951   1.362
   17CHTO  H114 6978   5.055   5.867   1.431
   17CHTO   N10 6979   5.011   5.897   1.229
   17CHTO  H106 6980   5.048   5.796   1.218
   17CHTO  H107 6981   5.052   5.958   1.150
   17CHTO   C58 6982   4.938   6.047   1.414
   17CHTO  H115 6983   4.924   6.131   1.340
   17CHTO   O37 6984   4.973   6.101   1.542
   17CHTO   C59 6985   5.092   6.181   1.544
   17CHTO  H116 6986   5.081   6.262   1.473
   17CHTO   C70 6987   5.104   6.243   1.683
   17CHTO   O46 6988   5.100   6.149   1.791
   17CHTO  H103 6989   5.177   6.095   1.790
   17CHTO   O39 6990   4.795   5.970   1.437
   17CHTO   C60 6991   4.689   6.057   1.479
   17CHTO  H117 6992   4.730   6.141   1.535
   17CHTO   C62 6993   4.614   6.116   1.356
   17CHTO  H119 6994   4.691   6.170   1.296
   17CHTO   O43 6995   4.561   6.009   1.274
   17CHTO  H101 6996   4.497   5.961   1.322
   17CHTO   C66 6997   4.504   6.221   1.407
   17CHTO  H123 6998   4.553   6.296   1.469
   17CHTO   N12 6999   4.442   6.295   1.294
   17CHTO  H110 7000   4.518   6.348   1.240
   17CHTO  H111 7001   4.366   6.363   1.332
   17CHTO   C69 7002   4.400   6.147   1.495
   17CHTO  H126 7003   4.346   6.070   1.435
   17CHTO   O41 7004   4.476   6.077   1.615
   17CHTO   C64 7005   4.591   5.983   1.574
   17CHTO  H121 7006   4.550   5.893   1.523
   17CHTO   C71 7007   4.660   5.938   1.705
   17CHTO   O47 7008   4.756   5.834   1.683
   17CHTO  H104 7009   4.794   5.808   1.765
   17CHTO   O34 7010   4.292   6.246   1.558
   17CHTO   C49 7011   4.174   6.341   1.524
   17CHTO   H91 7012   4.217   6.438   1.500
   17CHTO   C47 7013   4.083   6.353   1.649
   17CHTO   H89 7014   4.011   6.434   1.622
   17CHTO   O33 7015   4.158   6.395   1.764
   17CHTO   H70 7016   4.194   6.480   1.750
   17CHTO   C45 7017   4.006   6.213   1.679
   17CHTO   H87 7018   4.064   6.157   1.754
   17CHTO    N8 7019   3.873   6.245   1.738
   17CHTO   H75 7020   3.867   6.209   1.840
   17CHTO   H76 7021   3.794   6.200   1.679
   17CHTO   C43 7022   4.005   6.119   1.549
   17CHTO   H85 7023   4.105   6.075   1.546
   17CHTO   O29 7024   3.979   6.199   1.433
   17CHTO   C50 7025   4.088   6.290   1.404
   17CHTO   H92 7026   4.155   6.237   1.334
   17CHTO   C54 7027   4.036   6.407   1.317
   17CHTO   O36 7028   3.932   6.480   1.383
   17CHTO   H72 7029   3.854   6.427   1.389
   17CHTO   O27 7030   3.916   6.006   1.557
   17CHTO   C37 7031   3.955   5.875   1.600
   17CHTO   H79 7032   4.054   5.877   1.648
   17CHTO   C38 7033   3.855   5.818   1.705
   17CHTO   H80 7034   3.754   5.820   1.661
   17CHTO   O31 7035   3.857   5.905   1.820
   17CHTO   H68 7036   3.819   5.988   1.798
   17CHTO   C39 7037   3.893   5.671   1.745
   17CHTO   H81 7038   3.989   5.676   1.796
   17CHTO    N7 7039   3.795   5.607   1.840
   17CHTO   H73 7040   3.845   5.580   1.932
   17CHTO   H74 7041   3.712   5.673   1.861
   17CHTO   C40 7042   3.914   5.581   1.616
   17CHTO   H82 7043   3.816   5.558   1.573
   17CHTO   O26 7044   4.000   5.645   1.521
   17CHTO   C41 7045   3.961   5.779   1.478
   17CHTO   H83 7046   3.862   5.774   1.430
   17CHTO   C52 7047   4.064   5.824   1.371
   17CHTO   O35 7048   4.205   5.828   1.423
   17CHTO   H71 7049   4.263   5.856   1.355
   17CHTO   O28 7050   3.973   5.453   1.650
   17CHTO   C42 7051   4.115   5.416   1.639
   17CHTO   H84 7052   4.121   5.325   1.700
   17CHTO   C44 7053   4.219   5.515   1.702
   17CHTO   H86 7054   4.202   5.615   1.660
   17CHTO   O32 7055   4.193   5.521   1.843
   17CHTO   H69 7056   4.111   5.564   1.860
   17CHTO   C48 7057   4.370   5.476   1.671
   17CHTO   H90 7058   4.393   5.384   1.726
   17CHTO    N9 7059   4.469   5.579   1.720
   17CHTO   H77 7060   4.418   5.662   1.768
   17CHTO   H78 7061   4.540   5.534   1.787
   17CHTO   C51 7062   4.384   5.447   1.518
   17CHTO   H93 7063   4.356   5.538   1.463
   17CHTO   O30 7064   4.297   5.338   1.487
   17CHTO   C46 7065   4.154   5.375   1.494
   17CHTO   H88 7066   4.137   5.459   1.426
   17CHTO   C53 7067   4.072   5.252   1.447
   17CHTO   O72 7068   4.104   5.218   1.312
   17CHTO  H199 7069   4.052   5.144   1.286
   17CHTO   O22 7070   4.515   5.402   1.477
   17CHTO   C31 7071   4.560   5.417   1.337
   17CHTO   H59 7072   4.658   5.364   1.330
   17CHTO   C29 7073   4.467   5.354   1.231
   17CHTO   H57 7074   4.368   5.400   1.243
   17CHTO   O21 7075   4.452   5.214   1.263
   17CHTO   H37 7076   4.385   5.175   1.210
   17CHTO   C27 7077   4.517   5.376   1.082
   17CHTO   H55 7078   4.610   5.319   1.068
   17CHTO    N5 7079   4.418   5.331   0.982
   17CHTO   H43 7080   4.327   5.390   0.989
   17CHTO   H44 7081   4.459   5.338   0.883
   17CHTO   C25 7082   4.554   5.527   1.060
   17CHTO   H53 7083   4.462   5.589   1.063
   17CHTO   O17 7084   4.644   5.574   1.165
   17CHTO   C32 7085   4.591   5.566   1.298
   17CHTO   H60 7086   4.499   5.623   1.304
   17CHTO   C36 7087   4.693   5.632   1.394
   17CHTO   O25 7088   4.823   5.572   1.385
   17CHTO   H40 7089   4.881   5.615   1.445
   17CHTO   O15 7090   4.628   5.549   0.920
   17CHTO   C19 7091   4.685   5.670   0.862
   17CHTO   H47 7092   4.725   5.636   0.766
   17CHTO   C20 7093   4.581   5.782   0.834
   17CHTO   H48 7094   4.526   5.811   0.925
   17CHTO   O19 7095   4.485   5.727   0.741
   17CHTO   H35 7096   4.526   5.709   0.658
   17CHTO   C21 7097   4.649   5.913   0.776
   17CHTO   H49 7098   4.693   5.889   0.679
   17CHTO    N4 7099   4.552   6.024   0.754
   17CHTO   H41 7100   4.604   6.110   0.715
   17CHTO   H42 7101   4.477   5.993   0.683
   17CHTO   C22 7102   4.765   5.952   0.872
   17CHTO   H50 7103   4.723   5.970   0.971
   17CHTO   O14 7104   4.860   5.844   0.879
   17CHTO   C23 7105   4.808   5.726   0.942
   17CHTO   H51 7106   4.782   5.752   1.045
   17CHTO   C34 7107   4.925   5.626   0.946
   17CHTO   O23 7108   4.895   5.509   1.023
   17CHTO   H38 7109   4.887   5.531   1.114
   17CHTO   O16 7110   4.840   6.067   0.826
   17CHTO   C24 7111   4.890   6.166   0.947
   17CHTO   H52 7112   4.915   6.110   1.038
   17CHTO   C26 7113   4.780   6.269   0.979
   17CHTO   H54 7114   4.748   6.318   0.884
   17CHTO   O20 7115   4.666   6.198   1.032
   17CHTO   H36 7116   4.594   6.258   1.045
   17CHTO   C30 7117   4.831   6.379   1.077
   17CHTO   H58 7118   4.858   6.334   1.173
   17CHTO    N6 7119   4.727   6.482   1.105
   17CHTO   H45 7120   4.635   6.460   1.054
   17CHTO   H46 7121   4.708   6.487   1.212
   17CHTO   C33 7122   4.962   6.441   1.019
   17CHTO   H61 7123   4.941   6.488   0.921
   17CHTO   O18 7124   5.058   6.335   0.999
   17CHTO   C28 7125   5.020   6.237   0.901
   17CHTO   H56 7126   5.002   6.285   0.805
   17CHTO   C35 7127   5.134   6.135   0.886
   17CHTO   O24 7128   5.255   6.195   0.839
   17CHTO   H39 7129   5.322   6.130   0.833
   17CHTO    O9 7130   5.017   6.546   1.102
   17CHTO   C13 7131   5.107   6.656   1.020
   17CHTO   H26 7132   5.161   6.603   0.939
   17CHTO   C11 7133   5.207   6.726   1.122
   17CHTO   H24 7134   5.281   6.650   1.152
   17CHTO    O8 7135   5.136   6.767   1.240
   17CHTO    H3 7136   5.196   6.799   1.304
   17CHTO    C9 7137   5.282   6.840   1.048
   17CHTO   H22 7138   5.332   6.792   0.962
   17CHTO    N2 7139   5.394   6.899   1.127
   17CHTO   H10 7140   5.463   6.822   1.158
   17CHTO   H11 7141   5.354   6.951   1.213
   17CHTO    C7 7142   5.179   6.945   0.996
   17CHTO   H20 7143   5.239   7.016   0.937
   17CHTO    O4 7144   5.083   6.884   0.907
   17CHTO   C14 7145   5.014   6.764   0.947
   17CHTO   H27 7146   4.979   6.717   0.852
   17CHTO   C18 7147   4.888   6.801   1.028
   17CHTO   O13 7148   4.793   6.873   0.948
   17CHTO    H7 7149   4.718   6.893   0.999
   17CHTO    O2 7150   5.100   7.020   1.118
   17CHTO    C1 7151   5.063   7.158   1.102
   17CHTO   H14 7152   4.998   7.168   1.013
   17CHTO    C2 7153   5.187   7.258   1.088
   17CHTO   H15 7154   5.264   7.220   1.156
   17CHTO    O6 7155   5.237   7.252   0.953
   17CHTO    H1 7156   5.317   7.300   0.946
   17CHTO    C3 7157   5.151   7.411   1.124
   17CHTO   H16 7158   5.096   7.454   1.040
   17CHTO    N1 7159   5.276   7.493   1.142
   17CHTO    H8 7160   5.249   7.596   1.163
   17CHTO    H9 7161   5.335   7.454   1.224
   17CHTO    C4 7162   5.055   7.419   1.248
   17CHTO   H17 7163   5.109   7.388   1.337
   17CHTO    O1 7164   4.941   7.334   1.226
   17CHTO    C5 7165   4.975   7.195   1.226
   17CHTO   H18 7166   5.033   7.172   1.315
   17CHTO   C16 7167   4.843   7.114   1.231
   17CHTO   O11 7168   4.771   7.138   1.352
   17CHTO    H5 7169   4.692   7.088   1.352
   17CHTO    O3 7170   5.002   7.553   1.263
   17CHTO    C6 7171   4.939   7.597   1.389
   17CHTO   H19 7172   4.918   7.704   1.384
   17CHTO    C8 7173   4.801   7.528   1.414
   17CHTO   H21 7174   4.816   7.420   1.418
   17CHTO    O7 7175   4.716   7.562   1.302
   17CHTO    H2 7176   4.746   7.519   1.225
   17CHTO   C12 7177   4.739   7.575   1.552
   17CHTO   H25 7178   4.719   7.684   1.542
   17CHTO    N3 7179   4.608   7.508   1.579
   17CHTO   H12 7180   4.621   7.401   1.586
   17CHTO   H13 7181   4.565   7.547   1.671
   17CHTO   C15 7182   4.846   7.554   1.665
   17CHTO   H28 7183   4.866   7.448   1.682
   17CHTO   O10 7184   4.808   7.619   1.797
   17CHTO    H4 7185   4.731   7.578   1.831
   17CHTO    O5 7186   4.968   7.623   1.633
   17CHTO   C10 7187   5.032   7.576   1.513
   17CHTO   H23 7188   5.054   7.470   1.526
   17CHTO   C17 7189   5.165   7.651   1.498
   17CHTO   O12 7190   5.256   7.616   1.603
   17CHTO    H6 7191   5.336   7.663   1.591
   18CHTO  H203 7192   6.084   7.972   2.198
   18CHTO   O82 7193   6.161   7.938   2.240
   18CHTO  C123 7194   6.266   7.915   2.144
   18CHTO  H227 7195   6.355   7.881   2.198
   18CHTO   O77 7196   6.214   7.807   2.061
   18CHTO  C118 7197   6.308   7.759   1.963
   18CHTO  H222 7198   6.400   7.729   2.014
   18CHTO  C125 7199   6.245   7.632   1.893
   18CHTO   O84 7200   6.121   7.661   1.828
   18CHTO  H205 7201   6.087   7.584   1.788
   18CHTO  C114 7202   6.341   7.872   1.863
   18CHTO  H218 7203   6.248   7.904   1.816
   18CHTO  C116 7204   6.396   7.997   1.939
   18CHTO  H220 7205   6.496   7.972   1.982
   18CHTO   O79 7206   6.418   8.104   1.844
   18CHTO  H201 7207   6.337   8.130   1.805
   18CHTO  C120 7208   6.298   8.041   2.055
   18CHTO  H224 7209   6.205   8.077   2.005
   18CHTO   N21 7210   6.353   8.154   2.134
   18CHTO  H211 7211   6.316   8.151   2.236
   18CHTO  H212 7212   6.327   8.248   2.088
   18CHTO   O75 7213   6.423   7.808   1.763
   18CHTO  C112 7214   6.576   7.858   1.732
   18CHTO  H216 7215   6.626   7.885   1.826
   18CHTO   O73 7216   6.565   7.971   1.643
   18CHTO  C113 7217   6.691   8.022   1.596
   18CHTO  H217 7218   6.755   8.045   1.683
   18CHTO  C124 7219   6.663   8.154   1.524
   18CHTO   O83 7220   6.782   8.227   1.495
   18CHTO  H204 7221   6.760   8.307   1.451
   18CHTO  C109 7222   6.756   7.914   1.507
   18CHTO  H213 7223   6.682   7.888   1.429
   18CHTO  C110 7224   6.785   7.788   1.594
   18CHTO  H214 7225   6.859   7.814   1.670
   18CHTO   O78 7226   6.842   7.686   1.510
   18CHTO  H200 7227   6.869   7.613   1.562
   18CHTO  C111 7228   6.653   7.739   1.663
   18CHTO  H215 7229   6.587   7.699   1.585
   18CHTO   N19 7230   6.677   7.628   1.760
   18CHTO  H207 7231   6.649   7.656   1.860
   18CHTO  H208 7232   6.621   7.540   1.730
   18CHTO   O74 7233   6.879   7.962   1.443
   18CHTO  C115 7234   6.872   7.938   1.285
   18CHTO  H219 7235   6.835   7.839   1.261
   18CHTO   O76 7236   6.766   8.040   1.214
   18CHTO  C122 7237   6.828   8.158   1.161
   18CHTO  H226 7238   6.877   8.209   1.244
   18CHTO  C126 7239   6.717   8.257   1.109
   18CHTO   O85 7240   6.634   8.200   1.007
   18CHTO  H206 7241   6.570   8.264   0.980
   18CHTO  C121 7242   6.935   8.123   1.049
   18CHTO  H225 7243   6.886   8.127   0.949
   18CHTO   O81 7244   7.038   8.223   1.052
   18CHTO  H202 7245   7.096   8.212   0.979
   18CHTO  C119 7246   6.996   7.981   1.069
   18CHTO  H223 7247   6.919   7.911   1.037
   18CHTO  C117 7248   7.017   7.953   1.222
   18CHTO  H221 7249   7.066   8.032   1.280
   18CHTO   N20 7250   7.098   7.830   1.249
   18CHTO  H209 7251   7.049   7.743   1.205
   18CHTO  H210 7252   7.111   7.816   1.355
   18CHTO   O80 7253   7.117   7.949   0.961
   18CHTO  C103 7254   7.099   7.829   0.850
   18CHTO  H190 7255   7.181   7.834   0.778
   18CHTO  C101 7256   7.096   7.683   0.909
   18CHTO  H188 7257   7.023   7.679   0.990
   18CHTO   O68 7258   7.239   7.650   0.967
   18CHTO  H168 7259   7.259   7.708   1.038
   18CHTO   C99 7260   7.051   7.578   0.797
   18CHTO  H186 7261   7.124   7.579   0.713
   18CHTO   N17 7262   7.044   7.436   0.847
   18CHTO  H174 7263   7.115   7.374   0.794
   18CHTO  H175 7264   6.944   7.396   0.839
   18CHTO   C97 7265   6.916   7.626   0.736
   18CHTO  H184 7266   6.842   7.630   0.817
   18CHTO   O64 7267   6.936   7.755   0.676
   18CHTO  C104 7268   6.965   7.859   0.770
   18CHTO  H191 7269   6.883   7.870   0.841
   18CHTO  C108 7270   6.975   7.993   0.696
   18CHTO   O71 7271   6.849   8.031   0.640
   18CHTO  H171 7272   6.825   7.973   0.570
   18CHTO   O62 7273   6.868   7.545   0.626
   18CHTO   C91 7274   6.724   7.545   0.608
   18CHTO  H178 7275   6.679   7.618   0.675
   18CHTO   C92 7276   6.667   7.406   0.649
   18CHTO  H179 7277   6.712   7.330   0.583
   18CHTO   O66 7278   6.710   7.372   0.782
   18CHTO  H166 7279   6.678   7.435   0.844
   18CHTO   C93 7280   6.509   7.402   0.641
   18CHTO  H180 7281   6.473   7.444   0.736
   18CHTO   N16 7282   6.454   7.264   0.640
   18CHTO  H172 7283   6.346   7.267   0.636
   18CHTO  H173 7284   6.487   7.210   0.727
   18CHTO   C94 7285   6.453   7.490   0.523
   18CHTO  H181 7286   6.374   7.439   0.468
   18CHTO   O61 7287   6.552   7.519   0.422
   18CHTO   C95 7288   6.677   7.579   0.461
   18CHTO  H182 7289   6.755   7.544   0.393
   18CHTO  C106 7290   6.669   7.735   0.440
   18CHTO   O69 7291   6.645   7.769   0.303
   18CHTO  H169 7292   6.559   7.741   0.278
   18CHTO   O63 7293   6.393   7.629   0.588
   18CHTO   C96 7294   6.250   7.689   0.526
   18CHTO  H183 7295   6.182   7.703   0.610
   18CHTO   C98 7296   6.174   7.600   0.422
   18CHTO  H185 7297   6.244   7.566   0.344
   18CHTO   O67 7298   6.132   7.480   0.490
   18CHTO  H167 7299   6.070   7.500   0.558
   18CHTO  C102 7300   6.048   7.674   0.356
   18CHTO  H189 7301   5.974   7.686   0.436
   18CHTO   N18 7302   5.979   7.597   0.249
   18CHTO  H176 7303   6.049   7.575   0.169
   18CHTO  H177 7304   5.940   7.505   0.289
   18CHTO  C105 7305   6.091   7.816   0.309
   18CHTO  H192 7306   6.162   7.806   0.227
   18CHTO   O65 7307   6.154   7.889   0.416
   18CHTO  C100 7308   6.276   7.832   0.466
   18CHTO  H187 7309   6.349   7.825   0.385
   18CHTO  C107 7310   6.333   7.925   0.576
   18CHTO   O70 7311   6.353   8.059   0.528
   18CHTO  H170 7312   6.423   8.060   0.465
   18CHTO   O57 7313   5.958   7.895   0.261
   18CHTO   C85 7314   5.970   8.026   0.203
   18CHTO  H157 7315   6.079   8.044   0.189
   18CHTO   C83 7316   5.923   8.131   0.308
   18CHTO  H155 7317   5.992   8.128   0.393
   18CHTO   O56 7318   5.794   8.094   0.359
   18CHTO  H135 7319   5.769   8.152   0.429
   18CHTO   C81 7320   5.929   8.273   0.245
   18CHTO  H153 7321   6.031   8.291   0.212
   18CHTO   N14 7322   5.903   8.381   0.344
   18CHTO  H141 7323   5.991   8.442   0.358
   18CHTO  H142 7324   5.822   8.444   0.313
   18CHTO   C79 7325   5.835   8.279   0.119
   18CHTO  H151 7326   5.847   8.378   0.075
   18CHTO   O52 7327   5.881   8.182   0.020
   18CHTO   C86 7328   5.889   8.044   0.068
   18CHTO  H158 7329   5.783   8.012   0.079
   18CHTO   C90 7330   5.948   7.958   2.773
   18CHTO   O60 7331   5.940   7.818   2.801
   18CHTO  H138 7332   5.979   7.770   2.730
   18CHTO   O50 7333   5.696   8.259   0.148
   18CHTO   C73 7334   5.571   8.265   0.077
   18CHTO  H145 7335   5.579   8.211   2.802
   18CHTO   C74 7336   5.531   8.412   0.047
   18CHTO  H146 7337   5.612   8.456   2.807
   18CHTO   O54 7338   5.414   8.411   2.783
   18CHTO  H133 7339   5.391   8.499   2.759
   18CHTO   C75 7340   5.511   8.489   0.184
   18CHTO  H147 7341   5.607   8.490   0.237
   18CHTO   N13 7342   5.475   8.633   0.169
   18CHTO  H139 7343   5.378   8.653   0.212
   18CHTO  H140 7344   5.473   8.661   0.065
   18CHTO   C76 7345   5.407   8.408   0.277
   18CHTO  H148 7346   5.308   8.417   0.233
   18CHTO   O49 7347   5.445   8.267   0.289
   18CHTO   C77 7348   5.460   8.198   0.163
   18CHTO  H149 7349   5.366   8.200   0.108
   18CHTO   C88 7350   5.488   8.050   0.193
   18CHTO   O58 7351   5.497   7.970   0.069
   18CHTO  H136 7352   5.513   7.881   0.090
   18CHTO   O51 7353   5.415   8.468   0.426
   18CHTO   C78 7354   5.336   8.390   0.536
   18CHTO  H150 7355   5.302   8.291   0.499
   18CHTO   C80 7356   5.212   8.471   0.580
   18CHTO  H152 7357   5.243   8.578   0.593
   18CHTO   O55 7358   5.117   8.466   0.472
   18CHTO  H134 7359   5.043   8.520   0.491
   18CHTO   C84 7360   5.151   8.418   0.717
   18CHTO  H156 7361   5.112   8.318   0.700
   18CHTO   N15 7362   5.036   8.502   0.765
   18CHTO  H143 7363   4.958   8.503   0.692
   18CHTO  H144 7364   4.998   8.462   0.857
   18CHTO   C87 7365   5.266   8.411   0.819
   18CHTO  H159 7366   5.311   8.510   0.827
   18CHTO   O53 7367   5.367   8.311   0.766
   18CHTO   C82 7368   5.435   8.364   0.651
   18CHTO  H154 7369   5.487   8.456   0.679
   18CHTO   C89 7370   5.544   8.263   0.607
   18CHTO   O59 7371   5.646   8.249   0.706
   18CHTO  H137 7372   5.710   8.188   0.677
   18CHTO   O45 7373   5.223   8.360   0.967
   18CHTO   C67 7374   5.331   8.379   1.061
   18CHTO  H124 7375   5.424   8.356   1.010
   18CHTO   C65 7376   5.336   8.528   1.110
   18CHTO  H122 7377   5.236   8.569   1.095
   18CHTO   O44 7378   5.428   8.597   1.023
   18CHTO  H102 7379   5.424   8.690   1.039
   18CHTO   C63 7380   5.363   8.541   1.265
   18CHTO  H120 7381   5.272   8.511   1.318
   18CHTO   N11 7382   5.383   8.680   1.316
   18CHTO  H108 7383   5.387   8.680   1.423
   18CHTO  H109 7384   5.301   8.743   1.284
   18CHTO   C61 7385   5.475   8.438   1.305
   18CHTO  H118 7386   5.485   8.444   1.415
   18CHTO   O40 7387   5.438   8.301   1.273
   18CHTO   C68 7388   5.324   8.279   1.183
   18CHTO  H125 7389   5.229   8.294   1.241
   18CHTO   C72 7390   5.328   8.131   1.140
   18CHTO   O48 7391   5.214   8.092   1.063
   18CHTO  H105 7392   5.221   8.001   1.040
   18CHTO   O38 7393   5.601   8.469   1.242
   18CHTO   C55 7394   5.720   8.411   1.299
   18CHTO  H112 7395   5.694   8.319   1.354
   18CHTO   C56 7396   5.792   8.517   1.393
   18CHTO  H113 7397   5.799   8.611   1.336
   18CHTO   O42 7398   5.708   8.547   1.506
   18CHTO  H100 7399   5.694   8.470   1.558
   18CHTO   C57 7400   5.936   8.469   1.438
   18CHTO  H114 7401   5.923   8.387   1.509
   18CHTO   N10 7402   6.012   8.576   1.508
   18CHTO  H106 7403   5.991   8.573   1.614
   18CHTO  H107 7404   6.119   8.564   1.494
   18CHTO   C58 7405   6.014   8.416   1.315
   18CHTO  H115 7406   6.032   8.501   1.245
   18CHTO   O37 7407   5.937   8.315   1.247
   18CHTO   C59 7408   5.818   8.367   1.186
   18CHTO  H116 7409   5.843   8.451   1.121
   18CHTO   C70 7410   5.760   8.255   1.100
   18CHTO   O46 7411   5.662   8.302   1.007
   18CHTO  H103 7412   5.630   8.230   0.956
   18CHTO   O39 7413   6.162   8.350   1.358
   18CHTO   C60 7414   6.162   8.214   1.405
   18CHTO  H117 7415   6.067   8.196   1.456
   18CHTO   C62 7416   6.171   8.109   1.288
   18CHTO  H119 7417   6.065   8.086   1.261
   18CHTO   O43 7418   6.229   8.166   1.169
   18CHTO  H101 7419   6.176   8.235   1.136
   18CHTO   C66 7420   6.239   7.966   1.329
   18CHTO  H123 7421   6.191   7.888   1.269
   18CHTO   N12 7422   6.385   7.949   1.305
   18CHTO  H110 7423   6.440   8.025   1.360
   18CHTO  H111 7424   6.406   7.956   1.199
   18CHTO   C69 7425   6.207   7.934   1.477
   18CHTO  H126 7426   6.248   7.835   1.506
   18CHTO   O41 7427   6.268   8.051   1.577
   18CHTO   C64 7428   6.274   8.195   1.511
   18CHTO  H121 7429   6.372   8.207   1.460
   18CHTO   C71 7430   6.268   8.302   1.623
   18CHTO   O47 7431   6.152   8.289   1.704
   18CHTO  H104 7432   6.151   8.357   1.769
   18CHTO   O34 7433   6.059   7.925   1.490
   18CHTO   C49 7434   5.960   7.892   1.597
   18CHTO   H91 7435   5.987   7.793   1.636
   18CHTO   C47 7436   5.820   7.887   1.534
   18CHTO   H89 7437   5.749   7.852   1.613
   18CHTO   O33 7438   5.820   7.791   1.427
   18CHTO   H70 7439   5.831   7.704   1.461
   18CHTO   C45 7440   5.779   8.035   1.485
   18CHTO   H87 7441   5.856   8.071   1.415
   18CHTO    N8 7442   5.648   8.038   1.415
   18CHTO   H75 7443   5.569   8.010   1.483
   18CHTO   H76 7444   5.630   8.136   1.375
   18CHTO   C43 7445   5.785   8.136   1.610
   18CHTO   H85 7446   5.769   8.236   1.570
   18CHTO   O29 7447   5.912   8.127   1.680
   18CHTO   C50 7448   5.963   7.996   1.712
   18CHTO   H92 7449   6.069   8.010   1.739
   18CHTO   C54 7450   5.901   7.939   1.843
   18CHTO   O36 7451   5.939   8.016   1.957
   18CHTO   H72 7452   6.030   8.004   1.975
   18CHTO   O27 7453   5.678   8.112   1.703
   18CHTO   C37 7454   5.577   8.177   1.781
   18CHTO   H79 7455   5.608   8.181   1.887
   18CHTO   C38 7456   5.553   8.323   1.733
   18CHTO   H80 7457   5.540   8.321   1.624
   18CHTO   O31 7458   5.671   8.399   1.764
   18CHTO   H68 7459   5.665   8.485   1.727
   18CHTO   C39 7460   5.425   8.388   1.800
   18CHTO   H81 7461   5.452   8.412   1.903
   18CHTO    N7 7462   5.386   8.517   1.736
   18CHTO   H73 7463   5.360   8.501   1.632
   18CHTO   H74 7464   5.302   8.561   1.788
   18CHTO   C40 7465   5.303   8.288   1.806
   18CHTO   H82 7466   5.254   8.281   1.709
   18CHTO   O26 7467   5.345   8.159   1.855
   18CHTO   C41 7468   5.445   8.097   1.770
   18CHTO   H83 7469   5.412   8.097   1.665
   18CHTO   C52 7470   5.463   7.949   1.813
   18CHTO   O35 7471   5.340   7.871   1.792
   18CHTO   H71 7472   5.355   7.782   1.819
   18CHTO   O28 7473   5.207   8.331   1.905
   18CHTO   C42 7474   5.066   8.296   1.897
   18CHTO   H84 7475   5.027   8.321   1.996
   18CHTO   C44 7476   5.032   8.145   1.875
   18CHTO   H86 7477   5.076   8.113   1.780
   18CHTO   O32 7478   5.095   8.071   1.982
   18CHTO   H69 7479   5.188   8.072   1.972
   18CHTO   C48 7480   4.877   8.116   1.869
   18CHTO   H90 7481   4.836   8.129   1.970
   18CHTO    N9 7482   4.847   7.974   1.831
   18CHTO   H77 7483   4.938   7.917   1.816
   18CHTO   H78 7484   4.786   7.927   1.907
   18CHTO   C51 7485   4.804   8.219   1.774
   18CHTO   H93 7486   4.831   8.194   1.671
   18CHTO   O30 7487   4.840   8.353   1.808
   18CHTO   C46 7488   4.987   8.382   1.794
   18CHTO   H88 7489   5.019   8.355   1.693
   18CHTO   C53 7490   5.009   8.534   1.815
   18CHTO   O72 7491   4.966   8.578   1.945
   18CHTO  H199 7492   4.873   8.573   1.951
   18CHTO   O22 7493   4.661   8.217   1.791
   18CHTO   C31 7494   4.570   8.219   1.675
   18CHTO   H59 7495   4.469   8.238   1.716
   18CHTO   C29 7496   4.599   8.333   1.573
   18CHTO   H57 7497   4.707   8.331   1.551
   18CHTO   O21 7498   4.574   8.458   1.639
   18CHTO   H37 7499   4.483   8.469   1.655
   18CHTO   C27 7500   4.520   8.318   1.437
   18CHTO   H55 7501   4.413   8.332   1.457
   18CHTO    N5 7502   4.563   8.418   1.336
   18CHTO   H43 7503   4.549   8.518   1.375
   18CHTO   H44 7504   4.505   8.406   1.245
   18CHTO   C25 7505   4.539   8.171   1.386
   18CHTO   H53 7506   4.646   8.151   1.373
   18CHTO   O17 7507   4.485   8.081   1.486
   18CHTO   C32 7508   4.562   8.079   1.607
   18CHTO   H60 7509   4.663   8.045   1.583
   18CHTO   C36 7510   4.498   7.977   1.704
   18CHTO   O25 7511   4.517   7.843   1.658
   18CHTO   H40 7512   4.477   7.783   1.718
   18CHTO   O15 7513   4.463   8.138   1.248
   18CHTO   C19 7514   4.518   8.100   1.118
   18CHTO   H47 7515   4.431   8.056   1.065
   18CHTO   C20 7516   4.571   8.221   1.034
   18CHTO   H48 7517   4.649   8.276   1.088
   18CHTO   O19 7518   4.459   8.309   1.015
   18CHTO   H35 7519   4.486   8.387   0.972
   18CHTO   C21 7520   4.632   8.174   0.895
   18CHTO   H49 7521   4.553   8.129   0.835
   18CHTO    N4 7522   4.688   8.287   0.816
   18CHTO   H41 7523   4.727   8.251   0.722
   18CHTO   H42 7524   4.768   8.335   0.871
   18CHTO   C22 7525   4.737   8.064   0.925
   18CHTO   H50 7526   4.816   8.106   0.987
   18CHTO   O14 7527   4.673   7.955   0.994
   18CHTO   C23 7528   4.626   7.987   1.125
   18CHTO   H51 7529   4.712   8.017   1.186
   18CHTO   C34 7530   4.571   7.855   1.181
   18CHTO   O23 7531   4.548   7.858   1.322
   18CHTO   H38 7532   4.478   7.917   1.342
   18CHTO   O16 7533   4.791   8.000   0.807
   18CHTO   C24 7534   4.955   8.014   0.792
   18CHTO   H52 7535   4.995   8.096   0.852
   18CHTO   C26 7536   4.987   8.038   0.643
   18CHTO   H54 7537   4.937   7.959   0.583
   18CHTO   O20 7538   4.929   8.164   0.604
   18CHTO   H36 7539   4.969   8.235   0.651
   18CHTO   C30 7540   5.140   8.034   0.612
   18CHTO   H58 7541   5.187   8.125   0.651
   18CHTO    N6 7542   5.167   8.033   0.465
   18CHTO   H45 7543   5.226   8.119   0.437
   18CHTO   H46 7544   5.076   8.031   0.408
   18CHTO   C33 7545   5.212   7.916   0.685
   18CHTO   H61 7546   5.190   7.821   0.634
   18CHTO   O18 7547   5.167   7.905   0.822
   18CHTO   C28 7548   5.026   7.884   0.838
   18CHTO   H56 7549   4.992   7.802   0.776
   18CHTO   C35 7550   4.996   7.851   0.986
   18CHTO   O24 7551   5.054   7.727   1.027
   18CHTO   H39 7552   5.147   7.735   1.029
   18CHTO    O9 7553   5.355   7.933   0.677
   18CHTO   C13 7554   5.442   7.818   0.749
   18CHTO   H26 7555   5.379   7.726   0.758
   18CHTO   C11 7556   5.489   7.871   0.891
   18CHTO   H24 7557   5.400   7.879   0.955
   18CHTO    O8 7558   5.545   8.003   0.878
   18CHTO    H3 7559   5.565   8.039   0.962
   18CHTO    C9 7560   5.587   7.768   0.952
   18CHTO   H22 7561   5.531   7.673   0.954
   18CHTO    N2 7562   5.619   7.793   1.095
   18CHTO   H10 7563   5.572   7.719   1.159
   18CHTO   H11 7564   5.589   7.892   1.125
   18CHTO    C7 7565   5.712   7.747   0.856
   18CHTO   H20 7566   5.717   7.637   0.847
   18CHTO    O4 7567   5.694   7.806   0.726
   18CHTO   C14 7568   5.569   7.774   0.662
   18CHTO   H27 7569   5.565   7.664   0.647
   18CHTO   C18 7570   5.570   7.837   0.520
   18CHTO   O13 7571   5.675   7.783   0.439
   18CHTO    H7 7572   5.673   7.822   0.354
   18CHTO    O2 7573   5.856   7.802   0.917
   18CHTO    C1 7574   5.978   7.752   0.859
   18CHTO   H14 7575   5.986   7.790   0.754
   18CHTO    C2 7576   5.990   7.592   0.856
   18CHTO   H15 7577   5.942   7.559   0.949
   18CHTO    O6 7578   5.915   7.540   0.744
   18CHTO    H1 7579   5.824   7.557   0.756
   18CHTO    C3 7580   6.141   7.537   0.849
   18CHTO   H16 7581   6.177   7.546   0.745
   18CHTO    N1 7582   6.149   7.391   0.882
   18CHTO    H8 7583   6.251   7.357   0.874
   18CHTO    H9 7584   6.114   7.375   0.983
   18CHTO    C4 7585   6.237   7.626   0.935
   18CHTO   H17 7586   6.214   7.610   1.041
   18CHTO    O1 7587   6.222   7.764   0.899
   18CHTO    C5 7588   6.095   7.818   0.939
   18CHTO   H18 7589   6.079   7.800   1.045
   18CHTO   C16 7590   6.106   7.970   0.914
   18CHTO   O11 7591   5.996   8.042   0.973
   18CHTO    H5 7592   6.006   8.133   0.955
   18CHTO    O3 7593   6.375   7.595   0.907
   18CHTO    C6 7594   6.468   7.610   1.019
   18CHTO   H19 7595   6.431   7.678   1.097
   18CHTO    C8 7596   6.496   7.471   1.084
   18CHTO   H21 7597   6.521   7.400   1.005
   18CHTO    O7 7598   6.375   7.428   1.149
   18CHTO    H2 7599   6.384   7.341   1.181
   18CHTO   C12 7600   6.617   7.479   1.186
   18CHTO   H25 7601   6.583   7.541   1.272
   18CHTO    N3 7602   6.651   7.343   1.241
   18CHTO   H12 7603   6.565   7.302   1.293
   18CHTO   H13 7604   6.735   7.350   1.308
   18CHTO   C15 7605   6.739   7.551   1.118
   18CHTO   H28 7606   6.782   7.490   1.037
   18CHTO   O10 7607   6.850   7.586   1.217
   18CHTO    H4 7608   6.925   7.618   1.171
   18CHTO    O5 7609   6.700   7.680   1.068
   18CHTO   C10 7610   6.600   7.671   0.965
   18CHTO   H23 7611   6.637   7.607   0.886
   18CHTO   C17 7612   6.580   7.811   0.903
   18CHTO   O12 7613   6.537   7.908   0.999
   18CHTO    H6 7614   6.605   7.925   1.061
   19CHTO  H203 7615   5.452   9.508   2.504
   19CHTO   O82 7616   5.414   9.434   2.548
   19CHTO  C123 7617   5.343   9.351   2.455
   19CHTO  H227 7618   5.281   9.414   2.390
   19CHTO   O77 7619   5.451   9.290   2.376
   19CHTO  C118 7620   5.407   9.199   2.274
   19CHTO  H222 7621   5.337   9.250   2.205
   19CHTO  C125 7622   5.534   9.152   2.192
   19CHTO   O84 7623   5.594   9.261   2.121
   19CHTO  H205 7624   5.538   9.289   2.052
   19CHTO  C114 7625   5.337   9.080   2.341
   19CHTO  H218 7626   5.406   9.034   2.411
   19CHTO  C116 7627   5.213   9.130   2.422
   19CHTO  H220 7628   5.138   9.172   2.352
   19CHTO   O79 7629   5.149   9.018   2.486
   19CHTO  H201 7630   5.207   8.977   2.547
   19CHTO  C120 7631   5.257   9.240   2.527
   19CHTO  H224 7632   5.320   9.188   2.603
   19CHTO   N21 7633   5.141   9.300   2.599
   19CHTO  H211 7634   5.054   9.301   2.535
   19CHTO  H212 7635   5.121   9.244   2.689
   19CHTO   O75 7636   5.303   8.988   2.235
   19CHTO  C112 7637   5.318   8.832   2.285
   19CHTO  H216 7638   5.282   8.824   2.389
   19CHTO   O73 7639   5.457   8.797   2.273
   19CHTO  C113 7640   5.485   8.667   2.326
   19CHTO  H217 7641   5.449   8.661   2.431
   19CHTO  C124 7642   5.637   8.647   2.329
   19CHTO   O83 7643   5.702   8.738   2.419
   19CHTO  H204 7644   5.794   8.721   2.420
   19CHTO  C109 7645   5.414   8.558   2.240
   19CHTO  H213 7646   5.457   8.564   2.139
   19CHTO  C110 7647   5.260   8.588   2.236
   19CHTO  H214 7648   5.219   8.568   2.335
   19CHTO   O78 7649   5.197   8.495   2.145
   19CHTO  H200 7650   5.202   8.408   2.179
   19CHTO  C111 7651   5.232   8.735   2.195
   19CHTO  H215 7652   5.263   8.749   2.090
   19CHTO   N19 7653   5.088   8.774   2.203
   19CHTO  H207 7654   5.027   8.691   2.236
   19CHTO  H208 7655   5.053   8.807   2.106
   19CHTO   O74 7656   5.442   8.426   2.296
   19CHTO  C115 7657   5.456   8.312   2.188
   19CHTO  H219 7658   5.375   8.315   2.115
   19CHTO   O76 7659   5.589   8.330   2.101
   19CHTO  C122 7660   5.708   8.294   2.173
   19CHTO  H226 7661   5.718   8.362   2.257
   19CHTO  C126 7662   5.834   8.319   2.082
   19CHTO   O85 7663   5.853   8.457   2.049
   19CHTO  H206 7664   5.784   8.486   1.993
   19CHTO  C121 7665   5.705   8.144   2.223
   19CHTO  H225 7666   5.776   8.085   2.162
   19CHTO   O81 7667   5.752   8.139   2.359
   19CHTO  H202 7668   5.693   8.186   2.416
   19CHTO  C119 7669   5.563   8.078   2.211
   19CHTO  H223 7670   5.546   8.066   2.104
   19CHTO  C117 7671   5.452   8.174   2.267
   19CHTO  H221 7672   5.462   8.200   2.372
   19CHTO   N20 7673   5.316   8.112   2.256
   19CHTO  H209 7674   5.314   8.018   2.309
   19CHTO  H210 7675   5.241   8.178   2.296
   19CHTO   O80 7676   5.562   7.925   2.262
   19CHTO  C103 7677   5.632   7.818   2.175
   19CHTO  H190 7678   5.651   7.857   2.075
   19CHTO  C101 7679   5.767   7.758   2.230
   19CHTO  H188 7680   5.749   7.713   2.328
   19CHTO   O68 7681   5.870   7.869   2.246
   19CHTO  H168 7682   5.948   7.835   2.285
   19CHTO   C99 7683   5.820   7.643   2.131
   19CHTO  H186 7684   5.848   7.690   2.035
   19CHTO   N17 7685   5.942   7.571   2.180
   19CHTO  H174 7686   5.978   7.503   2.104
   19CHTO  H175 7687   6.018   7.643   2.207
   19CHTO   C97 7688   5.705   7.542   2.097
   19CHTO  H184 7689   5.690   7.475   2.183
   19CHTO   O64 7690   5.584   7.611   2.060
   19CHTO  C104 7691   5.531   7.699   2.161
   19CHTO  H191 7692   5.521   7.649   2.257
   19CHTO  C108 7693   5.390   7.744   2.120
   19CHTO   O71 7694   5.300   7.632   2.114
   19CHTO  H171 7695   5.215   7.662   2.088
   19CHTO   O62 7696   5.742   7.465   1.980
   19CHTO   C91 7697   5.646   7.368   1.932
   19CHTO  H178 7698   5.551   7.383   1.983
   19CHTO   C92 7699   5.693   7.224   1.967
   19CHTO  H179 7700   5.795   7.211   1.929
   19CHTO   O66 7701   5.703   7.213   2.110
   19CHTO  H166 7702   5.739   7.130   2.134
   19CHTO   C93 7703   5.596   7.113   1.909
   19CHTO  H180 7704   5.510   7.108   1.979
   19CHTO   N16 7705   5.659   6.979   1.913
   19CHTO  H172 7706   5.671   6.938   1.814
   19CHTO  H173 7707   5.601   6.912   1.974
   19CHTO   C94 7708   5.541   7.148   1.765
   19CHTO  H181 7709   5.611   7.119   1.686
   19CHTO   O61 7710   5.512   7.287   1.745
   19CHTO   C95 7711   5.620   7.375   1.778
   19CHTO  H182 7712   5.709   7.344   1.724
   19CHTO  C106 7713   5.586   7.521   1.731
   19CHTO   O69 7714   5.577   7.529   1.588
   19CHTO  H169 7715   5.557   7.617   1.563
   19CHTO   O63 7716   5.405   7.072   1.747
   19CHTO   C96 7717   5.360   7.053   1.604
   19CHTO  H183 7718   5.450   7.049   1.542
   19CHTO   C98 7719   5.268   7.165   1.547
   19CHTO  H185 7720   5.313   7.264   1.562
   19CHTO   O67 7721   5.263   7.146   1.405
   19CHTO  H167 7722   5.216   7.216   1.364
   19CHTO  C102 7723   5.117   7.158   1.605
   19CHTO  H189 7724   5.053   7.201   1.527
   19CHTO   N18 7725   5.094   7.242   1.725
   19CHTO  H176 7726   5.160   7.211   1.805
   19CHTO  H177 7727   5.111   7.346   1.702
   19CHTO  C105 7728   5.075   7.010   1.627
   19CHTO  H192 7729   5.088   6.983   1.733
   19CHTO   O65 7730   5.154   6.918   1.550
   19CHTO  C100 7731   5.289   6.910   1.598
   19CHTO  H187 7732   5.286   6.867   1.699
   19CHTO  C107 7733   5.367   6.811   1.509
   19CHTO   O70 7734   5.498   6.791   1.561
   19CHTO  H170 7735   5.545   6.730   1.507
   19CHTO   O57 7736   4.923   6.999   1.589
   19CHTO   C85 7737   4.848   6.892   1.649
   19CHTO  H157 7738   4.895   6.872   1.748
   19CHTO   C83 7739   4.865   6.760   1.567
   19CHTO  H155 7740   4.971   6.736   1.563
   19CHTO   O56 7741   4.823   6.781   1.431
   19CHTO  H135 7742   4.878   6.844   1.389
   19CHTO   C81 7743   4.791   6.645   1.641
   19CHTO  H153 7744   4.835   6.635   1.740
   19CHTO   N14 7745   4.814   6.511   1.580
   19CHTO  H141 7746   4.864   6.519   1.486
   19CHTO  H142 7747   4.722   6.459   1.565
   19CHTO   C79 7748   4.638   6.680   1.660
   19CHTO  H151 7749   4.595   6.605   1.727
   19CHTO   O52 7750   4.621   6.810   1.726
   19CHTO   C86 7751   4.694   6.920   1.663
   19CHTO  H158 7752   4.646   6.932   1.563
   19CHTO   C90 7753   4.668   7.052   1.738
   19CHTO   O60 7754   4.530   7.090   1.727
   19CHTO  H138 7755   4.516   7.171   1.774
   19CHTO   O50 7756   4.561   6.678   1.538
   19CHTO   C73 7757   4.432   6.660   1.477
   19CHTO  H145 7758   4.401   6.555   1.485
   19CHTO   C74 7759   4.440   6.699   1.326
   19CHTO  H146 7760   4.517   6.635   1.281
   19CHTO   O54 7761   4.316   6.664   1.263
   19CHTO  H133 7762   4.320   6.682   1.171
   19CHTO   C75 7763   4.477   6.852   1.315
   19CHTO  H147 7764   4.577   6.867   1.358
   19CHTO   N13 7765   4.489   6.901   1.175
   19CHTO  H139 7766   4.472   6.821   1.104
   19CHTO  H140 7767   4.418   6.980   1.155
   19CHTO   C76 7768   4.375   6.940   1.402
   19CHTO  H148 7769   4.277   6.938   1.353
   19CHTO   O49 7770   4.361   6.888   1.539
   19CHTO   C77 7771   4.323   6.750   1.545
   19CHTO  H149 7772   4.228   6.736   1.493
   19CHTO   C88 7773   4.296   6.710   1.690
   19CHTO   O58 7774   4.182   6.788   1.748
   19CHTO  H136 7775   4.206   6.878   1.757
   19CHTO   O51 7776   4.431   7.088   1.426
   19CHTO   C78 7777   4.334   7.202   1.372
   19CHTO  H150 7778   4.254   7.160   1.307
   19CHTO   C80 7779   4.416   7.304   1.291
   19CHTO  H152 7780   4.497   7.344   1.356
   19CHTO   O55 7781   4.477   7.233   1.182
   19CHTO  H134 7782   4.544   7.175   1.214
   19CHTO   C84 7783   4.325   7.422   1.240
   19CHTO  H156 7784   4.250   7.380   1.174
   19CHTO   N15 7785   4.400   7.526   1.161
   19CHTO  H143 7786   4.333   7.602   1.128
   19CHTO  H144 7787   4.476   7.570   1.222
   19CHTO   C87 7788   4.252   7.486   1.361
   19CHTO  H159 7789   4.324   7.536   1.426
   19CHTO   O53 7790   4.176   7.375   1.439
   19CHTO   C82 7791   4.265   7.274   1.490
   19CHTO  H154 7792   4.339   7.318   1.557
   19CHTO   C89 7793   4.182   7.175   1.575
   19CHTO   O59 7794   4.124   7.239   1.689
   19CHTO  H137 7795   4.191   7.262   1.750
   19CHTO   O45 7796   4.142   7.594   1.310
   19CHTO   C67 7797   4.086   7.672   1.417
   19CHTO  H124 7798   4.101   7.619   1.512
   19CHTO   C65 7799   4.153   7.813   1.427
   19CHTO  H122 7800   4.175   7.843   1.325
   19CHTO   O44 7801   4.277   7.793   1.497
   19CHTO  H102 7802   4.261   7.779   1.588
   19CHTO   C63 7803   4.054   7.925   1.481
   19CHTO  H120 7804   3.994   7.960   1.397
   19CHTO   N11 7805   4.117   8.053   1.527
   19CHTO  H108 7806   4.172   8.035   1.618
   19CHTO  H109 7807   4.042   8.127   1.545
   19CHTO   C61 7808   3.951   7.861   1.581
   19CHTO  H118 7809   3.880   7.942   1.606
   19CHTO   O40 7810   3.872   7.756   1.516
   19CHTO   C68 7811   3.930   7.686   1.401
   19CHTO  H125 7812   3.908   7.745   1.309
   19CHTO   C72 7813   3.862   7.548   1.384
   19CHTO   O48 7814   3.879   7.462   1.497
   19CHTO  H105 7815   3.836   7.380   1.481
   19CHTO   O38 7816   4.014   7.814   1.702
   19CHTO   C55 7817   3.940   7.725   1.789
   19CHTO  H112 7818   3.889   7.648   1.729
   19CHTO   C56 7819   3.838   7.804   1.882
   19CHTO  H113 7820   3.897   7.876   1.940
   19CHTO   O42 7821   3.746   7.880   1.802
   19CHTO  H100 7822   3.692   7.934   1.857
   19CHTO   C57 7823   3.761   7.704   1.977
   19CHTO  H114 7824   3.694   7.647   1.913
   19CHTO   N10 7825   3.676   7.771   2.079
   19CHTO  H106 7826   3.577   7.788   2.039
   19CHTO  H107 7827   3.719   7.865   2.109
   19CHTO   C58 7828   3.859   7.605   2.046
   19CHTO  H115 7829   3.911   7.657   2.131
   19CHTO   O37 7830   3.958   7.551   1.957
   19CHTO   C59 7831   4.036   7.646   1.882
   19CHTO  H116 7832   4.089   7.712   1.949
   19CHTO   C70 7833   4.138   7.564   1.801
   19CHTO   O46 7834   4.246   7.643   1.750
   19CHTO  H103 7835   4.300   7.674   1.821
   19CHTO   O39 7836   3.770   7.473   2.105
   19CHTO   C60 7837   3.745   7.372   2.006
   19CHTO  H117 7838   3.760   7.413   1.906
   19CHTO   C62 7839   3.845   7.254   2.025
   19CHTO  H119 7840   3.947   7.299   2.022
   19CHTO   O43 7841   3.827   7.193   2.154
   19CHTO  H101 7842   3.851   7.252   2.223
   19CHTO   C66 7843   3.830   7.151   1.903
   19CHTO  H123 7844   3.844   7.206   1.810
   19CHTO   N12 7845   3.932   7.044   1.904
   19CHTO  H110 7846   4.000   7.055   1.988
   19CHTO  H111 7847   3.987   7.043   1.811
   19CHTO   C69 7848   3.685   7.095   1.900
   19CHTO  H126 7849   3.668   7.029   1.988
   19CHTO   O41 7850   3.578   7.213   1.903
   19CHTO   C64 7851   3.600   7.319   2.012
   19CHTO  H121 7852   3.583   7.274   2.111
   19CHTO   C71 7853   3.497   7.432   1.994
   19CHTO   O47 7854   3.363   7.384   2.011
   19CHTO  H104 7855   3.349   7.361   2.101
   19CHTO   O34 7856   3.662   7.012   1.773
   19CHTO   C49 7857   3.604   7.020   1.631
   19CHTO   H91 7858   3.496   7.011   1.642
   19CHTO   C47 7859   3.658   6.899   1.552
   19CHTO   H89 7860   3.602   6.896   1.457
   19CHTO   O33 7861   3.628   6.780   1.627
   19CHTO   H70 7862   3.655   6.704   1.579
   19CHTO   C45 7863   3.815   6.922   1.524
   19CHTO   H87 7864   3.865   6.942   1.620
   19CHTO    N8 7865   3.880   6.802   1.464
   19CHTO   H75 7866   3.986   6.819   1.456
   19CHTO   H76 7867   3.839   6.784   1.366
   19CHTO   C43 7868   3.835   7.056   1.437
   19CHTO   H85 7869   3.943   7.069   1.428
   19CHTO   O29 7870   3.772   7.167   1.504
   19CHTO   C50 7871   3.639   7.153   1.558
   19CHTO   H92 7872   3.627   7.233   1.632
   19CHTO   C54 7873   3.531   7.187   1.452
   19CHTO   O36 7874   3.541   7.324   1.411
   19CHTO   H72 7875   3.474   7.342   1.347
   19CHTO   O27 7876   3.787   7.042   1.301
   19CHTO   C37 7877   3.819   7.086   1.167
   19CHTO   H79 7878   3.767   7.021   1.095
   19CHTO   C38 7879   3.767   7.231   1.142
   19CHTO   H80 7880   3.793   7.293   1.230
   19CHTO   O31 7881   3.623   7.223   1.134
   19CHTO   H68 7882   3.586   7.309   1.130
   19CHTO   C39 7883   3.826   7.298   1.011
   19CHTO   H81 7884   3.782   7.246   0.926
   19CHTO    N7 7885   3.788   7.443   0.998
   19CHTO   H73 7886   3.735   7.460   0.906
   19CHTO   H74 7887   3.875   7.507   1.004
   19CHTO   C40 7888   3.981   7.276   1.004
   19CHTO   H82 7889   4.030   7.332   1.084
   19CHTO   O26 7890   4.007   7.135   1.013
   19CHTO   C41 7891   3.972   7.077   1.142
   19CHTO   H83 7892   4.026   7.131   1.222
   19CHTO   C52 7893   4.024   6.931   1.141
   19CHTO   O35 7894   3.965   6.849   1.030
   19CHTO   H71 7895   4.000   6.762   1.034
   19CHTO   O28 7896   4.039   7.313   0.876
   19CHTO   C42 7897   4.166   7.387   0.868
   19CHTO   H84 7898   4.186   7.422   0.969
   19CHTO   C44 7899   4.164   7.515   0.778
   19CHTO   H86 7900   4.144   7.485   0.675
   19CHTO   O32 7901   4.054   7.597   0.823
   19CHTO   H69 7902   3.972   7.556   0.804
   19CHTO   C48 7903   4.301   7.594   0.782
   19CHTO   H90 7904   4.309   7.639   0.881
   19CHTO    N9 7905   4.303   7.709   0.685
   19CHTO   H77 7906   4.382   7.697   0.611
   19CHTO   H78 7907   4.316   7.803   0.738
   19CHTO   C51 7908   4.425   7.498   0.763
   19CHTO   H93 7909   4.432   7.470   0.657
   19CHTO   O30 7910   4.413   7.382   0.847
   19CHTO   C46 7911   4.289   7.301   0.824
   19CHTO   H88 7912   4.281   7.276   0.718
   19CHTO   C53 7913   4.304   7.171   0.907
   19CHTO   O72 7914   4.420   7.097   0.868
   19CHTO  H199 7915   4.408   7.062   0.782
   19CHTO   O22 7916   4.546   7.562   0.807
   19CHTO   C31 7917   4.679   7.510   0.767
   19CHTO   H59 7918   4.660   7.411   0.718
   19CHTO   C29 7919   4.751   7.598   0.663
   19CHTO   H57 7920   4.770   7.696   0.709
   19CHTO   O21 7921   4.662   7.620   0.552
   19CHTO   H37 7922   4.588   7.671   0.579
   19CHTO   C27 7923   4.889   7.534   0.619
   19CHTO   H55 7924   4.868   7.440   0.566
   19CHTO    N5 7925   4.967   7.622   0.528
   19CHTO   H43 7926   4.995   7.713   0.580
   19CHTO   H44 7927   5.054   7.571   0.492
   19CHTO   C25 7928   4.974   7.495   0.747
   19CHTO   H53 7929   5.009   7.586   0.797
   19CHTO   O17 7930   4.895   7.419   0.843
   19CHTO   C32 7931   4.774   7.483   0.887
   19CHTO   H60 7932   4.799   7.578   0.934
   19CHTO   C36 7933   4.711   7.391   0.994
   19CHTO   O25 7934   4.682   7.260   0.944
   19CHTO   H40 7935   4.762   7.214   0.928
   19CHTO   O15 7936   5.098   7.407   0.708
   19CHTO   C19 7937   5.142   7.306   0.613
   19CHTO   H47 7938   5.091   7.333   0.520
   19CHTO   C20 7939   5.296   7.308   0.589
   19CHTO   H48 7940   5.352   7.284   0.680
   19CHTO   O19 7941   5.330   7.442   0.548
   19CHTO   H35 7942   5.423   7.451   0.541
   19CHTO   C21 7943   5.338   7.202   0.478
   19CHTO   H49 7944   5.293   7.232   0.383
   19CHTO    N4 7945   5.485   7.196   0.453
   19CHTO   H41 7946   5.525   7.099   0.477
   19CHTO   H42 7947   5.537   7.271   0.511
   19CHTO   C22 7948   5.277   7.064   0.514
   19CHTO   H50 7949   5.330   7.023   0.600
   19CHTO   O14 7950   5.136   7.073   0.540
   19CHTO   C23 7951   5.098   7.160   0.647
   19CHTO   H51 7952   5.145   7.123   0.740
   19CHTO   C34 7953   4.946   7.149   0.663
   19CHTO   O23 7954   4.907   7.016   0.701
   19CHTO   H38 7955   4.814   7.013   0.711
   19CHTO   O16 7956   5.279   6.974   0.402
   19CHTO   C24 7957   5.366   6.841   0.416
   19CHTO   H52 7958   5.447   6.853   0.488
   19CHTO   C26 7959   5.424   6.811   0.277
   19CHTO   H54 7960   5.343   6.823   0.201
   19CHTO   O20 7961   5.524   6.910   0.248
   19CHTO   H36 7962   5.556   6.900   0.160
   19CHTO   C30 7963   5.480   6.665   0.263
   19CHTO   H58 7964   5.574   6.656   0.321
   19CHTO    N6 7965   5.515   6.635   0.122
   19CHTO   H45 7966   5.557   6.535   0.114
   19CHTO   H46 7967   5.427   6.640   0.059
   19CHTO   C33 7968   5.380   6.563   0.323
   19CHTO   H61 7969   5.286   6.566   0.264
   19CHTO   O18 7970   5.350   6.602   0.458
   19CHTO   C28 7971   5.277   6.724   0.467
   19CHTO   H56 7972   5.187   6.719   0.406
   19CHTO   C35 7973   5.233   6.742   0.615
   19CHTO   O24 7974   5.342   6.749   0.708
   19CHTO   H39 7975   5.390   6.829   0.694
   19CHTO    O9 7976   5.425   6.426   0.317
   19CHTO   C13 7977   5.302   6.316   0.296
   19CHTO   H26 7978   5.255   6.337   0.197
   19CHTO   C11 7979   5.196   6.328   0.414
   19CHTO   H24 7980   5.149   6.428   0.408
   19CHTO    O8 7981   5.264   6.318   0.541
   19CHTO    H3 7982   5.203   6.333   0.611
   19CHTO    C9 7983   5.087   6.220   0.391
   19CHTO   H22 7984   5.045   6.241   0.292
   19CHTO    N2 7985   4.970   6.236   0.482
   19CHTO   H10 7986   5.000   6.214   0.584
   19CHTO   H11 7987   4.890   6.171   0.451
   19CHTO    C7 7988   5.153   6.075   0.386
   19CHTO   H20 7989   5.119   6.036   0.287
   19CHTO    O4 7990   5.297   6.079   0.387
   19CHTO   C14 7991   5.355   6.165   0.287
   19CHTO   H27 7992   5.328   6.125   0.187
   19CHTO   C18 7993   5.510   6.156   0.299
   19CHTO   O13 7994   5.556   6.024   0.269
   19CHTO    H7 7995   5.650   6.023   0.272
   19CHTO    O2 7996   5.102   5.972   0.507
   19CHTO    C1 7997   5.067   5.838   0.466
   19CHTO   H14 7998   5.143   5.800   0.395
   19CHTO    C2 7999   4.923   5.826   0.398
   19CHTO   H15 8000   4.853   5.876   0.467
   19CHTO    O6 8001   4.925   5.897   0.273
   19CHTO    H1 8002   4.838   5.900   0.237
   19CHTO    C3 8003   4.882   5.672   0.378
   19CHTO   H16 8004   4.951   5.626   0.306
   19CHTO    N1 8005   4.743   5.659   0.321
   19CHTO    H8 8006   4.745   5.605   0.228
   19CHTO    H9 8007   4.677   5.609   0.391
   19CHTO    C4 8008   4.901   5.594   0.513
   19CHTO   H17 8009   4.831   5.633   0.586
   19CHTO    O1 8010   5.036   5.611   0.559
   19CHTO    C5 8011   5.073   5.746   0.592
   19CHTO   H18 8012   5.004   5.785   0.667
   19CHTO   C16 8013   5.214   5.737   0.654
   19CHTO   O11 8014   5.250   5.857   0.722
   19CHTO    H5 8015   5.337   5.849   0.757
   19CHTO    O3 8016   4.887   5.451   0.499
   19CHTO    C6 8017   4.810   5.381   0.604
   19CHTO   H19 8018   4.782   5.447   0.686
   19CHTO    C8 8019   4.679   5.323   0.541
   19CHTO   H21 8020   4.706   5.265   0.452
   19CHTO    O7 8021   4.595   5.433   0.502
   19CHTO    H2 8022   4.570   5.484   0.577
   19CHTO   C12 8023   4.602   5.228   0.642
   19CHTO   H25 8024   4.560   5.294   0.720
   19CHTO    N3 8025   4.486   5.159   0.576
   19CHTO   H12 8026   4.521   5.100   0.493
   19CHTO   H13 8027   4.414   5.232   0.544
   19CHTO   C15 8028   4.702   5.128   0.711
   19CHTO   H28 8029   4.735   5.049   0.642
   19CHTO   O10 8030   4.642   5.062   0.837
   19CHTO    H4 8031   4.569   5.009   0.814
   19CHTO    O5 8032   4.815   5.197   0.765
   19CHTO   C10 8033   4.894   5.265   0.666
   19CHTO   H23 8034   4.923   5.194   0.589
   19CHTO   C17 8035   5.021   5.310   0.740
   19CHTO   O12 8036   5.125   5.352   0.651
   19CHTO    H6 8037   5.100   5.432   0.608
   20CHTO  H203 8038   4.579   1.180   2.719
   20CHTO   O82 8039   4.630   1.239   2.667
   20CHTO  C123 8040   4.671   1.175   2.545
   20CHTO  H227 8041   4.581   1.144   2.490
   20CHTO   O77 8042   4.739   1.282   2.473
   20CHTO  C118 8043   4.782   1.245   2.342
   20CHTO  H222 8044   4.696   1.207   2.285
   20CHTO  C125 8045   4.837   1.374   2.269
   20CHTO   O84 8046   4.948   1.433   2.338
   20CHTO  H205 8047   4.919   1.469   2.420
   20CHTO  C114 8048   4.888   1.134   2.351
   20CHTO  H218 8049   4.974   1.172   2.406
   20CHTO  C116 8050   4.834   1.010   2.430
   20CHTO  H220 8051   4.758   0.958   2.367
   20CHTO   O79 8052   4.942   0.917   2.449
   20CHTO  H201 8053   4.969   0.881   2.366
   20CHTO  C120 8054   4.770   1.054   2.568
   20CHTO  H224 8055   4.854   1.086   2.633
   20CHTO   N21 8056   4.703   0.939   2.635
   20CHTO  H211 8057   4.600   0.931   2.604
   20CHTO  H212 8058   4.709   0.951   2.743
   20CHTO   O75 8059   4.924   1.103   2.215
   20CHTO  C112 8060   5.085   1.077   2.187
   20CHTO  H216 8061   5.116   0.986   2.240
   20CHTO   O73 8062   5.156   1.193   2.234
   20CHTO  C113 8063   5.296   1.195   2.203
   20CHTO  H217 8064   5.343   1.100   2.238
   20CHTO  C124 8065   5.363   1.310   2.279
   20CHTO   O83 8066   5.358   1.293   2.421
   20CHTO  H204 8067   5.412   1.220   2.446
   20CHTO  C109 8068   5.311   1.207   2.049
   20CHTO  H213 8069   5.251   1.294   2.018
   20CHTO  C110 8070   5.251   1.077   1.986
   20CHTO  H214 8071   5.311   0.992   2.017
   20CHTO   O78 8072   5.260   1.085   1.842
   20CHTO  H200 8073   5.350   1.083   1.815
   20CHTO  C111 8074   5.103   1.058   2.031
   20CHTO  H215 8075   5.042   1.135   1.982
   20CHTO   N19 8076   5.047   0.927   1.990
   20CHTO  H207 8077   5.105   0.846   2.032
   20CHTO  H208 8078   5.046   0.919   1.882
   20CHTO   O74 8079   5.450   1.227   2.008
   20CHTO  C115 8080   5.475   1.376   1.944
   20CHTO  H219 8081   5.408   1.450   1.987
   20CHTO   O76 8082   5.619   1.429   1.976
   20CHTO  C122 8083   5.722   1.359   1.906
   20CHTO  H226 8084   5.718   1.255   1.938
   20CHTO  C126 8085   5.860   1.413   1.954
   20CHTO   O85 8086   5.970   1.346   1.893
   20CHTO  H206 8087   6.051   1.382   1.925
   20CHTO  C121 8088   5.704   1.369   1.748
   20CHTO  H225 8089   5.786   1.433   1.707
   20CHTO   O81 8090   5.719   1.238   1.692
   20CHTO  H202 8091   5.723   1.243   1.598
   20CHTO  C119 8092   5.567   1.431   1.707
   20CHTO  H223 8093   5.572   1.537   1.737
   20CHTO  C117 8094   5.449   1.366   1.787
   20CHTO  H221 8095   5.435   1.260   1.768
   20CHTO   N20 8096   5.318   1.429   1.751
   20CHTO  H209 8097   5.318   1.534   1.777
   20CHTO  H210 8098   5.298   1.416   1.646
   20CHTO   O80 8099   5.547   1.443   1.549
   20CHTO  C103 8100   5.640   1.535   1.468
   20CHTO  H190 8101   5.702   1.595   1.534
   20CHTO  C101 8102   5.732   1.462   1.364
   20CHTO  H188 8103   5.670   1.395   1.304
   20CHTO   O68 8104   5.836   1.376   1.441
   20CHTO  H168 8105   5.885   1.324   1.380
   20CHTO   C99 8106   5.802   1.567   1.265
   20CHTO  H186 8107   5.874   1.628   1.324
   20CHTO   N17 8108   5.882   1.500   1.156
   20CHTO  H174 8109   5.852   1.535   1.058
   20CHTO  H175 8110   5.987   1.515   1.172
   20CHTO   C97 8111   5.698   1.667   1.209
   20CHTO  H184 8112   5.631   1.612   1.140
   20CHTO   O64 8113   5.624   1.728   1.317
   20CHTO  C104 8114   5.545   1.634   1.391
   20CHTO  H191 8115   5.478   1.577   1.326
   20CHTO  C108 8116   5.453   1.711   1.487
   20CHTO   O71 8117   5.361   1.795   1.417
   20CHTO  H171 8118   5.298   1.743   1.372
   20CHTO   O62 8119   5.762   1.776   1.138
   20CHTO   C91 8120   5.678   1.869   1.066
   20CHTO  H178 8121   5.577   1.865   1.108
   20CHTO   C92 8122   5.666   1.827   0.917
   20CHTO  H179 8123   5.768   1.822   0.873
   20CHTO   O66 8124   5.613   1.693   0.909
   20CHTO  H166 8125   5.675   1.632   0.945
   20CHTO   C93 8126   5.575   1.927   0.834
   20CHTO  H180 8127   5.472   1.910   0.868
   20CHTO   N16 8128   5.575   1.899   0.689
   20CHTO  H172 8129   5.476   1.874   0.655
   20CHTO  H173 8130   5.644   1.819   0.664
   20CHTO   C94 8131   5.613   2.078   0.861
   20CHTO  H181 8132   5.705   2.107   0.810
   20CHTO   O61 8133   5.633   2.102   1.002
   20CHTO   C95 8134   5.727   2.018   1.070
   20CHTO  H182 8135   5.824   2.027   1.022
   20CHTO  C106 8136   5.742   2.073   1.217
   20CHTO   O69 8137   5.844   2.005   1.290
   20CHTO  H169 8138   5.817   1.917   1.308
   20CHTO   O63 8139   5.486   2.178   0.819
   20CHTO   C96 8140   5.507   2.291   0.698
   20CHTO  H183 8141   5.411   2.341   0.686
   20CHTO   C98 8142   5.547   2.234   0.559
   20CHTO  H185 8143   5.639   2.174   0.568
   20CHTO   O67 8144   5.444   2.142   0.520
   20CHTO  H167 8145   5.445   2.066   0.574
   20CHTO  C102 8146   5.564   2.348   0.448
   20CHTO  H189 8147   5.462   2.383   0.426
   20CHTO   N18 8148   5.617   2.299   0.318
   20CHTO  H176 8149   5.716   2.258   0.332
   20CHTO  H177 8150   5.621   2.380   0.246
   20CHTO  C105 8151   5.645   2.469   0.502
   20CHTO  H192 8152   5.751   2.445   0.501
   20CHTO   O65 8153   5.609   2.507   0.637
   20CHTO  C100 8154   5.612   2.403   0.737
   20CHTO  H187 8155   5.713   2.360   0.741
   20CHTO  C107 8156   5.580   2.472   0.872
   20CHTO   O70 8157   5.604   2.388   0.985
   20CHTO  H170 8158   5.542   2.317   0.985
   20CHTO   O57 8159   5.609   2.592   0.396
   20CHTO   C85 8160   5.693   2.708   0.385
   20CHTO  H157 8161   5.757   2.712   0.476
   20CHTO   C83 8162   5.602   2.836   0.391
   20CHTO  H155 8163   5.550   2.836   0.486
   20CHTO   O56 8164   5.501   2.828   0.288
   20CHTO  H135 8165   5.440   2.899   0.297
   20CHTO   C81 8166   5.692   2.963   0.383
   20CHTO  H153 8167   5.764   2.958   0.464
   20CHTO   N14 8168   5.617   3.089   0.407
   20CHTO  H141 8169   5.647   3.134   0.500
   20CHTO  H142 8170   5.511   3.072   0.409
   20CHTO   C79 8171   5.772   2.964   0.247
   20CHTO  H151 8172   5.841   3.048   0.251
   20CHTO   O52 8173   5.853   2.842   0.236
   20CHTO   C86 8174   5.779   2.716   0.253
   20CHTO  H158 8175   5.714   2.711   0.163
   20CHTO   C90 8176   5.877   2.596   0.242
   20CHTO   O60 8177   5.938   2.589   0.113
   20CHTO  H138 8178   5.874   2.568   0.048
   20CHTO   O50 8179   5.690   2.979   0.129
   20CHTO   C73 8180   5.715   3.005   2.810
   20CHTO  H145 8181   5.808   2.954   2.779
   20CHTO   C74 8182   5.730   3.157   2.782
   20CHTO  H146 8183   5.813   3.194   0.025
   20CHTO   O54 8184   5.775   3.171   2.645
   20CHTO  H133 8185   5.790   3.262   2.625
   20CHTO   C75 8186   5.594   3.232   2.813
   20CHTO  H147 8187   5.578   3.229   0.102
   20CHTO   N13 8188   5.592   3.376   2.776
   20CHTO  H139 8189   5.686   3.406   2.734
   20CHTO  H140 8190   5.571   3.436   0.043
   20CHTO   C76 8191   5.469   3.156   2.747
   20CHTO  H148 8192   5.470   3.176   2.639
   20CHTO   O49 8193   5.474   3.011   2.767
   20CHTO   C77 8194   5.597   2.950   2.726
   20CHTO  H149 8195   5.616   2.972   2.620
   20CHTO   C88 8196   5.585   2.797   2.735
   20CHTO   O58 8197   5.486   2.748   2.640
   20CHTO  H136 8198   5.481   2.654   2.646
   20CHTO   O51 8199   5.325   3.208   2.818
   20CHTO   C78 8200   5.293   3.144   0.146
   20CHTO  H150 8201   5.383   3.095   0.189
   20CHTO   C80 8202   5.179   3.040   0.136
   20CHTO  H152 8203   5.091   3.089   0.088
   20CHTO   O55 8204   5.224   2.935   0.049
   20CHTO  H134 8205   5.154   2.875   0.032
   20CHTO   C84 8206   5.138   2.984   0.278
   20CHTO  H156 8207   5.223   2.927   0.316
   20CHTO   N15 8208   5.021   2.889   0.271
   20CHTO  H143 8209   4.937   2.926   0.327
   20CHTO  H144 8210   5.049   2.793   0.309
   20CHTO   C87 8211   5.111   3.102   0.376
   20CHTO  H159 8212   5.019   3.154   0.347
   20CHTO   O53 8213   5.229   3.199   0.373
   20CHTO   C82 8214   5.250   3.256   0.243
   20CHTO  H154 8215   5.159   3.305   0.208
   20CHTO   C89 8216   5.358   3.366   0.255
   20CHTO   O59 8217   5.314   3.472   0.341
   20CHTO  H137 8218   5.382   3.537   0.348
   20CHTO   O45 8219   5.092   3.051   0.530
   20CHTO   C67 8220   5.210   2.994   0.590
   20CHTO  H124 8221   5.292   2.987   0.518
   20CHTO   C65 8222   5.256   3.082   0.711
   20CHTO  H122 8223   5.257   3.185   0.673
   20CHTO   O44 8224   5.390   3.047   0.749
   20CHTO  H102 8225   5.392   2.960   0.786
   20CHTO   C63 8226   5.148   3.077   0.823
   20CHTO  H120 8227   5.053   3.112   0.782
   20CHTO   N11 8228   5.168   3.175   0.935
   20CHTO  H108 8229   5.083   3.176   0.999
   20CHTO  H109 8230   5.255   3.149   0.991
   20CHTO   C61 8231   5.123   2.928   0.870
   20CHTO  H118 8232   5.030   2.933   0.929
   20CHTO   O40 8233   5.098   2.838   0.759
   20CHTO   C68 8234   5.177   2.847   0.635
   20CHTO  H125 8235   5.114   2.804   0.555
   20CHTO   C72 8236   5.305   2.759   0.642
   20CHTO   O48 8237   5.277   2.619   0.642
   20CHTO  H105 8238   5.357   2.571   0.646
   20CHTO   O38 8239   5.230   2.872   0.951
   20CHTO   C55 8240   5.189   2.800   1.069
   20CHTO  H112 8241   5.079   2.792   1.073
   20CHTO   C56 8242   5.247   2.871   1.200
   20CHTO  H113 8243   5.355   2.886   1.182
   20CHTO   O42 8244   5.189   3.001   1.213
   20CHTO  H100 8245   5.215   3.057   1.142
   20CHTO   C57 8246   5.224   2.785   1.331
   20CHTO  H114 8247   5.117   2.788   1.352
   20CHTO   N10 8248   5.295   2.840   1.450
   20CHTO  H106 8249   5.320   2.761   1.520
   20CHTO  H107 8250   5.232   2.913   1.500
   20CHTO   C58 8251   5.265   2.638   1.305
   20CHTO  H115 8252   5.376   2.632   1.290
   20CHTO   O37 8253   5.198   2.588   1.188
   20CHTO   C59 8254   5.239   2.652   1.066
   20CHTO  H116 8255   5.347   2.648   1.056
   20CHTO   C70 8256   5.179   2.571   0.951
   20CHTO   O46 8257   5.035   2.567   0.950
   20CHTO  H103 8258   5.006   2.514   0.878
   20CHTO   O39 8259   5.223   2.539   1.437
   20CHTO   C60 8260   5.182   2.405   1.403
   20CHTO  H117 8261   5.102   2.411   1.329
   20CHTO   C62 8262   5.300   2.323   1.342
   20CHTO  H119 8263   5.338   2.381   1.255
   20CHTO   O43 8264   5.408   2.311   1.437
   20CHTO  H101 8265   5.380   2.262   1.512
   20CHTO   C66 8266   5.243   2.182   1.290
   20CHTO  H123 8267   5.162   2.202   1.219
   20CHTO   N12 8268   5.344   2.104   1.215
   20CHTO  H110 8269   5.311   2.086   1.114
   20CHTO  H111 8270   5.441   2.153   1.216
   20CHTO   C69 8271   5.181   2.102   1.408
   20CHTO  H126 8272   5.261   2.074   1.480
   20CHTO   O41 8273   5.072   2.192   1.484
   20CHTO   C64 8274   5.125   2.332   1.527
   20CHTO  H121 8275   5.205   2.320   1.602
   20CHTO   C71 8276   5.010   2.413   1.591
   20CHTO   O47 8277   4.966   2.353   1.713
   20CHTO  H104 8278   5.033   2.360   1.778
   20CHTO   O34 8279   5.111   1.969   1.357
   20CHTO   C49 8280   4.996   1.906   1.272
   20CHTO   H91 8281   4.908   1.903   1.336
   20CHTO   C47 8282   5.038   1.763   1.232
   20CHTO   H89 8283   4.951   1.717   1.181
   20CHTO   O33 8284   5.066   1.689   1.352
   20CHTO   H70 8285   4.987   1.674   1.401
   20CHTO   C45 8286   5.163   1.773   1.131
   20CHTO   H87 8287   5.242   1.832   1.181
   20CHTO    N8 8288   5.221   1.641   1.097
   20CHTO   H75 8289   5.228   1.628   0.990
   20CHTO   H76 8290   5.162   1.560   1.139
   20CHTO   C43 8291   5.122   1.861   1.002
   20CHTO   H85 8292   5.215   1.875   0.946
   20CHTO   O29 8293   5.065   1.988   1.042
   20CHTO   C50 8294   4.964   1.990   1.145
   20CHTO   H92 8295   4.954   2.094   1.178
   20CHTO   C54 8296   4.823   1.957   1.089
   20CHTO   O36 8297   4.782   2.053   0.991
   20CHTO   H72 8298   4.696   2.031   0.960
   20CHTO   O27 8299   5.031   1.794   0.913
   20CHTO   C37 8300   5.025   1.785   0.769
   20CHTO   H79 8301   4.924   1.753   0.738
   20CHTO   C38 8302   5.051   1.923   0.700
   20CHTO   H80 8303   5.140   1.969   0.747
   20CHTO   O31 8304   4.937   2.007   0.727
   20CHTO   H68 8305   4.953   2.094   0.696
   20CHTO   C39 8306   5.077   1.909   0.544
   20CHTO   H81 8307   4.984   1.875   0.498
   20CHTO    N7 8308   5.115   2.039   0.478
   20CHTO   H73 8309   5.119   2.120   0.549
   20CHTO   H74 8310   5.045   2.062   0.399
   20CHTO   C40 8311   5.186   1.798   0.520
   20CHTO   H82 8312   5.280   1.829   0.565
   20CHTO   O26 8313   5.137   1.675   0.576
   20CHTO   C41 8314   5.127   1.678   0.721
   20CHTO   H83 8315   5.226   1.699   0.764
   20CHTO   C52 8316   5.085   1.536   0.767
   20CHTO   O35 8317   5.189   1.436   0.738
   20CHTO   H71 8318   5.159   1.352   0.764
   20CHTO   O28 8319   5.209   1.766   0.381
   20CHTO   C42 8320   5.340   1.713   0.338
   20CHTO   H84 8321   5.320   1.674   0.239
   20CHTO   C44 8322   5.398   1.594   0.421
   20CHTO   H86 8323   5.411   1.626   0.525
   20CHTO   O32 8324   5.299   1.489   0.417
   20CHTO   H69 8325   5.325   1.418   0.473
   20CHTO   C48 8326   5.539   1.545   0.366
   20CHTO   H90 8327   5.524   1.504   0.267
   20CHTO    N9 8328   5.597   1.434   0.449
   20CHTO   H77 8329   5.691   1.402   0.407
   20CHTO   H78 8330   5.610   1.466   0.551
   20CHTO   C51 8331   5.636   1.668   0.355
   20CHTO   H93 8332   5.655   1.706   0.456
   20CHTO   O30 8333   5.578   1.768   0.270
   20CHTO   C46 8334   5.447   1.826   0.323
   20CHTO   H88 8335   5.466   1.871   0.420
   20CHTO   C53 8336   5.401   1.936   0.224
   20CHTO   O72 8337   5.382   1.885   0.091
   20CHTO  H199 8338   5.356   1.955   0.034
   20CHTO   O22 8339   5.759   1.634   0.287
   20CHTO   C31 8340   5.897   1.655   0.335
   20CHTO   H59 8341   5.950   1.709   0.253
   20CHTO   C29 8342   5.917   1.739   0.464
   20CHTO   H57 8343   5.862   1.689   0.545
   20CHTO   O21 8344   5.856   1.868   0.444
   20CHTO   H37 8345   5.763   1.859   0.436
   20CHTO   C27 8346   6.069   1.752   0.504
   20CHTO   H55 8347   6.119   1.817   0.430
   20CHTO    N5 8348   6.088   1.812   0.639
   20CHTO   H43 8349   6.045   1.748   0.715
   20CHTO   H44 8350   6.042   1.910   0.643
   20CHTO   C25 8351   6.143   1.614   0.495
   20CHTO   H53 8352   6.109   1.549   0.577
   20CHTO   O17 8353   6.113   1.547   0.369
   20CHTO   C32 8354   5.973   1.520   0.352
   20CHTO   H60 8355   5.934   1.468   0.439
   20CHTO   C36 8356   5.957   1.428   0.229
   20CHTO   O25 8357   6.017   1.300   0.253
   20CHTO   H40 8358   6.008   1.246   0.177
   20CHTO   O15 8359   6.305   1.631   0.506
   20CHTO   C19 8360   6.418   1.576   0.431
   20CHTO   H47 8361   6.379   1.565   0.329
   20CHTO   C20 8362   6.544   1.667   0.429
   20CHTO   H48 8363   6.583   1.687   0.530
   20CHTO   O19 8364   6.503   1.793   0.372
   20CHTO   H35 8365   6.573   1.855   0.376
   20CHTO   C21 8366   6.662   1.604   0.343
   20CHTO   H49 8367   6.630   1.600   0.238
   20CHTO    N4 8368   6.787   1.684   0.346
   20CHTO   H41 8369   6.768   1.783   0.308
   20CHTO   H42 8370   6.863   1.636   0.285
   20CHTO   C22 8371   6.685   1.457   0.388
   20CHTO   H50 8372   6.728   1.457   0.488
   20CHTO   O14 8373   6.562   1.383   0.388
   20CHTO   C23 8374   6.460   1.433   0.477
   20CHTO   H51 8375   6.502   1.433   0.578
   20CHTO   C34 8376   6.344   1.333   0.475
   20CHTO   O23 8377   6.382   1.207   0.533
   20CHTO   H38 8378   6.444   1.164   0.478
   20CHTO   O16 8379   6.768   1.385   0.295
   20CHTO   C24 8380   6.851   1.265   0.364
   20CHTO   H52 8381   6.825   1.255   0.470
   20CHTO   C26 8382   7.002   1.293   0.350
   20CHTO   H54 8383   7.025   1.304   0.241
   20CHTO   O20 8384   7.031   1.417   0.416
   20CHTO   H36 8385   7.121   1.441   0.401
   20CHTO   C30 8386   7.086   1.174   0.407
   20CHTO   H58 8387   7.076   1.172   0.517
   20CHTO    N6 8388   7.231   1.192   0.381
   20CHTO   H45 8389   7.287   1.110   0.425
   20CHTO   H46 8390   7.249   1.194   0.274
   20CHTO   C33 8391   7.033   1.036   0.356
   20CHTO   H61 8392   7.059   1.023   0.250
   20CHTO   O18 8393   6.890   1.030   0.369
   20CHTO   C28 8394   6.818   1.130   0.296
   20CHTO   H56 8395   6.851   1.134   0.192
   20CHTO   C35 8396   6.668   1.096   0.300
   20CHTO   O24 8397   6.639   0.972   0.234
   20CHTO   H39 8398   6.547   0.956   0.237
   20CHTO    O9 8399   7.097   0.927   0.425
   20CHTO   C13 8400   7.035   0.766   0.423
   20CHTO   H26 8401   7.116   0.703   0.465
   20CHTO   C11 8402   6.992   0.715   0.278
   20CHTO   H24 8403   7.084   0.697   0.220
   20CHTO    O8 8404   6.914   0.812   0.207
   20CHTO    H3 8405   6.899   0.784   0.118
   20CHTO    C9 8406   6.914   0.581   0.295
   20CHTO   H22 8407   6.979   0.518   0.357
   20CHTO    N2 8408   6.898   0.505   0.169
   20CHTO   H10 8409   6.930   0.563   0.083
   20CHTO   H11 8410   6.952   0.411   0.174
   20CHTO    C7 8411   6.781   0.609   0.377
   20CHTO   H20 8412   6.772   0.520   0.442
   20CHTO    O4 8413   6.788   0.727   0.460
   20CHTO   C14 8414   6.915   0.744   0.527
   20CHTO   H27 8415   6.935   0.651   0.583
   20CHTO   C18 8416   6.905   0.858   0.632
   20CHTO   O13 8417   6.807   0.831   0.732
   20CHTO    H7 8418   6.835   0.760   0.786
   20CHTO    O2 8419   6.644   0.621   0.281
   20CHTO    C1 8420   6.535   0.539   0.327
   20CHTO   H14 8421   6.535   0.535   0.438
   20CHTO    C2 8422   6.538   0.391   0.270
   20CHTO   H15 8423   6.541   0.400   0.160
   20CHTO    O6 8424   6.656   0.324   0.315
   20CHTO    H1 8425   6.663   0.239   0.275
   20CHTO    C3 8426   6.406   0.309   0.314
   20CHTO   H16 8427   6.414   0.290   0.422
   20CHTO    N1 8428   6.395   0.176   0.246
   20CHTO    H8 8429   6.393   0.096   0.319
   20CHTO    H9 8430   6.477   0.160   0.177
   20CHTO    C4 8431   6.275   0.395   0.296
   20CHTO   H17 8432   6.249   0.399   0.190
   20CHTO    O1 8433   6.291   0.529   0.346
   20CHTO    C5 8434   6.399   0.602   0.285
   20CHTO   H18 8435   6.391   0.595   0.176
   20CHTO   C16 8436   6.387   0.751   0.325
   20CHTO   O11 8437   6.269   0.811   0.270
   20CHTO    H5 8438   6.193   0.775   0.312
   20CHTO    O3 8439   6.167   0.338   0.373
   20CHTO    C6 8440   6.032   0.380   0.337
   20CHTO   H19 8441   6.031   0.475   0.282
   20CHTO    C8 8442   5.961   0.272   0.249
   20CHTO   H21 8443   5.966   0.176   0.302
   20CHTO    O7 8444   6.034   0.263   0.125
   20CHTO    H2 8445   6.000   0.193   0.073
   20CHTO   C12 8446   5.809   0.310   0.226
   20CHTO   H25 8447   5.809   0.403   0.165
   20CHTO    N3 8448   5.736   0.206   0.144
   20CHTO   H12 8449   5.801   0.125   0.118
   20CHTO   H13 8450   5.649   0.169   0.197
   20CHTO   C15 8451   5.741   0.341   0.364
   20CHTO   H28 8452   5.730   0.251   0.425
   20CHTO   O10 8453   5.601   0.409   0.349
   20CHTO    H4 8454   5.560   0.418   0.433
   20CHTO    O5 8455   5.815   0.440   0.436
   20CHTO   C10 8456   5.950   0.403   0.467
   20CHTO   H23 8457   5.949   0.311   0.526
   20CHTO   C17 8458   6.011   0.514   0.554
   20CHTO   O12 8459   5.942   0.526   0.679
   20CHTO    H6 8460   5.959   0.451   0.733
   21GLOH   H03 8461   0.436   4.030   1.688
   21GLOH    O1 8462   0.459   4.101   1.753
   21GLOH    C1 8463   0.353   4.199   1.757
   21GLOH   H02 8464   0.366   4.273   1.678
   21GLOH   H08 8465   0.356   4.254   1.852
   21GLOH    C2 8466   0.211   4.139   1.742
   21GLOH   H04 8467   0.138   4.220   1.754
   21GLOH    O2 8468   0.196   4.079   1.612
   21GLOH   H05 8469   0.107   4.102   1.572
   21GLOH    C3 8470   0.187   4.034   1.853
   21GLOH   H06 8471   0.261   3.954   1.841
   21GLOH   H07 8472   0.090   3.989   1.835
   21GLOH    O3 8473   0.193   4.087   1.987
   21GLOH   H01 8474   0.170   4.009   2.045
   22GLOH   H03 8475   0.416   0.433   1.809
   22GLOH    O1 8476   0.436   0.395   1.899
   22GLOH    C1 8477   0.575   0.356   1.898
   22GLOH   H02 8478   0.635   0.434   1.852
   22GLOH   H08 8479   0.588   0.266   1.838
   22GLOH    C2 8480   0.629   0.329   2.040
   22GLOH   H04 8481   0.571   0.246   2.083
   22GLOH    O2 8482   0.768   0.291   2.034
   22GLOH   H05 8483   0.813   0.336   1.957
   22GLOH    C3 8484   0.610   0.453   2.129
   22GLOH   H06 8485   0.678   0.531   2.095
   22GLOH   H07 8486   0.640   0.427   2.231
   22GLOH    O3 8487   0.474   0.499   2.127
   22GLOH   H01 8488   0.435   0.459   2.044
   23GLOH   H03 8489   3.441   5.623   2.510
   23GLOH    O1 8490   3.505   5.670   2.569
   23GLOH    C1 8491   3.464   5.662   2.707
   23GLOH   H02 8492   3.538   5.710   2.771
   23GLOH   H08 8493   3.459   5.558   2.738
   23GLOH    C2 8494   3.327   5.728   2.733
   23GLOH   H04 8495   3.251   5.674   2.676
   23GLOH    O2 8496   3.293   5.721   0.053
   23GLOH   H05 8497   3.258   5.633   0.075
   23GLOH    C3 8498   3.328   5.874   2.684
   23GLOH   H06 8499   3.398   5.931   2.745
   23GLOH   H07 8500   3.229   5.917   2.701
   23GLOH    O3 8501   3.364   5.881   2.545
   23GLOH   H01 8502   3.445   5.825   2.537
   24GLOH   H03 8503   8.891   1.138   1.678
   24GLOH    O1 8504   8.932   1.208   1.621
   24GLOH    C1 8505   9.051   1.258   1.685
   24GLOH   H02 8506   9.103   1.177   1.735
   24GLOH   H08 8507   9.025   1.331   1.761
   24GLOH    C2 8508   9.150   1.325   1.587
   24GLOH   H04 8509   9.231   1.368   1.646
   24GLOH    O2 8510   9.206   1.228   1.494
   24GLOH   H05 8511   9.136   1.202   1.427
   24GLOH    C3 8512   9.083   1.440   1.510
   24GLOH   H06 8513   9.002   1.400   1.448
   24GLOH   H07 8514   9.156   1.482   1.441
   24GLOH    O3 8515   9.033   1.543   1.596
   24GLOH   H01 8516   8.946   1.514   1.636
   25GLOH   H03 8517   1.928   5.906   1.525
   25GLOH    O1 8518   1.846   5.852   1.541
   25GLOH    C1 8519   1.827   5.853   1.684
   25GLOH   H02 8520   1.721   5.849   1.708
   25GLOH   H08 8521   1.866   5.944   1.728
   25GLOH    C2 8522   1.897   5.732   1.748
   25GLOH   H04 8523   1.994   5.717   1.698
   25GLOH    O2 8524   1.918   5.750   1.889
   25GLOH   H05 8525   1.951   5.842   1.911
   25GLOH    C3 8526   1.810   5.606   1.725
   25GLOH   H06 8527   1.714   5.621   1.774
   25GLOH   H07 8528   1.858   5.521   1.773
   25GLOH    O3 8529   1.790   5.580   1.585
   25GLOH   H01 8530   1.822   5.660   1.536
   26GLOH   H03 8531   0.615   2.905   1.753
   26GLOH    O1 8532   0.596   2.817   1.794
   26GLOH    C1 8533   0.484   2.761   1.724
   26GLOH   H02 8534   0.403   2.833   1.717
   26GLOH   H08 8535   0.445   2.675   1.778
   26GLOH    C2 8536   0.519   2.714   1.581
   26GLOH   H04 8537   0.424   2.691   1.532
   26GLOH    O2 8538   0.585   2.817   1.504
   26GLOH   H05 8539   0.516   2.863   1.447
   26GLOH    C3 8540   0.602   2.585   1.584
   26GLOH   H06 8541   0.686   2.598   1.652
   26GLOH   H07 8542   0.646   2.569   1.485
   26GLOH    O3 8543   0.523   2.471   1.622
   26GLOH   H01 8544   0.534   2.458   1.720
   27GLOH   H03 8545   3.116   5.872   0.696
   27GLOH    O1 8546   3.056   5.943   0.660
   27GLOH    C1 8547   3.117   5.986   0.537
   27GLOH   H02 8548   3.193   6.062   0.557
   27GLOH   H08 8549   3.042   6.032   0.472
   27GLOH    C2 8550   3.183   5.869   0.461
   27GLOH   H04 8551   3.105   5.797   0.435
   27GLOH    O2 8552   3.246   5.918   0.341
   27GLOH   H05 8553   3.252   5.847   0.274
   27GLOH    C3 8554   3.285   5.799   0.553
   27GLOH   H06 8555   3.370   5.866   0.567
   27GLOH   H07 8556   3.323   5.711   0.501
   27GLOH    O3 8557   3.230   5.762   0.681
   27GLOH   H01 8558   3.279   5.683   0.715
   28GLOH   H03 8559   9.370   3.975   0.572
   28GLOH    O1 8560   9.325   4.040   0.513
   28GLOH    C1 8561   9.293   4.156   0.591
   28GLOH   H02 8562   9.351   4.154   0.683
   28GLOH   H08 8563   9.188   4.154   0.621
   28GLOH    C2 8564   9.319   4.291   0.520
   28GLOH   H04 8565   9.415   4.283   0.466
   28GLOH    O2 8566   9.215   4.322   0.426
   28GLOH   H05 8567   9.219   4.418   0.401
   28GLOH    C3 8568   9.332   4.406   0.622
   28GLOH   H06 8569   9.234   4.423   0.667
   28GLOH   H07 8570   9.358   4.497   0.568
   28GLOH    O3 8571   9.429   4.382   0.725
   28GLOH   H01 8572   9.385   4.330   0.798
   29GLOH   H03 8573   9.191   6.948   1.465
   29GLOH    O1 8574   9.257   6.963   1.538
   29GLOH    C1 8575   9.336   7.081   1.511
   29GLOH   H02 8576   9.345   7.098   1.404
   29GLOH   H08 8577   9.438   7.068   1.549
   29GLOH    C2 8578   9.277   7.208   1.575
   29GLOH   H04 8579   9.253   7.187   1.680
   29GLOH    O2 8580   9.372   7.317   1.570
   29GLOH   H05 8581   9.335   7.390   1.629
   29GLOH    C3 8582   9.146   7.246   1.502
   29GLOH   H06 8583   9.075   7.165   1.517
   29GLOH   H07 8584   9.166   7.251   1.395
   29GLOH    O3 8585   9.087   7.370   1.546
   29GLOH   H01 8586   9.144   7.410   1.617
   30GLOH   H03 8587   4.289   8.891   1.721
   30GLOH    O1 8588   4.273   8.806   1.770
   30GLOH    C1 8589   4.220   8.837   1.900
   30GLOH   H02 8590   4.266   8.928   1.939
   30GLOH   H08 8591   4.244   8.757   1.970
   30GLOH    C2 8592   4.066   8.855   1.899
   30GLOH   H04 8593   4.023   8.757   1.873
   30GLOH    O2 8594   4.018   8.892   2.030
   30GLOH   H05 8595   3.925   8.929   2.022
   30GLOH    C3 8596   4.021   8.954   1.790
   30GLOH   H06 8597   3.914   8.969   1.799
   30GLOH   H07 8598   4.038   8.907   1.693
   30GLOH    O3 8599   4.090   9.081   1.795
   30GLOH   H01 8600   4.168   9.072   1.733
   31GLOH   H03 8601   0.084   8.529   1.893
   31GLOH    O1 8602   0.056   8.583   1.972
   31GLOH    C1 8603   9.961   8.683   1.933
   31GLOH   H02 8604   9.894   8.645   1.856
   31GLOH   H08 8605   0.011   8.770   1.892
   31GLOH    C2 8606   9.877   8.728   2.054
   31GLOH   H04 8607   9.945   8.766   2.131
   31GLOH    O2 8608   9.786   8.833   2.014
   31GLOH   H05 8609   9.762   8.886   2.096
   31GLOH    C3 8610   9.800   8.607   2.112
   31GLOH   H06 8611   9.871   8.527   2.131
   31GLOH   H07 8612   9.732   8.570   2.035
   31GLOH    O3 8613   9.728   8.638   2.232
   31GLOH   H01 8614   9.790   8.638   2.307
   32GLOH   H03 8615   8.852   3.656   1.192
   32GLOH    O1 8616   8.908   3.685   1.116
   32GLOH    C1 8617   8.880   3.592   1.010
   32GLOH   H02 8618   8.959   3.592   0.936
   32GLOH   H08 8619   8.788   3.620   0.958
   32GLOH    C2 8620   8.863   3.448   1.062
   32GLOH   H04 8621   8.837   3.384   0.976
   32GLOH    O2 8622   8.984   3.396   1.123
   32GLOH   H05 8623   9.063   3.412   1.063
   32GLOH    C3 8624   8.745   3.443   1.161
   32GLOH   H06 8625   8.743   3.344   1.206
   32GLOH   H07 8626   8.653   3.454   1.104
   32GLOH    O3 8627   8.753   3.544   1.264
   32GLOH   H01 8628   8.729   3.500   1.349
   33GLOH   H03 8629   0.389   7.118   1.485
   33GLOH    O1 8630   0.418   7.204   1.442
   33GLOH    C1 8631   0.419   7.306   1.543
   33GLOH   H02 8632   0.319   7.320   1.584
   33GLOH   H08 8633   0.449   7.401   1.500
   33GLOH    C2 8634   0.515   7.273   1.660
   33GLOH   H04 8635   0.485   7.175   1.700
   33GLOH    O2 8636   0.653   7.265   1.619
   33GLOH   H05 8637   0.662   7.194   1.548
   33GLOH    C3 8638   0.495   7.378   1.772
   33GLOH   H06 8639   0.479   7.475   1.727
   33GLOH   H07 8640   0.587   7.386   1.830
   33GLOH    O3 8641   0.385   7.344   1.858
   33GLOH   H01 8642   0.419   7.271   1.917
   34GLOH   H03 8643   3.287   1.976   1.931
   34GLOH    O1 8644   3.335   2.052   1.890
   34GLOH    C1 8645   3.455   2.080   1.964
   34GLOH   H02 8646   3.500   2.172   1.928
   34GLOH   H08 8647   3.528   2.001   1.946
   34GLOH    C2 8648   3.434   2.093   2.116
   34GLOH   H04 8649   3.381   2.004   2.151
   34GLOH    O2 8650   3.563   2.100   2.182
   34GLOH   H05 8651   3.612   2.014   2.168
   34GLOH    C3 8652   3.351   2.217   2.151
   34GLOH   H06 8653   3.403   2.305   2.114
   34GLOH   H07 8654   3.349   2.227   2.260
   34GLOH    O3 8655   3.216   2.213   2.100
   34GLOH   H01 8656   3.164   2.149   2.156
   35GLOH   H03 8657   8.167   1.544   1.427
   35GLOH    O1 8658   8.166   1.478   1.502
   35GLOH    C1 8659   8.156   1.552   1.626
   35GLOH   H02 8660   8.137   1.484   1.709
   35GLOH   H08 8661   8.071   1.621   1.622
   35GLOH    C2 8662   8.283   1.633   1.656
   35GLOH   H04 8663   8.299   1.704   1.574
   35GLOH    O2 8664   8.269   1.706   1.779
   35GLOH   H05 8665   8.336   1.779   1.781
   35GLOH    C3 8666   8.405   1.539   1.663
   35GLOH   H06 8667   8.391   1.470   1.747
   35GLOH   H07 8668   8.494   1.598   1.686
   35GLOH    O3 8669   8.423   1.466   1.541
   35GLOH   H01 8670   8.332   1.449   1.506
   36GLOH   H03 8671   1.284   0.836   1.858
   36GLOH    O1 8672   1.191   0.841   1.825
   36GLOH    C1 8673   1.157   0.711   1.771
   36GLOH   H02 8674   1.102   0.653   1.844
   36GLOH   H08 8675   1.248   0.654   1.749
   36GLOH    C2 8676   1.072   0.718   1.643
   36GLOH   H04 8677   1.116   0.794   1.576
   36GLOH    O2 8678   1.073   0.591   1.574
   36GLOH   H05 8679   0.995   0.586   1.511
   36GLOH    C3 8680   0.929   0.763   1.678
   36GLOH   H06 8681   0.873   0.777   1.585
   36GLOH   H07 8682   0.935   0.861   1.725
   36GLOH    O3 8683   0.858   0.672   1.765
   36GLOH   H01 8684   0.817   0.728   1.836
   37GLOH   H03 8685   2.147   5.074   0.858
   37GLOH    O1 8686   2.066   5.066   0.801
   37GLOH    C1 8687   2.026   5.199   0.764
   37GLOH   H02 8688   2.100   5.244   0.697
   37GLOH   H08 8689   2.021   5.264   0.852
   37GLOH    C2 8690   1.889   5.200   0.695
   37GLOH   H04 8691   1.893   5.131   0.609
   37GLOH    O2 8692   1.785   5.155   0.785
   37GLOH   H05 8693   1.821   5.077   0.837
   37GLOH    C3 8694   1.856   5.341   0.642
   37GLOH   H06 8695   1.848   5.409   0.726
   37GLOH   H07 8696   1.757   5.337   0.596
   37GLOH    O3 8697   1.953   5.389   0.547
   37GLOH   H01 8698   1.940   5.339   0.462
   38GLOH   H03 8699   9.668   7.390   1.982
   38GLOH    O1 8700   9.668   7.479   1.939
   38GLOH    C1 8701   9.646   7.578   2.041
   38GLOH   H02 8702   9.553   7.557   2.095
   38GLOH   H08 8703   9.633   7.676   1.995
   38GLOH    C2 8704   9.760   7.586   2.144
   38GLOH   H04 8705   9.741   7.673   2.209
   38GLOH    O2 8706   9.769   7.468   2.226
   38GLOH   H05 8707   9.737   7.388   2.175
   38GLOH    C3 8708   9.895   7.609   2.074
   38GLOH   H06 8709   9.916   7.523   2.010
   38GLOH   H07 8710   9.973   7.610   2.151
   38GLOH    O3 8711   9.900   7.730   1.998
   38GLOH   H01 8712   9.994   7.741   1.969
   39GLOH   H03 8713   9.321   4.759   1.666
   39GLOH    O1 8714   9.274   4.671   1.653
   39GLOH    C1 8715   9.320   4.614   1.529
   39GLOH   H02 8716   9.324   4.691   1.452
   39GLOH   H08 8717   9.249   4.540   1.494
   39GLOH    C2 8718   9.459   4.549   1.539
   39GLOH   H04 8719   9.532   4.626   1.567
   39GLOH    O2 8720   9.461   4.444   1.639
   39GLOH   H05 8721   9.371   4.400   1.641
   39GLOH    C3 8722   9.501   4.489   1.404
   39GLOH   H06 8723   9.441   4.400   1.385
   39GLOH   H07 8724   9.604   4.454   1.413
   39GLOH    O3 8725   9.490   4.581   1.295
   39GLOH   H01 8726   9.462   4.528   1.216
   40GLOH   H03 8727   4.060   1.729   1.915
   40GLOH    O1 8728   4.032   1.676   1.835
   40GLOH    C1 8729   4.000   1.544   1.883
   40GLOH   H02 8730   3.922   1.549   1.959
   40GLOH   H08 8731   4.088   1.499   1.930
   40GLOH    C2 8732   3.953   1.447   1.773
   40GLOH   H04 8733   4.036   1.434   1.701
   40GLOH    O2 8734   3.923   1.318   1.832
   40GLOH   H05 8735   3.829   1.317   1.868
   40GLOH    C3 8736   3.832   1.504   1.697
   40GLOH   H06 8737   3.753   1.525   1.769
   40GLOH   H07 8738   3.794   1.427   1.630
   40GLOH    O3 8739   3.864   1.622   1.622
   40GLOH   H01 8740   3.915   1.682   1.682
   41GLOH   H03 8741   2.779   7.937   1.827
   41GLOH    O1 8742   2.719   7.988   1.767
   41GLOH    C1 8743   2.788   8.111   1.738
   41GLOH   H02 8744   2.886   8.090   1.695
   41GLOH   H08 8745   2.806   8.166   1.829
   41GLOH    C2 8746   2.712   8.203   1.642
   41GLOH   H04 8747   2.616   8.230   1.689
   41GLOH    O2 8748   2.788   8.324   1.621
   41GLOH   H05 8749   2.775   8.383   1.701
   41GLOH    C3 8750   2.681   8.132   1.509
   41GLOH   H06 8751   2.627   8.040   1.531
   41GLOH   H07 8752   2.776   8.103   1.463
   41GLOH    O3 8753   2.605   8.215   1.419
   41GLOH   H01 8754   2.670   8.280   1.380
   42GLOH   H03 8755   3.313   7.684   0.296
   42GLOH    O1 8756   3.357   7.685   0.208
   42GLOH    C1 8757   3.472   7.772   0.212
   42GLOH   H02 8758   3.532   7.752   0.301
   42GLOH   H08 8759   3.440   7.876   0.219
   42GLOH    C2 8760   3.563   7.759   0.087
   42GLOH   H04 8761   3.610   7.857   0.070
   42GLOH    O2 8762   3.668   7.661   0.107
   42GLOH   H05 8763   3.634   7.585   0.163
   42GLOH    C3 8764   3.482   7.723   2.782
   42GLOH   H06 8765   3.462   7.616   2.782
   42GLOH   H07 8766   3.543   7.744   2.694
   42GLOH    O3 8767   3.359   7.797   2.775
   42GLOH   H01 8768   3.309   7.771   0.036
   43GLOH   H03 8769   2.152   1.822   1.897
   43GLOH    O1 8770   2.144   1.747   1.961
   43GLOH    C1 8771   2.179   1.799   2.090
   43GLOH   H02 8772   2.156   1.905   2.096
   43GLOH   H08 8773   2.286   1.790   2.107
   43GLOH    C2 8774   2.106   1.728   2.206
   43GLOH   H04 8775   2.141   1.774   2.300
   43GLOH    O2 8776   1.963   1.748   2.197
   43GLOH   H05 8777   1.923   1.690   2.127
   43GLOH    C3 8778   2.144   1.579   2.210
   43GLOH   H06 8779   2.109   1.533   2.119
   43GLOH   H07 8780   2.090   1.533   2.292
   43GLOH    O3 8781   2.286   1.557   2.226
   43GLOH   H01 8782   2.305   1.461   2.208
   44GLOH   H03 8783   2.494   4.681   2.489
   44GLOH    O1 8784   2.493   4.672   2.588
   44GLOH    C1 8785   2.435   4.544   2.619
   44GLOH   H02 8786   2.356   4.520   2.547
   44GLOH   H08 8787   2.388   4.547   2.717
   44GLOH    C2 8788   2.540   4.432   2.618
   44GLOH   H04 8789   2.593   4.434   2.522
   44GLOH    O2 8790   2.634   4.452   2.725
   44GLOH   H05 8791   2.659   4.547   2.722
   44GLOH    C3 8792   2.471   4.295   2.632
   44GLOH   H06 8793   2.413   4.294   2.724
   44GLOH   H07 8794   2.549   4.218   2.642
   44GLOH    O3 8795   2.387   4.265   2.518
   44GLOH   H01 8796   2.317   4.204   2.546
   45GLOH   H03 8797   0.062   4.852   2.762
   45GLOH    O1 8798   0.002   4.924   2.733
   45GLOH    C1 8799   0.076   5.047   2.736
   45GLOH   H02 8800   0.095   5.077   0.019
   45GLOH   H08 8801   0.017   5.127   2.690
   45GLOH    C2 8802   0.211   5.038   2.662
   45GLOH   H04 8803   0.261   5.136   2.670
   45GLOH    O2 8804   0.295   4.937   2.722
   45GLOH   H05 8805   0.365   4.916   2.657
   45GLOH    C3 8806   0.190   5.007   2.513
   45GLOH   H06 8807   0.128   5.086   2.470
   45GLOH   H07 8808   0.134   4.914   2.503
   45GLOH    O3 8809   0.315   4.997   2.441
   45GLOH   H01 8810   0.298   4.942   2.360
   46GLOH   H03 8811   3.656   8.284   0.417
   46GLOH    O1 8812   3.620   8.195   0.439
   46GLOH    C1 8813   3.487   8.181   0.386
   46GLOH   H02 8814   3.439   8.094   0.430
   46GLOH   H08 8815   3.490   8.165   0.279
   46GLOH    C2 8816   3.398   8.305   0.414
   46GLOH   H04 8817   3.412   8.334   0.519
   46GLOH    O2 8818   3.438   8.414   0.330
   46GLOH   H05 8819   3.438   8.498   0.384
   46GLOH    C3 8820   3.250   8.273   0.393
   46GLOH   H06 8821   3.236   8.242   0.289
   46GLOH   H07 8822   3.193   8.365   0.405
   46GLOH    O3 8823   3.201   8.172   0.482
   46GLOH   H01 8824   3.103   8.187   0.492
   47GLOH   H03 8825   3.003   8.784   2.686
   47GLOH    O1 8826   2.930   8.833   2.644
   47GLOH    C1 8827   2.976   8.963   2.603
   47GLOH   H02 8828   3.052   8.954   2.525
   47GLOH   H08 8829   3.023   9.015   2.686
   47GLOH    C2 8830   2.861   9.051   2.550
   47GLOH   H04 8831   2.790   9.067   2.633
   47GLOH    O2 8832   2.910   9.179   2.506
   47GLOH   H05 8833   2.912   9.242   2.580
   47GLOH    C3 8834   2.787   8.978   2.437
   47GLOH   H06 8835   2.859   8.951   2.360
   47GLOH   H07 8836   2.716   9.047   2.391
   47GLOH    O3 8837   2.720   8.861   2.486
   47GLOH   H01 8838   2.783   8.821   2.551
   48GLOH   H03 8839   3.720   3.559   1.348
   48GLOH    O1 8840   3.652   3.544   1.419
   48GLOH    C1 8841   3.609   3.406   1.417
   48GLOH   H02 8842   3.688   3.341   1.455
   48GLOH   H08 8843   3.587   3.374   1.315
   48GLOH    C2 8844   3.482   3.384   1.503
   48GLOH   H04 8845   3.399   3.439   1.455
   48GLOH    O2 8846   3.446   3.245   1.512
   48GLOH   H05 8847   3.426   3.210   1.420
   48GLOH    C3 8848   3.503   3.443   1.643
   48GLOH   H06 8849   3.587   3.392   1.690
   48GLOH   H07 8850   3.415   3.422   1.704
   48GLOH    O3 8851   3.527   3.585   1.634
   48GLOH   H01 8852   3.574   3.594   1.546
   49GLOH   H03 8853   0.397   9.581   1.180
   49GLOH    O1 8854   0.488   9.575   1.219
   49GLOH    C1 8855   0.535   9.708   1.249
   49GLOH   H02 8856   0.464   9.759   1.316
   49GLOH   H08 8857   0.540   9.768   1.158
   49GLOH    C2 8858   0.673   9.709   1.317
   49GLOH   H04 8859   0.699   9.814   1.336
   49GLOH    O2 8860   0.670   9.639   1.443
   49GLOH   H05 8861   0.607   9.688   1.503
   49GLOH    C3 8862   0.780   9.652   1.221
   49GLOH   H06 8863   0.748   9.553   1.188
   49GLOH   H07 8864   0.872   9.637   1.277
   49GLOH    O3 8865   0.805   9.737   1.108
   49GLOH   H01 8866   0.731   9.731   1.043
   50GLOH   H03 8867   4.429   1.426   2.363
   50GLOH    O1 8868   4.449   1.491   2.435
   50GLOH    C1 8869   4.417   1.623   2.387
   50GLOH   H02 8870   4.311   1.631   2.365
   50GLOH   H08 8871   4.470   1.643   2.293
   50GLOH    C2 8872   4.454   1.734   2.487
   50GLOH   H04 8873   4.562   1.731   2.504
   50GLOH    O2 8874   4.417   1.864   2.436
   50GLOH   H05 8875   4.469   1.931   2.484
   50GLOH    C3 8876   4.384   1.706   2.622
   50GLOH   H06 8877   4.276   1.708   2.607
   50GLOH   H07 8878   4.409   1.786   2.692
   50GLOH    O3 8879   4.425   1.579   2.675
   50GLOH   H01 8880   4.440   1.521   2.597
   51GLOH   H03 8881   8.907   6.615   1.320
   51GLOH    O1 8882   9.001   6.612   1.350
   51GLOH    C1 8883   9.035   6.474   1.374
   51GLOH   H02 8884   8.993   6.440   1.469
   51GLOH   H08 8885   9.143   6.463   1.383
   51GLOH    C2 8886   8.985   6.377   1.264
   51GLOH   H04 8887   9.033   6.407   1.170
   51GLOH    O2 8888   9.024   6.242   1.294
   51GLOH   H05 8889   9.120   6.231   1.270
   51GLOH    C3 8890   8.833   6.388   1.246
   51GLOH   H06 8891   8.785   6.369   1.342
   51GLOH   H07 8892   8.800   6.310   1.178
   51GLOH    O3 8893   8.795   6.518   1.195
   51GLOH   H01 8894   8.840   6.529   1.107
   52GLOH   H03 8895   2.693   7.820   2.128
   52GLOH    O1 8896   2.680   7.768   2.043
   52GLOH    C1 8897   2.539   7.769   2.015
   52GLOH   H02 8898   2.520   7.720   1.920
   52GLOH   H08 8899   2.503   7.871   2.005
   52GLOH    C2 8900   2.456   7.699   2.124
   52GLOH   H04 8901   2.471   7.753   2.219
   52GLOH    O2 8902   2.316   7.704   2.088
   52GLOH   H05 8903   2.266   7.643   2.148
   52GLOH    C3 8904   2.503   7.554   2.141
   52GLOH   H06 8905   2.610   7.549   2.125
   52GLOH   H07 8906   2.457   7.493   2.063
   52GLOH    O3 8907   2.470   7.500   2.271
   52GLOH   H01 8908   2.557   7.483   2.316
   53GLOH   H03 8909   9.073   5.585   2.072
   53GLOH    O1 8910   8.981   5.587   2.110
   53GLOH    C1 8911   8.976   5.536   2.244
   53GLOH   H02 8912   9.024   5.437   2.249
   53GLOH   H08 8913   8.872   5.521   2.272
   53GLOH    C2 8914   9.040   5.626   2.352
   53GLOH   H04 8915   9.006   5.729   2.335
   53GLOH    O2 8916   8.998   5.582   2.482
   53GLOH   H05 8917   9.001   5.656   2.545
   53GLOH    C3 8918   9.194   5.622   2.345
   53GLOH   H06 8919   9.225   5.518   2.331
   53GLOH   H07 8920   9.234   5.653   2.441
   53GLOH    O3 8921   9.250   5.704   2.241
   53GLOH   H01 8922   9.343   5.671   2.225
   54GLOH   H03 8923   1.778   4.171   2.311
   54GLOH    O1 8924   1.726   4.092   2.343
   54GLOH    C1 8925   1.795   3.974   2.296
   54GLOH   H02 8926   1.903   3.993   2.291
   54GLOH   H08 8927   1.763   3.949   2.195
   54GLOH    C2 8928   1.772   3.852   2.386
   54GLOH   H04 8929   1.664   3.829   2.388
   54GLOH    O2 8930   1.843   3.738   2.334
   54GLOH   H05 8931   1.815   3.657   2.382
   54GLOH    C3 8932   1.816   3.883   2.530
   54GLOH   H06 8933   1.924   3.902   2.531
   54GLOH   H07 8934   1.798   3.796   2.593
   54GLOH    O3 8935   1.746   3.997   2.582
   54GLOH   H01 8936   1.729   4.057   2.505
   55GLOH   H03 8937   4.051   9.366   1.509
   55GLOH    O1 8938   4.023   9.312   1.432
   55GLOH    C1 8939   3.908   9.234   1.471
   55GLOH   H02 8940   3.825   9.299   1.498
   55GLOH   H08 8941   3.931   9.175   1.560
   55GLOH    C2 8942   3.858   9.137   1.361
   55GLOH   H04 8943   3.766   9.091   1.400
   55GLOH    O2 8944   3.827   9.203   1.237
   55GLOH   H05 8945   3.780   9.290   1.257
   55GLOH    C3 8946   3.960   9.023   1.340
   55GLOH   H06 8947   4.058   9.066   1.323
   55GLOH   H07 8948   3.933   8.969   1.249
   55GLOH    O3 8949   3.962   8.933   1.452
   55GLOH   H01 8950   4.009   8.850   1.425
   56GLOH   H03 8951   0.386   3.714   1.926
   56GLOH    O1 8952   0.338   3.713   2.014
   56GLOH    C1 8953   0.302   3.577   2.046
   56GLOH   H02 8954   0.288   3.519   1.955
   56GLOH   H08 8955   0.206   3.575   2.098
   56GLOH    C2 8956   0.406   3.506   2.134
   56GLOH   H04 8957   0.505   3.520   2.089
   56GLOH    O2 8958   0.409   3.559   2.268
   56GLOH   H05 8959   0.433   3.655   2.266
   56GLOH    C3 8960   0.378   3.355   2.142
   56GLOH   H06 8961   0.280   3.341   2.188
   56GLOH   H07 8962   0.451   3.310   2.210
   56GLOH    O3 8963   0.386   3.289   2.014
   56GLOH   H01 8964   0.478   3.308   1.980
   57GLOH   H03 8965   9.415   6.352   2.353
   57GLOH    O1 8966   9.476   6.401   2.415
   57GLOH    C1 8967   9.548   6.502   2.341
   57GLOH   H02 8968   9.479   6.562   2.282
   57GLOH   H08 8969   9.617   6.455   2.271
   57GLOH    C2 8970   9.628   6.595   2.434
   57GLOH   H04 8971   9.702   6.650   2.374
   57GLOH    O2 8972   9.539   6.689   2.499
   57GLOH   H05 8973   9.461   6.640   2.531
   57GLOH    C3 8974   9.704   6.513   2.540
   57GLOH   H06 8975   9.633   6.481   2.618
   57GLOH   H07 8976   9.777   6.578   2.588
   57GLOH    O3 8977   9.768   6.399   2.482
   57GLOH   H01 8978   9.696   6.337   2.457
   58GLOH   H03 8979   8.328   8.018   1.127
   58GLOH    O1 8980   8.296   8.096   1.182
   58GLOH    C1 8981   8.268   8.207   1.095
   58GLOH   H02 8982   8.162   8.230   1.096
   58GLOH   H08 8983   8.293   8.182   0.991
   58GLOH    C2 8984   8.345   8.336   1.132
   58GLOH   H04 8985   8.322   8.411   1.055
   58GLOH    O2 8986   8.302   8.388   1.261
   58GLOH   H05 8987   8.361   8.465   1.286
   58GLOH    C3 8988   8.496   8.309   1.128
   58GLOH   H06 8989   8.521   8.231   1.200
   58GLOH   H07 8990   8.549   8.399   1.160
   58GLOH    O3 8991   8.540   8.270   0.997
   58GLOH   H01 8992   8.521   8.344   0.933
   59GLOH   H03 8993   5.069   2.936   2.210
   59GLOH    O1 8994   4.987   2.889   2.242
   59GLOH    C1 8995   4.874   2.976   2.217
   59GLOH   H02 8996   4.903   3.081   2.223
   59GLOH   H08 8997   4.798   2.961   2.294
   59GLOH    C2 8998   4.811   2.950   2.079
   59GLOH   H04 8999   4.791   2.842   2.071
   59GLOH    O2 9000   4.686   3.021   2.068
   59GLOH   H05 9001   4.651   3.011   1.975
   59GLOH    C3 9002   4.907   2.990   1.966
   59GLOH   H06 9003   4.864   2.958   1.871
   59GLOH   H07 9004   5.000   2.934   1.979
   59GLOH    O3 9005   4.936   3.131   1.961
   59GLOH   H01 9006   4.858   3.177   1.921
   60GLOH   H03 9007   4.709   2.812   1.646
   60GLOH    O1 9008   4.805   2.794   1.662
   60GLOH    C1 9009   4.877   2.841   1.547
   60GLOH   H02 9010   4.877   2.765   1.468
   60GLOH   H08 9011   4.981   2.860   1.572
   60GLOH    C2 9012   4.818   2.972   1.490
   60GLOH   H04 9013   4.827   3.050   1.567
   60GLOH    O2 9014   4.890   3.012   1.372
   60GLOH   H05 9015   4.859   3.104   1.345
   60GLOH    C3 9016   4.668   2.952   1.458
   60GLOH   H06 9017   4.659   2.875   1.381
   60GLOH   H07 9018   4.630   3.044   1.413
   60GLOH    O3 9019   4.588   2.916   1.572
   60GLOH   H01 9020   4.493   2.921   1.543
   61GLOH   H03 9021   2.913   2.955   0.843
   61GLOH    O1 9022   2.995   3.010   0.828
   61GLOH    C1 9023   3.048   3.053   0.954
   61GLOH   H02 9024   3.144   3.104   0.939
   61GLOH   H08 9025   3.068   2.967   1.018
   61GLOH    C2 9026   2.955   3.149   1.031
   61GLOH   H04 9027   2.857   3.100   1.040
   61GLOH    O2 9028   3.004   3.175   1.163
   61GLOH   H05 9029   2.935   3.232   1.210
   61GLOH    C3 9030   2.935   3.282   0.956
   61GLOH   H06 9031   3.034   3.319   0.926
   61GLOH   H07 9032   2.895   3.356   1.025
   61GLOH    O3 9033   2.850   3.273   0.840
   61GLOH   H01 9034   2.769   3.219   0.865
   62GLOH   H03 9035   0.684   2.747   1.010
   62GLOH    O1 9036   0.596   2.707   1.033
   62GLOH    C1 9037   0.610   2.663   1.170
   62GLOH   H02 9038   0.514   2.673   1.222
   62GLOH   H08 9039   0.679   2.727   1.224
   62GLOH    C2 9040   0.658   2.517   1.185
   62GLOH   H04 9041   0.694   2.504   1.288
   62GLOH    O2 9042   0.550   2.423   1.163
   62GLOH   H05 9043   0.485   2.432   1.238
   62GLOH    C3 9044   0.778   2.490   1.092
   62GLOH   H06 9045   0.851   2.570   1.107
   62GLOH   H07 9046   0.744   2.497   0.989
   62GLOH    O3 9047   0.839   2.362   1.115
   62GLOH   H01 9048   0.770   2.293   1.097
   63GLOH   H03 9049   9.731   6.431   0.974
   63GLOH    O1 9050   9.690   6.414   1.063
   63GLOH    C1 9051   9.548   6.434   1.047
   63GLOH   H02 9052   9.499   6.336   1.045
   63GLOH   H08 9053   9.526   6.481   0.951
   63GLOH    C2 9054   9.484   6.518   1.158
   63GLOH   H04 9055   9.490   6.461   1.252
   63GLOH    O2 9056   9.549   6.645   1.175
   63GLOH   H05 9057   9.511   6.689   1.256
   63GLOH    C3 9058   9.335   6.543   1.125
   63GLOH   H06 9059   9.330   6.622   1.050
   63GLOH   H07 9060   9.286   6.582   1.214
   63GLOH    O3 9061   9.265   6.427   1.078
   63GLOH   H01 9062   9.272   6.353   1.144
   64GLOH   H03 9063   1.121   2.486   2.344
   64GLOH    O1 9064   1.077   2.409   2.302
   64GLOH    C1 9065   1.132   2.287   2.356
   64GLOH   H02 9066   1.132   2.290   2.465
   64GLOH   H08 9067   1.236   2.276   2.325
   64GLOH    C2 9068   1.054   2.163   2.311
   64GLOH   H04 9069   1.055   2.159   2.201
   64GLOH    O2 9070   1.116   2.044   2.363
   64GLOH   H05 9071   1.201   2.027   2.314
   64GLOH    C3 9072   0.907   2.171   2.356
   64GLOH   H06 9073   0.863   2.262   2.315
   64GLOH   H07 9074   0.904   2.180   2.465
   64GLOH    O3 9075   0.833   2.056   2.313
   64GLOH   H01 9076   0.896   1.981   2.318
   65GLOH   H03 9077   4.338   0.675   0.001
   65GLOH    O1 9078   4.343   0.717   2.733
   65GLOH    C1 9079   4.393   0.626   2.634
   65GLOH   H02 9080   4.475   0.567   2.674
   65GLOH   H08 9081   4.434   0.682   2.550
   65GLOH    C2 9082   4.285   0.530   2.580
   65GLOH   H04 9083   4.203   0.591   2.538
   65GLOH    O2 9084   4.339   0.445   2.477
   65GLOH   H05 9085   4.281   0.453   2.397
   65GLOH    C3 9086   4.227   0.447   2.696
   65GLOH   H06 9087   4.178   0.515   2.766
   65GLOH   H07 9088   4.310   0.400   2.751
   65GLOH    O3 9089   4.134   0.346   2.653
   65GLOH   H01 9090   4.174   0.298   2.578
   66GLOH   H03 9091   4.182   3.329   2.022
   66GLOH    O1 9092   4.208   3.277   1.942
   66GLOH    C1 9093   4.182   3.137   1.968
   66GLOH   H02 9094   4.097   3.125   2.035
   66GLOH   H08 9095   4.268   3.092   2.017
   66GLOH    C2 9096   4.153   3.057   1.839
   66GLOH   H04 9097   4.249   3.045   1.785
   66GLOH    O2 9098   4.101   2.926   1.871
   66GLOH   H05 9099   4.171   2.858   1.852
   66GLOH    C3 9100   4.057   3.133   1.747
   66GLOH   H06 9101   3.961   3.146   1.798
   66GLOH   H07 9102   4.039   3.074   1.657
   66GLOH    O3 9103   4.113   3.261   1.713
   66GLOH   H01 9104   4.158   3.290   1.797
   67GLOH   H03 9105   0.705   6.687   1.995
   67GLOH    O1 9106   0.720   6.716   1.901
   67GLOH    C1 9107   0.624   6.817   1.865
   67GLOH   H02 9108   0.662   6.877   1.782
   67GLOH   H08 9109   0.607   6.886   1.948
   67GLOH    C2 9110   0.489   6.756   1.823
   67GLOH   H04 9111   0.446   6.703   1.910
   67GLOH    O2 9112   0.400   6.862   1.783
   67GLOH   H05 9113   0.354   6.902   1.861
   67GLOH    C3 9114   0.508   6.655   1.708
   67GLOH   H06 9115   0.590   6.588   1.733
   67GLOH   H07 9116   0.538   6.710   1.619
   67GLOH    O3 9117   0.389   6.578   1.682
   67GLOH   H01 9118   0.318   6.640   1.650
   68GLOH   H03 9119   8.044   9.594   1.026
   68GLOH    O1 9120   7.978   9.666   1.009
   68GLOH    C1 9121   7.867   9.646   1.099
   68GLOH   H02 9122   7.873   9.718   1.181
   68GLOH   H08 9123   7.871   9.547   1.145
   68GLOH    C2 9124   7.730   9.662   1.030
   68GLOH   H04 9125   7.738   9.751   0.966
   68GLOH    O2 9126   7.696   9.550   0.946
   68GLOH   H05 9127   7.772   9.485   0.941
   68GLOH    C3 9128   7.620   9.689   1.134
   68GLOH   H06 9129   7.633   9.620   1.218
   68GLOH   H07 9130   7.524   9.668   1.089
   68GLOH    O3 9131   7.623   9.826   1.180
   68GLOH   H01 9132   7.590   9.878   1.102
   69GLOH   H03 9133   4.092   4.544   1.384
   69GLOH    O1 9134   4.113   4.568   1.479
   69GLOH    C1 9135   4.028   4.488   1.565
   69GLOH   H02 9136   4.075   4.392   1.584
   69GLOH   H08 9137   3.933   4.468   1.516
   69GLOH    C2 9138   4.000   4.557   1.700
   69GLOH   H04 9139   3.938   4.646   1.681
   69GLOH    O2 9140   3.929   4.467   1.788
   69GLOH   H05 9141   3.845   4.434   1.744
   69GLOH    C3 9142   4.132   4.602   1.765
   69GLOH   H06 9143   4.193   4.514   1.787
   69GLOH   H07 9144   4.109   4.650   1.861
   69GLOH    O3 9145   4.203   4.693   1.680
   69GLOH   H01 9146   4.176   4.667   1.588
   70GLOH   H03 9147   3.545   5.353   1.343
   70GLOH    O1 9148   3.600   5.404   1.279
   70GLOH    C1 9149   3.521   5.419   1.159
   70GLOH   H02 9150   3.440   5.346   1.157
   70GLOH   H08 9151   3.583   5.399   1.072
   70GLOH    C2 9152   3.461   5.560   1.143
   70GLOH   H04 9153   3.542   5.626   1.108
   70GLOH    O2 9154   3.358   5.559   1.041
   70GLOH   H05 9155   3.305   5.643   1.048
   70GLOH    C3 9156   3.410   5.619   1.276
   70GLOH   H06 9157   3.369   5.718   1.256
   70GLOH   H07 9158   3.495   5.634   1.342
   70GLOH    O3 9159   3.311   5.538   1.342
   70GLOH   H01 9160   3.225   5.589   1.346
   71GLOH   H03 9161   8.564   4.485   2.137
   71GLOH    O1 9162   8.580   4.550   2.209
   71GLOH    C1 9163   8.657   4.659   2.155
   71GLOH   H02 9164   8.647   4.748   2.217
   71GLOH   H08 9165   8.621   4.686   2.055
   71GLOH    C2 9166   8.806   4.623   2.146
   71GLOH   H04 9167   8.816   4.529   2.089
   71GLOH    O2 9168   8.880   4.726   2.077
   71GLOH   H05 9169   8.909   4.688   1.989
   71GLOH    C3 9170   8.863   4.600   2.287
   71GLOH   H06 9171   8.856   4.693   2.343
   71GLOH   H07 9172   8.969   4.575   2.279
   71GLOH    O3 9173   8.790   4.495   2.354
   71GLOH   H01 9174   8.696   4.506   2.326
   72GLOH   H03 9175   7.291   9.506   0.789
   72GLOH    O1 9176   7.359   9.579   0.793
   72GLOH    C1 9177   7.324   9.682   0.699
   72GLOH   H02 9178   7.295   9.638   0.603
   72GLOH   H08 9179   7.411   9.745   0.679
   72GLOH    C2 9180   7.210   9.774   0.747
   72GLOH   H04 9181   7.234   9.808   0.849
   72GLOH    O2 9182   7.199   9.890   0.662
   72GLOH   H05 9183   7.218   9.970   0.717
   72GLOH    C3 9184   7.075   9.699   0.752
   72GLOH   H06 9185   7.062   9.644   0.659
   72GLOH   H07 9186   6.994   9.773   0.756
   72GLOH    O3 9187   7.065   9.610   0.865
   72GLOH   H01 9188   7.097   9.520   0.839
   73GLOH   H03 9189   9.939   0.070   2.327
   73GLOH    O1 9190   9.899   0.090   2.240
   73GLOH    C1 9191   9.910   9.975   2.154
   73GLOH   H02 9192   9.921   9.884   2.213
   73GLOH   H08 9193   9.999   9.982   2.091
   73GLOH    C2 9194   9.787   9.957   2.062
   73GLOH   H04 9195   9.774   0.049   2.004
   73GLOH    O2 9196   9.811   9.846   1.973
   73GLOH   H05 9197   9.731   9.838   1.912
   73GLOH    C3 9198   9.661   9.934   2.148
   73GLOH   H06 9199   9.649   0.019   2.215
   73GLOH   H07 9200   9.678   9.847   2.211
   73GLOH    O3 9201   9.540   9.916   2.072
   73GLOH   H01 9202   9.561   9.879   1.982
   74GLOH   H03 9203   2.656   4.197   2.187
   74GLOH    O1 9204   2.587   4.242   2.132
   74GLOH    C1 9205   2.550   4.150   2.026
   74GLOH   H02 9206   2.462   4.093   2.056
   74GLOH   H08 9207   2.630   4.078   2.010
   74GLOH    C2 9208   2.519   4.218   1.892
   74GLOH   H04 9209   2.506   4.139   1.817
   74GLOH    O2 9210   2.398   4.295   1.897
   74GLOH   H05 9211   2.318   4.237   1.882
   74GLOH    C3 9212   2.638   4.305   1.846
   74GLOH   H06 9213   2.608   4.362   1.758
   74GLOH   H07 9214   2.719   4.239   1.815
   74GLOH    O3 9215   2.683   4.395   1.950
   74GLOH   H01 9216   2.634   4.365   2.030
   75GLOH   H03 9217   0.738   9.126   2.610
   75GLOH    O1 9218   0.797   9.060   2.567
   75GLOH    C1 9219   0.777   8.933   2.632
   75GLOH   H02 9220   0.793   8.942   2.739
   75GLOH   H08 9221   0.851   8.861   2.596
   75GLOH    C2 9222   0.636   8.876   2.607
   75GLOH   H04 9223   0.636   8.770   2.635
   75GLOH    O2 9224   0.540   8.949   2.685
   75GLOH   H05 9225   0.459   8.895   2.697
   75GLOH    C3 9226   0.601   8.888   2.457
   75GLOH   H06 9227   0.581   8.993   2.434
   75GLOH   H07 9228   0.508   8.834   2.440
   75GLOH    O3 9229   0.706   8.838   2.372
   75GLOH   H01 9230   0.789   8.884   2.398
   76GLOH   H03 9231   2.340   3.302   1.481
   76GLOH    O1 9232   2.392   3.226   1.520
   76GLOH    C1 9233   2.315   3.107   1.498
   76GLOH   H02 9234   2.381   3.026   1.467
   76GLOH   H08 9235   2.244   3.121   1.416
   76GLOH    C2 9236   2.236   3.062   1.622
   76GLOH   H04 9237   2.307   3.046   1.704
   76GLOH    O2 9238   2.138   3.160   1.663
   76GLOH   H05 9239   2.078   3.117   1.731
   76GLOH    C3 9240   2.167   2.927   1.593
   76GLOH   H06 9241   2.088   2.944   1.519
   76GLOH   H07 9242   2.118   2.893   1.684
   76GLOH    O3 9243   2.259   2.827   1.547
   76GLOH   H01 9244   2.335   2.819   1.610
   77GLOH   H03 9245   7.940   8.521   2.453
   77GLOH    O1 9246   7.863   8.471   2.490
   77GLOH    C1 9247   7.868   8.339   2.432
   77GLOH   H02 9248   7.966   8.294   2.449
   77GLOH   H08 9249   7.855   8.347   2.324
   77GLOH    C2 9250   7.761   8.242   2.484
   77GLOH   H04 9251   7.662   8.279   2.452
   77GLOH    O2 9252   7.784   8.112   2.424
   77GLOH   H05 9253   7.853   8.064   2.475
   77GLOH    C3 9254   7.762   8.234   2.637
   77GLOH   H06 9255   7.856   8.189   2.670
   77GLOH   H07 9256   7.681   8.167   2.669
   77GLOH    O3 9257   7.745   8.363   2.696
   77GLOH   H01 9258   7.787   8.428   2.634
   78GLOH   H03 9259   2.020   6.311   1.542
   78GLOH    O1 9260   2.040   6.266   1.629
   78GLOH    C1 9261   1.922   6.257   1.712
   78GLOH   H02 9262   1.952   6.252   1.817
   78GLOH   H08 9263   1.869   6.164   1.690
   78GLOH    C2 9264   1.824   6.374   1.695
   78GLOH   H04 9265   1.789   6.375   1.591
   78GLOH    O2 9266   1.710   6.355   1.782
   78GLOH   H05 9267   1.676   6.260   1.775
   78GLOH    C3 9268   1.894   6.509   1.723
   78GLOH   H06 9269   1.987   6.511   1.666
   78GLOH   H07 9270   1.922   6.511   1.828
   78GLOH    O3 9271   1.815   6.624   1.689
   78GLOH   H01 9272   1.784   6.666   1.775
   79GLOH   H03 9273   3.919   1.001   1.145
   79GLOH    O1 9274   3.850   0.991   1.073
   79GLOH    C1 9275   3.725   0.942   1.126
   79GLOH   H02 9276   3.743   0.861   1.197
   79GLOH   H08 9277   3.664   0.900   1.045
   79GLOH    C2 9278   3.644   1.052   1.195
   79GLOH   H04 9279   3.635   1.136   1.124
   79GLOH    O2 9280   3.512   1.009   1.231
   79GLOH   H05 9281   3.516   0.929   1.292
   79GLOH    C3 9282   3.720   1.105   1.319
   79GLOH   H06 9283   3.657   1.179   1.368
   79GLOH   H07 9284   3.809   1.157   1.285
   79GLOH    O3 9285   3.755   1.000   1.411
   79GLOH   H01 9286   3.828   1.037   1.468
   80GLOH   H03 9287   1.083   3.025   1.030
   80GLOH    O1 9288   1.097   3.017   1.128
   80GLOH    C1 9289   1.147   3.141   1.181
   80GLOH   H02 9290   1.250   3.157   1.148
   80GLOH   H08 9291   1.151   3.137   1.290
   80GLOH    C2 9292   1.065   3.266   1.141
   80GLOH   H04 9293   1.068   3.275   1.032
   80GLOH    O2 9294   0.928   3.258   1.185
   80GLOH   H05 9295   0.887   3.171   1.155
   80GLOH    C3 9296   1.131   3.391   1.201
   80GLOH   H06 9297   1.126   3.384   1.310
   80GLOH   H07 9298   1.071   3.479   1.174
   80GLOH    O3 9299   1.267   3.408   1.160
   80GLOH   H01 9300   1.274   3.408   1.061
   81GLOH   H03 9301   9.648   9.738   1.070
   81GLOH    O1 9302   9.708   9.749   1.148
   81GLOH    C1 9303   9.681   9.640   1.238
   81GLOH   H02 9304   9.729   9.549   1.201
   81GLOH   H08 9305   9.574   9.619   1.242
   81GLOH    C2 9306   9.731   9.664   1.382
   81GLOH   H04 9307   9.839   9.683   1.380
   81GLOH    O2 9308   9.663   9.777   1.443
   81GLOH   H05 9309   9.686   9.859   1.391
   81GLOH    C3 9310   9.705   9.540   1.469
   81GLOH   H06 9311   9.597   9.526   1.478
   81GLOH   H07 9312   9.743   9.559   1.569
   81GLOH    O3 9313   9.764   9.420   1.417
   81GLOH   H01 9314   9.720   9.342   1.461
   82GLOH   H03 9315   9.438   2.029   1.649
   82GLOH    O1 9316   9.467   2.121   1.676
   82GLOH    C1 9317   9.610   2.128   1.660
   82GLOH   H02 9318   9.657   2.045   1.712
   82GLOH   H08 9319   9.647   2.219   1.705
   82GLOH    C2 9320   9.655   2.123   1.513
   82GLOH   H04 9321   9.615   2.030   1.469
   82GLOH    O2 9322   9.606   2.235   1.436
   82GLOH   H05 9323   9.515   2.262   1.471
   82GLOH    C3 9324   9.808   2.115   1.502
   82GLOH   H06 9325   9.851   2.200   1.555
   82GLOH   H07 9326   9.837   2.126   1.397
   82GLOH    O3 9327   9.861   1.991   1.554
   82GLOH   H01 9328   9.827   1.917   1.496
   83GLOH   H03 9329   8.258   9.675   2.043
   83GLOH    O1 9330   8.171   9.627   2.039
   83GLOH    C1 9331   8.134   9.621   1.900
   83GLOH   H02 9332   8.195   9.689   1.840
   83GLOH   H08 9333   8.031   9.654   1.888
   83GLOH    C2 9334   8.145   9.480   1.837
   83GLOH   H04 9335   8.073   9.415   1.887
   83GLOH    O2 9336   8.110   9.487   1.697
   83GLOH   H05 9337   8.018   9.450   1.687
   83GLOH    C3 9338   8.285   9.419   1.856
   83GLOH   H06 9339   8.359   9.490   1.816
   83GLOH   H07 9340   8.292   9.329   1.794
   83GLOH    O3 9341   8.315   9.388   1.993
   83GLOH   H01 9342   8.230   9.367   2.039
   84GLOH   H03 9343   9.045   4.349   0.955
   84GLOH    O1 9344   9.065   4.373   0.860
   84GLOH    C1 9345   8.943   4.423   0.802
   84GLOH   H02 9346   8.871   4.449   0.880
   84GLOH   H08 9347   8.897   4.346   0.740
   84GLOH    C2 9348   8.964   4.548   0.715
   84GLOH   H04 9349   9.027   4.520   0.629
   84GLOH    O2 9350   8.836   4.594   0.665
   84GLOH   H05 9351   8.852   4.665   0.595
   84GLOH    C3 9352   9.038   4.659   0.793
   84GLOH   H06 9353   9.056   4.742   0.724
   84GLOH   H07 9354   9.136   4.622   0.822
   84GLOH    O3 9355   8.966   4.707   0.909
   84GLOH   H01 9356   8.882   4.748   0.877
   85GLOH   H03 9357   1.899   3.351   1.077
   85GLOH    O1 9358   1.921   3.433   1.025
   85GLOH    C1 9359   2.064   3.446   1.026
   85GLOH   H02 9360   2.111   3.362   1.077
   85GLOH   H08 9361   2.093   3.536   1.081
   85GLOH    C2 9362   2.124   3.454   0.884
   85GLOH   H04 9363   2.080   3.541   0.833
   85GLOH    O2 9364   2.267   3.473   0.896
   85GLOH   H05 9365   2.318   3.397   0.854
   85GLOH    C3 9366   2.089   3.328   0.804
   85GLOH   H06 9367   1.981   3.314   0.806
   85GLOH   H07 9368   2.133   3.241   0.853
   85GLOH    O3 9369   2.135   3.337   0.668
   85GLOH   H01 9370   2.069   3.389   0.617
   86GLOH   H03 9371   9.650   8.609   1.577
   86GLOH    O1 9372   9.662   8.533   1.639
   86GLOH    C1 9373   9.604   8.417   1.577
   86GLOH   H02 9374   9.640   8.407   1.475
   86GLOH   H08 9375   9.495   8.427   1.572
   86GLOH    C2 9376   9.636   8.287   1.653
   86GLOH   H04 9377   9.585   8.292   1.750
   86GLOH    O2 9378   9.586   8.172   1.582
   86GLOH   H05 9379   9.635   8.088   1.610
   86GLOH    C3 9380   9.787   8.276   1.679
   86GLOH   H06 9381   9.839   8.277   1.583
   86GLOH   H07 9382   9.808   8.181   1.726
   86GLOH    O3 9383   9.832   8.386   1.761
   86GLOH   H01 9384   9.775   8.462   1.732
   87GLOH   H03 9385   8.878   9.371   2.678
   87GLOH    O1 9386   8.794   9.407   2.714
   87GLOH    C1 9387   8.694   9.303   2.717
   87GLOH   H02 9388   8.725   9.223   2.783
   87GLOH   H08 9389   8.682   9.259   2.617
   87GLOH    C2 9390   8.558   9.356   2.765
   87GLOH   H04 9391   8.568   9.390   0.049
   87GLOH    O2 9392   8.516   9.466   2.682
   87GLOH   H05 9393   8.595   9.520   2.664
   87GLOH    C3 9394   8.453   9.243   2.759
   87GLOH   H06 9395   8.441   9.211   2.656
   87GLOH   H07 9396   8.357   9.284   2.791
   87GLOH    O3 9397   8.490   9.131   0.022
   87GLOH   H01 9398   8.445   9.138   0.109
   88GLOH   H03 9399   4.909   3.924   2.390
   88GLOH    O1 9400   4.905   3.847   2.328
   88GLOH    C1 9401   4.777   3.853   2.261
   88GLOH   H02 9402   4.778   3.931   2.186
   88GLOH   H08 9403   4.698   3.877   2.332
   88GLOH    C2 9404   4.742   3.720   2.191
   88GLOH   H04 9405   4.738   3.641   2.267
   88GLOH    O2 9406   4.612   3.731   2.128
   88GLOH   H05 9407   4.542   3.725   2.200
   88GLOH    C3 9408   4.851   3.685   2.089
   88GLOH   H06 9409   4.853   3.762   2.012
   88GLOH   H07 9410   4.823   3.591   2.039
   88GLOH    O3 9411   4.979   3.673   2.153
   88GLOH   H01 9412   4.976   3.739   2.228
   89GLOH   H03 9413   1.300   3.525   1.921
   89GLOH    O1 9414   1.326   3.480   2.006
   89GLOH    C1 9415   1.278   3.345   2.000
   89GLOH   H02 9416   1.352   3.281   1.951
   89GLOH   H08 9417   1.186   3.338   1.941
   89GLOH    C2 9418   1.251   3.288   2.140
   89GLOH   H04 9419   1.181   3.356   2.191
   89GLOH    O2 9420   1.190   3.158   2.131
   89GLOH   H05 9421   1.092   3.172   2.112
   89GLOH    C3 9422   1.383   3.284   2.220
   89GLOH   H06 9423   1.449   3.210   2.175
   89GLOH   H07 9424   1.361   3.252   2.322
   89GLOH    O3 9425   1.445   3.414   2.219
   89GLOH   H01 9426   1.406   3.461   2.141
   90GLOH   H03 9427   2.634   5.490   1.233
   90GLOH    O1 9428   2.715   5.539   1.260
   90GLOH    C1 9429   2.771   5.472   1.375
   90GLOH   H02 9430   2.857   5.527   1.413
   90GLOH   H08 9431   2.806   5.373   1.347
   90GLOH    C2 9432   2.668   5.457   1.489
   90GLOH   H04 9433   2.584   5.396   1.452
   90GLOH    O2 9434   2.731   5.389   1.599
   90GLOH   H05 9435   2.668   5.384   1.676
   90GLOH    C3 9436   2.614   5.595   1.530
   90GLOH   H06 9437   2.590   5.652   1.440
   90GLOH   H07 9438   2.693   5.649   1.581
   90GLOH    O3 9439   2.497   5.587   1.614
   90GLOH   H01 9440   2.423   5.635   1.567
   91GLOH   H03 9441   3.963   1.663   0.489
   91GLOH    O1 9442   3.917   1.691   0.573
   91GLOH    C1 9443   3.966   1.818   0.620
   91GLOH   H02 9444   3.898   1.858   0.696
   91GLOH   H08 9445   3.969   1.891   0.539
   91GLOH    C2 9446   4.107   1.809   0.682
   91GLOH   H04 9447   4.178   1.779   0.603
   91GLOH    O2 9448   4.148   1.936   0.737
   91GLOH   H05 9449   4.158   2.005   0.664
   91GLOH    C3 9450   4.111   1.702   0.793
   91GLOH   H06 9451   4.048   1.734   0.875
   91GLOH   H07 9452   4.213   1.696   0.832
   91GLOH    O3 9453   4.068   1.573   0.746
   91GLOH   H01 9454   3.986   1.591   0.694
   92GLOH   H03 9455   3.468   5.561   0.652
   92GLOH    O1 9456   3.529   5.566   0.575
   92GLOH    C1 9457   3.473   5.493   0.464
   92GLOH   H02 9458   3.494   5.545   0.371
   92GLOH   H08 9459   3.365   5.485   0.472
   92GLOH    C2 9460   3.533   5.351   0.454
   92GLOH   H04 9461   3.517   5.300   0.550
   92GLOH    O2 9462   3.470   5.276   0.349
   92GLOH   H05 9463   3.400   5.216   0.388
   92GLOH    C3 9464   3.684   5.362   0.429
   92GLOH   H06 9465   3.700   5.409   0.332
   92GLOH   H07 9466   3.726   5.261   0.423
   92GLOH    O3 9467   3.748   5.437   0.533
   92GLOH   H01 9468   3.681   5.504   0.563
   93GLOH   H03 9469   3.067   7.573   1.985
   93GLOH    O1 9470   3.021   7.486   1.989
   93GLOH    C1 9471   3.044   7.410   1.869
   93GLOH   H02 9472   2.965   7.337   1.855
   93GLOH   H08 9473   3.137   7.353   1.879
   93GLOH    C2 9474   3.053   7.496   1.742
   93GLOH   H04 9475   2.963   7.559   1.738
   93GLOH    O2 9476   3.168   7.582   1.749
   93GLOH   H05 9477   3.152   7.650   1.821
   93GLOH    C3 9478   3.057   7.408   1.615
   93GLOH   H06 9479   3.141   7.339   1.624
   93GLOH   H07 9480   3.078   7.473   1.529
   93GLOH    O3 9481   2.934   7.337   1.595
   93GLOH   H01 9482   2.952   7.259   1.537
   94GLOH   H03 9483   3.681   9.672   0.568
   94GLOH    O1 9484   3.697   9.729   0.648
   94GLOH    C1 9485   3.754   9.857   0.609
   94GLOH   H02 9486   3.835   9.882   0.677
   94GLOH   H08 9487   3.679   9.935   0.620
   94GLOH    C2 9488   3.809   9.860   0.465
   94GLOH   H04 9489   3.884   9.781   0.455
   94GLOH    O2 9490   3.702   9.837   0.370
   94GLOH   H05 9491   3.630   9.904   0.384
   94GLOH    C3 9492   3.877   9.995   0.433
   94GLOH   H06 9493   3.800   0.072   0.433
   94GLOH   H07 9494   3.916   9.989   0.331
   94GLOH    O3 9495   3.983   0.028   0.524
   94GLOH   H01 9496   4.028   0.110   0.492
   95GLOH   H03 9497   0.028   1.453   2.303
   95GLOH    O1 9498   0.079   1.532   2.271
   95GLOH    C1 9499   9.984   1.621   2.210
   95GLOH   H02 9500   9.931   1.569   2.130
   95GLOH   H08 9501   0.035   1.706   2.163
   95GLOH    C2 9502   9.879   1.677   2.309
   95GLOH   H04 9503   9.812   1.594   2.338
   95GLOH    O2 9504   9.944   1.731   2.426
   95GLOH   H05 9505   0.008   1.665   2.459
   95GLOH    C3 9506   9.795   1.787   2.242
   95GLOH   H06 9507   9.860   1.871   2.219
   95GLOH   H07 9508   9.722   1.823   2.315
   95GLOH    O3 9509   9.727   1.741   2.123
   95GLOH   H01 9510   9.638   1.706   2.148
   96GLOH   H03 9511   2.597   7.578   1.293
   96GLOH    O1 9512   2.503   7.545   1.293
   96GLOH    C1 9513   2.434   7.587   1.174
   96GLOH   H02 9514   2.504   7.607   1.093
   96GLOH   H08 9515   2.380   7.680   1.193
   96GLOH    C2 9516   2.333   7.480   1.127
   96GLOH   H04 9517   2.277   7.444   1.215
   96GLOH    O2 9518   2.239   7.534   1.032
   96GLOH   H05 9519   2.170   7.592   1.079
   96GLOH    C3 9520   2.404   7.360   1.062
   96GLOH   H06 9521   2.460   7.396   0.976
   96GLOH   H07 9522   2.327   7.293   1.024
   96GLOH    O3 9523   2.492   7.287   1.150
   96GLOH   H01 9524   2.444   7.270   1.236
   97GLOH   H03 9525   4.664   3.932   0.115
   97GLOH    O1 9526   4.567   3.939   0.107
   97GLOH    C1 9527   4.534   4.045   0.015
   97GLOH   H02 9528   4.579   4.024   2.738
   97GLOH   H08 9529   4.576   4.140   0.050
   97GLOH    C2 9530   4.382   4.063   2.815
   97GLOH   H04 9531   4.338   4.092   0.092
   97GLOH    O2 9532   4.357   4.168   2.719
   97GLOH   H05 9533   4.351   4.255   2.766
   97GLOH    C3 9534   4.318   3.931   2.769
   97GLOH   H06 9535   4.354   3.907   2.669
   97GLOH   H07 9536   4.210   3.946   2.761
   97GLOH    O3 9537   4.348   3.825   0.040
   97GLOH   H01 9538   4.433   3.849   0.083
   98GLOH   H03 9539   1.271   7.141   0.827
   98GLOH    O1 9540   1.180   7.099   0.825
   98GLOH    C1 9541   1.081   7.201   0.848
   98GLOH   H02 9542   1.072   7.221   0.955
   98GLOH   H08 9543   0.983   7.166   0.815
   98GLOH    C2 9544   1.109   7.335   0.776
   98GLOH   H04 9545   1.205   7.375   0.814
   98GLOH    O2 9546   1.119   7.318   0.633
   98GLOH   H05 9547   1.171   7.395   0.596
   98GLOH    C3 9548   1.000   7.439   0.806
   98GLOH   H06 9549   0.905   7.401   0.768
   98GLOH   H07 9550   1.022   7.529   0.749
   98GLOH    O3 9551   0.989   7.471   0.946
   98GLOH   H01 9552   1.054   7.544   0.965
   99GLOH   H03 9553   8.320   1.898   0.951
   99GLOH    O1 9554   8.304   1.879   0.854
   99GLOH    C1 9555   8.224   1.987   0.803
   99GLOH   H02 9556   8.284   2.076   0.789
   99GLOH   H08 9557   8.146   2.012   0.875
   99GLOH    C2 9558   8.155   1.952   0.670
   99GLOH   H04 9559   8.079   1.874   0.689
   99GLOH    O2 9560   8.091   2.069   0.615
   99GLOH   H05 9561   8.155   2.107   0.551
   99GLOH    C3 9562   8.257   1.898   0.568
   99GLOH   H06 9563   8.202   1.862   0.481
   99GLOH   H07 9564   8.308   1.812   0.611
   99GLOH    O3 9565   8.352   1.998   0.528
   99GLOH   H01 9566   8.396   1.967   0.445
  100GLOH   H03 9567   8.600   7.338   1.245
  100GLOH    O1 9568   8.609   7.254   1.193
  100GLOH    C1 9569   8.635   7.290   1.056
  100GLOH   H02 9570   8.684   7.207   1.004
  100GLOH   H08 9571   8.703   7.375   1.051
  100GLOH    C2 9572   8.506   7.326   0.979
  100GLOH   H04 9573   8.456   7.406   1.036
  100GLOH    O2 9574   8.535   7.377   0.847
  100GLOH   H05 9575   8.619   7.334   0.814
  100GLOH    C3 9576   8.408   7.206   0.975
  100GLOH   H06 9577   8.328   7.230   0.905
  100GLOH   H07 9578   8.362   7.197   1.074
  100GLOH    O3 9579   8.469   7.081   0.938
  100GLOH   H01 9580   8.505   7.089   0.846
  101GLOH   H03 9581   2.728   6.548   2.724
  101GLOH    O1 9582   2.793   6.602   2.676
  101GLOH    C1 9583   2.728   6.674   2.569
  101GLOH   H02 9584   2.639   6.724   2.606
  101GLOH   H08 9585   2.696   6.606   2.491
  101GLOH    C2 9586   2.821   6.781   2.508
  101GLOH   H04 9587   2.763   6.838   2.434
  101GLOH    O2 9588   2.868   6.871   2.610
  101GLOH   H05 9589   2.881   6.818   2.692
  101GLOH    C3 9590   2.939   6.715   2.435
  101GLOH   H06 9591   2.995   6.654   2.506
  101GLOH   H07 9592   3.007   6.793   2.401
  101GLOH    O3 9593   2.896   6.635   2.323
  101GLOH   H01 9594   2.939   6.547   2.326
  102GLOH   H03 9595   4.215   0.983   0.626
  102GLOH    O1 9596   4.265   0.963   0.543
  102GLOH    C1 9597   4.266   0.823   0.511
  102GLOH   H02 9598   4.291   0.764   0.599
  102GLOH   H08 9599   4.343   0.803   0.437
  102GLOH    C2 9600   4.131   0.772   0.456
  102GLOH   H04 9601   4.107   0.832   0.367
  102GLOH    O2 9602   4.140   0.632   0.418
  102GLOH   H05 9603   4.182   0.577   0.489
  102GLOH    C3 9604   4.021   0.797   0.561
  102GLOH   H06 9605   4.021   0.903   0.585
  102GLOH   H07 9606   4.048   0.743   0.652
  102GLOH    O3 9607   3.889   0.760   0.518
  102GLOH   H01 9608   3.893   0.671   0.474
  103GLOH   H03 9609   2.989   1.851   0.682
  103GLOH    O1 9610   2.912   1.841   0.621
  103GLOH    C1 9611   2.956   1.883   0.490
  103GLOH   H02 9612   3.041   1.823   0.457
  103GLOH   H08 9613   2.990   1.987   0.493
  103GLOH    C2 9614   2.844   1.871   0.386
  103GLOH   H04 9615   2.759   1.932   0.420
  103GLOH    O2 9616   2.888   1.921   0.258
  103GLOH   H05 9617   2.833   1.878   0.190
  103GLOH    C3 9618   2.798   1.725   0.372
  103GLOH   H06 9619   2.775   1.686   0.471
  103GLOH   H07 9620   2.881   1.666   0.333
  103GLOH    O3 9621   2.684   1.714   0.286
  103GLOH   H01 9622   2.607   1.751   0.335
  104GLOH   H03 9623   1.754   9.041   2.006
  104GLOH    O1 9624   1.731   8.983   1.929
  104GLOH    C1 9625   1.800   8.858   1.951
  104GLOH   H02 9626   1.904   8.866   1.920
  104GLOH   H08 9627   1.754   8.779   1.892
  104GLOH    C2 9628   1.797   8.814   2.099
  104GLOH   H04 9629   1.692   8.794   2.127
  104GLOH    O2 9630   1.874   8.694   2.119
  104GLOH   H05 9631   1.825   8.617   2.079
  104GLOH    C3 9632   1.850   8.928   2.189
  104GLOH   H06 9633   1.955   8.946   2.163
  104GLOH   H07 9634   1.848   8.894   2.293
  104GLOH    O3 9635   1.773   9.049   2.174
  104GLOH   H01 9636   1.684   9.034   2.215
  105GLOH   H03 9637   3.140   8.240   1.519
  105GLOH    O1 9638   3.199   8.162   1.506
  105GLOH    C1 9639   3.117   8.044   1.489
  105GLOH   H02 9640   3.087   8.035   1.385
  105GLOH   H08 9641   3.025   8.053   1.546
  105GLOH    C2 9642   3.187   7.913   1.530
  105GLOH   H04 9643   3.278   7.902   1.470
  105GLOH    O2 9644   3.222   7.913   1.670
  105GLOH   H05 9645   3.295   7.846   1.683
  105GLOH    C3 9646   3.094   7.794   1.501
  105GLOH   H06 9647   3.001   7.806   1.557
  105GLOH   H07 9648   3.142   7.704   1.539
  105GLOH    O3 9649   3.067   7.777   1.361
  105GLOH   H01 9650   2.988   7.832   1.335
  106GLOH   H03 9651   3.077   5.469   1.049
  106GLOH    O1 9652   3.008   5.523   1.003
  106GLOH    C1 9653   2.884   5.452   1.018
  106GLOH   H02 9654   2.802   5.522   1.027
  106GLOH   H08 9655   2.885   5.394   1.111
  106GLOH    C2 9656   2.854   5.355   0.901
  106GLOH   H04 9657   2.772   5.289   0.932
  106GLOH    O2 9658   2.815   5.427   0.783
  106GLOH   H05 9659   2.752   5.501   0.810
  106GLOH    C3 9660   2.977   5.267   0.871
  106GLOH   H06 9661   3.056   5.330   0.830
  106GLOH   H07 9662   2.951   5.196   0.793
  106GLOH    O3 9663   3.024   5.198   0.988
  106GLOH   H01 9664   3.095   5.253   1.030
  107GLOH   H03 9665   8.041   0.915   2.611
  107GLOH    O1 9666   8.044   0.866   2.527
  107GLOH    C1 9667   7.989   0.946   2.421
  107GLOH   H02 9668   8.059   1.025   2.393
  107GLOH   H08 9669   7.897   0.994   2.453
  107GLOH    C2 9670   7.959   0.862   2.295
  107GLOH   H04 9671   7.882   0.787   2.321
  107GLOH    O2 9672   7.909   0.945   2.188
  107GLOH   H05 9673   7.871   0.883   2.118
  107GLOH    C3 9674   8.085   0.787   2.249
  107GLOH   H06 9675   8.161   0.860   2.223
  107GLOH   H07 9676   8.061   0.731   2.159
  107GLOH    O3 9677   8.134   0.699   2.352
  107GLOH   H01 9678   8.113   0.745   2.437
  108GLOH   H03 9679   2.459   8.461   2.473
  108GLOH    O1 9680   2.520   8.473   2.398
  108GLOH    C1 9681   2.501   8.604   2.341
  108GLOH   H02 9682   2.552   8.678   2.402
  108GLOH   H08 9683   2.395   8.630   2.340
  108GLOH    C2 9684   2.554   8.613   2.197
  108GLOH   H04 9685   2.499   8.541   2.135
  108GLOH    O2 9686   2.535   8.746   2.143
  108GLOH   H05 9687   2.535   8.741   2.043
  108GLOH    C3 9688   2.703   8.575   2.194
  108GLOH   H06 9689   2.759   8.647   2.254
  108GLOH   H07 9690   2.740   8.583   2.092
  108GLOH    O3 9691   2.721   8.442   2.245
  108GLOH   H01 9692   2.655   8.434   2.318
  109GLOH   H03 9693   4.831   4.104   2.363
  109GLOH    O1 9694   4.861   4.071   2.452
  109GLOH    C1 9695   4.784   4.147   2.547
  109GLOH   H02 9696   4.829   4.245   2.562
  109GLOH   H08 9697   4.783   4.098   2.644
  109GLOH    C2 9698   4.638   4.167   2.501
  109GLOH   H04 9699   4.589   4.069   2.496
  109GLOH    O2 9700   4.569   4.251   2.596
  109GLOH   H05 9701   4.477   4.214   2.613
  109GLOH    C3 9702   4.633   4.231   2.360
  109GLOH   H06 9703   4.661   4.336   2.368
  109GLOH   H07 9704   4.530   4.228   2.325
  109GLOH    O3 9705   4.720   4.162   2.267
  109GLOH   H01 9706   4.686   4.176   2.174
  110GLOH   H03 9707   8.261   2.674   0.797
  110GLOH    O1 9708   8.279   2.709   0.888
  110GLOH    C1 9709   8.326   2.595   0.963
  110GLOH   H02 9710   8.242   2.530   0.991
  110GLOH   H08 9711   8.374   2.627   1.055
  110GLOH    C2 9712   8.426   2.510   0.881
  110GLOH   H04 9713   8.512   2.574   0.856
  110GLOH    O2 9714   8.471   2.397   0.959
  110GLOH   H05 9715   8.526   2.430   1.036
  110GLOH    C3 9716   8.361   2.463   0.750
  110GLOH   H06 9717   8.288   2.385   0.773
  110GLOH   H07 9718   8.438   2.417   0.688
  110GLOH    O3 9719   8.297   2.570   0.678
  110GLOH   H01 9720   8.358   2.602   0.607
  111GLOH   H03 9721   0.257   0.101   0.889
  111GLOH    O1 9722   0.233   0.124   0.984
  111GLOH    C1 9723   0.297   0.250   1.013
  111GLOH   H02 9724   0.296   0.315   0.925
  111GLOH   H08 9725   0.402   0.234   1.037
  111GLOH    C2 9726   0.231   0.324   1.131
  111GLOH   H04 9727   0.241   0.259   1.218
  111GLOH    O2 9728   0.297   0.450   1.160
  111GLOH   H05 9729   0.300   0.503   1.076
  111GLOH    C3 9730   0.081   0.345   1.105
  111GLOH   H06 9731   0.039   0.402   1.189
  111GLOH   H07 9732   0.031   0.248   1.105
  111GLOH    O3 9733   0.058   0.414   0.981
  111GLOH   H01 9734   9.983   0.480   0.994
  112GLOH   H03 9735   8.603   2.965   1.280
  112GLOH    O1 9736   8.685   2.927   1.240
  112GLOH    C1 9737   8.673   2.939   1.097
  112GLOH   H02 9738   8.622   2.851   1.057
  112GLOH   H08 9739   8.771   2.941   1.050
  112GLOH    C2 9740   8.595   3.065   1.054
  112GLOH   H04 9741   8.648   3.153   1.093
  112GLOH    O2 9742   8.590   3.072   0.911
  112GLOH   H05 9743   8.681   3.103   0.880
  112GLOH    C3 9744   8.454   3.062   1.115
  112GLOH   H06 9745   8.400   2.976   1.074
  112GLOH   H07 9746   8.400   3.151   1.083
  112GLOH    O3 9747   8.457   3.054   1.259
  112GLOH   H01 9748   8.402   2.977   1.288
  113GLOH   H03 9749   0.762   3.783   2.304
  113GLOH    O1 9750   0.776   3.713   2.373
  113GLOH    C1 9751   0.700   3.752   2.490
  113GLOH   H02 9752   0.709   3.675   2.567
  113GLOH   H08 9753   0.594   3.760   2.465
  113GLOH    C2 9754   0.747   3.886   2.548
  113GLOH   H04 9755   0.731   3.963   2.472
  113GLOH    O2 9756   0.671   3.922   2.666
  113GLOH   H05 9757   0.653   3.844   2.722
  113GLOH    C3 9758   0.898   3.882   2.581
  113GLOH   H06 9759   0.953   3.848   2.493
  113GLOH   H07 9760   0.915   3.809   2.660
  113GLOH    O3 9761   0.945   4.012   2.620
  113GLOH   H01 9762   0.881   4.047   2.685
  114GLOH   H03 9763   9.587   2.739   0.540
  114GLOH    O1 9764   9.489   2.721   0.555
  114GLOH    C1 9765   9.472   2.579   0.539
  114GLOH   H02 9766   9.509   2.526   0.627
  114GLOH   H08 9767   9.530   2.542   0.454
  114GLOH    C2 9768   9.325   2.538   0.517
  114GLOH   H04 9769   9.284   2.597   0.434
  114GLOH    O2 9770   9.319   2.397   0.482
  114GLOH   H05 9771   9.223   2.374   0.465
  114GLOH    C3 9772   9.240   2.566   0.644
  114GLOH   H06 9773   9.265   2.667   0.679
  114GLOH   H07 9774   9.271   2.497   0.722
  114GLOH    O3 9775   9.098   2.556   0.620
  114GLOH   H01 9776   9.056   2.494   0.685
  115GLOH   H03 9777   8.534   8.087   2.034
  115GLOH    O1 9778   8.591   8.155   1.990
  115GLOH    C1 9779   8.658   8.228   2.095
  115GLOH   H02 9780   8.751   8.178   2.120
  115GLOH   H08 9781   8.598   8.229   2.186
  115GLOH    C2 9782   8.689   8.374   2.057
  115GLOH   H04 9783   8.719   8.427   2.149
  115GLOH    O2 9784   8.798   8.382   1.962
  115GLOH   H05 9785   8.883   8.400   2.011
  115GLOH    C3 9786   8.563   8.443   2.003
  115GLOH   H06 9787   8.533   8.395   1.910
  115GLOH   H07 9788   8.588   8.546   1.978
  115GLOH    O3 9789   8.454   8.441   2.098
  115GLOH   H01 9790   8.377   8.397   2.054
  116GLOH   H03 9791   2.374   6.385   0.638
  116GLOH    O1 9792   2.440   6.456   0.616
  116GLOH    C1 9793   2.384   6.542   0.516
  116GLOH   H02 9794   2.366   6.642   0.558
  116GLOH   H08 9795   2.287   6.505   0.483
  116GLOH    C2 9796   2.474   6.557   0.393
  116GLOH   H04 9797   2.487   6.458   0.347
  116GLOH    O2 9798   2.410   6.645   0.298
  116GLOH   H05 9799   2.481   6.699   0.257
  116GLOH    C3 9800   2.612   6.611   0.434
  116GLOH   H06 9801   2.657   6.540   0.504
  116GLOH   H07 9802   2.598   6.704   0.489
  116GLOH    O3 9803   2.700   6.631   0.322
  116GLOH   H01 9804   2.771   6.693   0.351
  117GLOH   H03 9805   0.097   6.205   1.627
  117GLOH    O1 9806   0.053   6.117   1.613
  117GLOH    C1 9807   0.015   6.110   1.474
  117GLOH   H02 9808   9.974   6.206   1.442
  117GLOH   H08 9809   9.935   6.037   1.461
  117GLOH    C2 9810   0.131   6.072   1.379
  117GLOH   H04 9811   0.222   6.120   1.419
  117GLOH    O2 9812   0.154   5.929   1.375
  117GLOH   H05 9813   0.251   5.911   1.394
  117GLOH    C3 9814   0.106   6.132   1.240
  117GLOH   H06 9815   0.174   6.085   1.169
  117GLOH   H07 9816   0.133   6.237   1.243
  117GLOH    O3 9817   9.970   6.117   1.195
  117GLOH   H01 9818   9.955   6.028   1.156
  118GLOH   H03 9819   4.696   4.168   1.488
  118GLOH    O1 9820   4.724   4.206   1.399
  118GLOH    C1 9821   4.609   4.266   1.337
  118GLOH   H02 9822   4.579   4.355   1.392
  118GLOH   H08 9823   4.524   4.197   1.338
  118GLOH    C2 9824   4.636   4.306   1.191
  118GLOH   H04 9825   4.665   4.215   1.135
  118GLOH    O2 9826   4.520   4.364   1.128
  118GLOH   H05 9827   4.515   4.325   1.036
  118GLOH    C3 9828   4.754   4.405   1.186
  118GLOH   H06 9829   4.727   4.496   1.237
  118GLOH   H07 9830   4.774   4.430   1.082
  118GLOH    O3 9831   4.871   4.346   1.245
  118GLOH   H01 9832   4.837   4.294   1.323
  119GLOH   H03 9833   1.990   7.533   1.538
  119GLOH    O1 9834   1.938   7.529   1.623
  119GLOH    C1 9835   1.846   7.640   1.624
  119GLOH   H02 9836   1.806   7.657   1.524
  119GLOH   H08 9837   1.897   7.732   1.653
  119GLOH    C2 9838   1.727   7.619   1.721
  119GLOH   H04 9839   1.766   7.621   1.824
  119GLOH    O2 9840   1.633   7.726   1.703
  119GLOH   H05 9841   1.576   7.739   1.785
  119GLOH    C3 9842   1.661   7.482   1.695
  119GLOH   H06 9843   1.612   7.485   1.597
  119GLOH   H07 9844   1.582   7.467   1.769
  119GLOH    O3 9845   1.757   7.375   1.700
  119GLOH   H01 9846   1.841   7.417   1.668
  120GLOH   H03 9847   3.531   0.722   1.304
  120GLOH    O1 9848   3.491   0.793   1.361
  120GLOH    C1 9849   3.384   0.734   1.437
  120GLOH   H02 9850   3.425   0.663   1.509
  120GLOH   H08 9851   3.318   0.678   1.372
  120GLOH    C2 9852   3.300   0.837   1.515
  120GLOH   H04 9853   3.229   0.779   1.575
  120GLOH    O2 9854   3.378   0.917   1.606
  120GLOH   H05 9855   3.398   1.007   1.565
  120GLOH    C3 9856   3.215   0.924   1.420
  120GLOH   H06 9857   3.279   0.960   1.340
  120GLOH   H07 9858   3.180   1.012   1.474
  120GLOH    O3 9859   3.104   0.851   1.366
  120GLOH   H01 9860   3.038   0.840   1.438
  121ACOH    H4 9861   3.626   8.249   1.689
  121ACOH    O2 9862   3.604   8.152   1.671
  121ACOH    C2 9863   3.645   8.126   1.546
  121ACOH    O1 9864   3.728   8.189   1.483
  121ACOH    C1 9865   3.594   7.995   1.498
  121ACOH    H1 9866   3.522   7.954   1.569
  121ACOH    H2 9867   3.676   7.925   1.487
  121ACOH    H3 9868   3.545   8.008   1.402
  122ACOH    H4 9869   1.866   3.498   0.545
  122ACOH    O2 9870   1.956   3.460   0.529
  122ACOH    C2 9871   1.968   3.445   0.395
  122ACOH    O1 9872   1.885   3.476   0.312
  122ACOH    C1 9873   2.099   3.386   0.361
  122ACOH    H1 9874   2.179   3.447   0.402
  122ACOH    H2 9875   2.112   3.381   0.253
  122ACOH    H3 9876   2.106   3.286   0.401
  123ACOH    H4 9877   4.314   1.140   1.678
  123ACOH    O2 9878   4.333   1.185   1.765
  123ACOH    C2 9879   4.368   1.312   1.734
  123ACOH    O1 9880   4.383   1.359   1.623
  123ACOH    C1 9881   4.390   1.392   1.857
  123ACOH    H1 9882   4.414   1.495   1.832
  123ACOH    H2 9883   4.472   1.349   1.913
  123ACOH    H3 9884   4.300   1.390   1.919
  124ACOH    H4 9885   8.507   2.889   0.622
  124ACOH    O2 9886   8.525   2.910   0.527
  124ACOH    C2 9887   8.510   2.796   0.458
  124ACOH    O1 9888   8.462   2.692   0.499
  124ACOH    C1 9889   8.545   2.818   0.315
  124ACOH    H1 9890   8.489   2.903   0.277
  124ACOH    H2 9891   8.521   2.730   0.256
  124ACOH    H3 9892   8.651   2.839   0.307
  125ACOH    H4 9893   8.601   6.817   1.854
  125ACOH    O2 9894   8.510   6.857   1.850
  125ACOH    C2 9895   8.525   6.991   1.861
  125ACOH    O1 9896   8.630   7.052   1.864
  125ACOH    C1 9897   8.394   7.060   1.859
  125ACOH    H1 9898   8.387   7.123   1.770
  125ACOH    H2 9899   8.385   7.123   1.947
  125ACOH    H3 9900   8.313   6.989   1.858
  126ACOH    H4 9901   3.890   5.178   1.847
  126ACOH    O2 9902   3.865   5.192   1.751
  126ACOH    C2 9903   3.743   5.249   1.751
  126ACOH    O1 9904   3.672   5.267   1.847
  126ACOH    C1 9905   3.697   5.281   1.614
  126ACOH    H1 9906   3.773   5.256   1.540
  126ACOH    H2 9907   3.674   5.386   1.606
  126ACOH    H3 9908   3.608   5.223   1.592
  127ACOH    H4 9909   8.742   5.983   0.582
  127ACOH    O2 9910   8.661   5.925   0.580
  127ACOH    C2 9911   8.569   5.991   0.507
  127ACOH    O1 9912   8.578   6.103   0.460
  127ACOH    C1 9913   8.448   5.907   0.493
  127ACOH    H1 9914   8.474   5.815   0.441
  127ACOH    H2 9915   8.371   5.959   0.436
  127ACOH    H3 9916   8.409   5.883   0.591
  128ACOH    H4 9917   2.942   6.986   1.241
  128ACOH    O2 9918   2.971   6.923   1.312
  128ACOH    C2 9919   2.957   6.988   1.428
  128ACOH    O1 9920   2.965   7.109   1.445
  128ACOH    C1 9921   2.956   6.894   1.542
  128ACOH    H1 9922   3.049   6.902   1.598
  128ACOH    H2 9923   2.945   6.792   1.507
  128ACOH    H3 9924   2.872   6.916   1.607
  129ACOH    H4 9925   9.448   7.936   2.183
  129ACOH    O2 9926   9.410   7.901   2.268
  129ACOH    C2 9927   9.370   8.010   2.337
  129ACOH    O1 9928   9.350   8.121   2.292
  129ACOH    C1 9929   9.332   7.972   2.475
  129ACOH    H1 9930   9.288   8.057   2.528
  129ACOH    H2 9931   9.420   7.939   2.529
  129ACOH    H3 9932   9.260   7.891   2.473
  130ACOH    H4 9933   8.263   7.534   1.444
  130ACOH    O2 9934   8.307   7.459   1.394
  130ACOH    C2 9935   8.273   7.346   1.458
  130ACOH    O1 9936   8.214   7.336   1.563
  130ACOH    C1 9937   8.323   7.227   1.384
  130ACOH    H1 9938   8.431   7.232   1.376
  130ACOH    H2 9939   8.280   7.227   1.284
  130ACOH    H3 9940   8.295   7.136   1.435
  131ACOH    H4 9941   5.358   9.365   1.609
  131ACOH    O2 9942   5.453   9.346   1.601
  131ACOH    C2 9943   5.499   9.336   1.727
  131ACOH    O1 9944   5.434   9.351   1.828
  131ACOH    C1 9945   5.645   9.308   1.731
  131ACOH    H1 9946   5.662   9.214   1.784
  131ACOH    H2 9947   5.696   9.388   1.783
  131ACOH    H3 9948   5.685   9.299   1.630
  132ACOH    H4 9949   2.983   9.347   2.274
  132ACOH    O2 9950   2.886   9.366   2.266
  132ACOH    C2 9951   2.830   9.251   2.222
  132ACOH    O1 9952   2.887   9.153   2.178
  132ACOH    C1 9953   2.682   9.263   2.222
  132ACOH    H1 9954   2.636   9.172   2.185
  132ACOH    H2 9955   2.652   9.346   2.158
  132ACOH    H3 9956   2.647   9.282   2.323
  133ACOH    H4 9957   8.755   4.283   1.754
  133ACOH    O2 9958   8.712   4.353   1.696
  133ACOH    C2 9959   8.812   4.405   1.622
  133ACOH    O1 9960   8.930   4.399   1.648
  133ACOH    C1 9961   8.759   4.494   1.516
  133ACOH    H1 9962   8.650   4.488   1.510
  133ACOH    H2 9963   8.801   4.465   1.420
  133ACOH    H3 9964   8.787   4.596   1.537
  134ACOH    H4 9965   7.286   0.871   1.105
  134ACOH    O2 9966   7.332   0.957   1.084
  134ACOH    C2 9967   7.449   0.957   1.149
  134ACOH    O1 9968   7.496   0.868   1.218
  134ACOH    C1 9969   7.522   1.083   1.125
  134ACOH    H1 9970   7.610   1.090   1.188
  134ACOH    H2 9971   7.456   1.167   1.146
  134ACOH    H3 9972   7.552   1.087   1.021
  135ACOH    H4 9973   4.036   1.116   2.466
  135ACOH    O2 9974   3.974   1.151   2.400
  135ACOH    C2 9975   3.926   1.043   2.335
  135ACOH    O1 9976   3.948   0.927   2.363
  135ACOH    C1 9977   3.832   1.084   2.228
  135ACOH    H1 9978   3.885   1.144   2.154
  135ACOH    H2 9979   3.751   1.141   2.270
  135ACOH    H3 9980   3.792   0.996   2.178
  136ACOH    H4 9981   7.955   8.290   1.813
  136ACOH    O2 9982   7.919   8.315   1.902
  136ACOH    C2 9983   7.821   8.404   1.882
  136ACOH    O1 9984   7.780   8.444   1.774
  136ACOH    C1 9985   7.763   8.448   2.011
  136ACOH    H1 9986   7.682   8.519   1.994
  136ACOH    H2 9987   7.840   8.495   2.071
  136ACOH    H3 9988   7.723   8.362   2.064
  137ACOH    H4 9989   4.478   0.387   2.450
  137ACOH    O2 9990   4.569   0.358   2.421
  137ACOH    C2 9991   4.548   0.272   2.320
  137ACOH    O1 9992   4.444   0.215   2.293
  137ACOH    C1 9993   4.675   0.236   2.252
  137ACOH    H1 9994   4.757   0.298   2.288
  137ACOH    H2 9995   4.664   0.250   2.145
  137ACOH    H3 9996   4.698   0.131   2.271
  138ACOH    H4 9997   5.089   3.689   1.246
  138ACOH    O2 9998   5.110   3.593   1.227
  138ACOH    C2 9999   5.229   3.569   1.285
  138ACOH    O110000   5.296   3.648   1.350
  138ACOH    C110001   5.273   3.430   1.259
  138ACOH    H110002   5.369   3.411   1.307
  138ACOH    H210003   5.283   3.415   1.152
  138ACOH    H310004   5.199   3.361   1.299
  139ACOH    H410005   2.942   2.160   1.843
  139ACOH    O210006   2.923   2.121   1.753
  139ACOH    C210007   2.943   1.989   1.761
  139ACOH    O110008   2.959   1.924   1.863
  139ACOH    C110009   2.923   1.923   1.630
  139ACOH    H110010   2.921   1.996   1.549
  139ACOH    H210011   2.828   1.869   1.630
  139ACOH    H310012   3.003   1.852   1.610
  140ACOH    H410013   7.556   9.923   2.061
  140ACOH    O210014   7.508   9.888   2.141
  140ACOH    C210015   7.506   9.987   2.232
  140ACOH    O110016   7.554   0.099   2.221
  140ACOH    C110017   7.438   9.941   2.355
  140ACOH    H110018   7.438   0.020   2.431
  140ACOH    H210019   7.490   9.854   2.395
  140ACOH    H310020   7.336   9.914   2.332
  141ACOH    H410021   8.916   0.900   1.672
  141ACOH    O210022   8.981   0.832   1.643
  141ACOH    C210023   8.908   0.730   1.591
  141ACOH    O110024   8.786   0.725   1.581
  141ACOH    C110025   8.996   0.620   1.548
  141ACOH    H110026   8.938   0.536   1.510
  141ACOH    H210027   9.056   0.586   1.632
  141ACOH    H310028   9.062   0.655   1.470
  142ACOH    H410029   4.949   8.224   1.199
  142ACOH    O210030   4.939   8.130   1.226
  142ACOH    C210031   4.951   8.124   1.360
  142ACOH    O110032   4.974   8.217   1.435
  142ACOH    C110033   4.934   7.985   1.408
  142ACOH    H110034   4.835   7.949   1.382
  142ACOH    H210035   4.947   7.980   1.516
  142ACOH    H310036   5.008   7.922   1.360
  143ACOH    H410037   5.024   3.811   0.499
  143ACOH    O210038   5.044   3.909   0.497
  143ACOH    C210039   5.179   3.918   0.506
  143ACOH    O110040   5.257   3.824   0.511
  143ACOH    C110041   5.223   4.059   0.509
  143ACOH    H110042   5.331   4.065   0.513
  143ACOH    H210043   5.182   4.108   0.597
  143ACOH    H310044   5.188   4.111   0.420
  144ACOH    H410045   4.592   1.111   1.052
  144ACOH    O210046   4.682   1.148   1.075
  144ACOH    C210047   4.661   1.257   1.151
  144ACOH    O110048   4.555   1.309   1.180
  144ACOH    C110049   4.790   1.319   1.192
  144ACOH    H110050   4.874   1.260   1.155
  144ACOH    H210051   4.795   1.323   1.300
  144ACOH    H310052   4.797   1.420   1.152
  145ACOH    H410053   3.297   7.536   1.699
  145ACOH    O210054   3.387   7.506   1.668
  145ACOH    C210055   3.464   7.616   1.667
  145ACOH    O110056   3.429   7.731   1.690
  145ACOH    C110057   3.601   7.585   1.622
  145ACOH    H110058   3.673   7.628   1.691
  145ACOH    H210059   3.617   7.627   1.523
  145ACOH    H310060   3.616   7.477   1.618
  146ACOH    H410061   4.913   2.755   1.753
  146ACOH    O210062   4.986   2.733   1.818
  146ACOH    C210063   4.933   2.653   1.911
  146ACOH    O110064   4.820   2.607   1.912
  146ACOH    C110065   5.030   2.622   2.019
  146ACOH    H110066   5.125   2.673   2.001
  146ACOH    H210067   5.048   2.515   2.024
  146ACOH    H310068   4.991   2.657   2.115
  147ACOH    H410069   6.984   9.645   2.627
  147ACOH    O210070   6.989   9.724   2.683
  147ACOH    C210071   6.910   9.700   2.789
  147ACOH    O110072   6.846   9.598   2.808
  147ACOH    C110073   6.911   9.814   0.063
  147ACOH    H110074   6.874   9.903   0.013
  147ACOH    H210075   7.013   9.832   0.097
  147ACOH    H310076   6.848   9.793   0.150
  148ACOH    H410077   8.439   6.936   0.951
  148ACOH    O210078   8.417   6.839   0.949
  148ACOH    C210079   8.531   6.772   0.972
  148ACOH    O110080   8.640   6.820   0.999
  148ACOH    C110081   8.507   6.626   0.964
  148ACOH    H110082   8.473   6.600   0.865
  148ACOH    H210083   8.431   6.598   1.036
  148ACOH    H310084   8.598   6.570   0.986
  149ACOH    H410085   4.414   0.792   1.917
  149ACOH    O210086   4.459   0.703   1.916
  149ACOH    C210087   4.368   0.612   1.875
  149ACOH    O110088   4.257   0.637   1.832
  149ACOH    C110089   4.429   0.478   1.866
  149ACOH    H110090   4.450   0.440   1.965
  149ACOH    H210091   4.522   0.484   1.810
  149ACOH    H310092   4.362   0.409   1.816
  150ACOH    H410093   3.241   9.105   2.311
  150ACOH    O210094   3.313   9.167   2.341
  150ACOH    C210095   3.265   9.292   2.328
  150ACOH    O110096   3.158   9.325   2.281
  150ACOH    C110097   3.364   9.391   2.378
  150ACOH    H110098   3.447   9.342   2.428
  150ACOH    H210099   3.316   9.459   2.448
  150ACOH    H310100   3.403   9.448   2.294
  151ACOH    H410101   4.161   9.520   0.950
  151ACOH    O210102   4.243   9.474   0.917
  151ACOH    C210103   4.340   9.567   0.916
  151ACOH    O110104   4.332   9.682   0.956
  151ACOH    C110105   4.466   9.509   0.863
  151ACOH    H110106   4.452   9.482   0.759
  151ACOH    H210107   4.492   9.421   0.921
  151ACOH    H310108   4.547   9.582   0.870
  152ACOH    H410109   4.480   0.981   2.237
  152ACOH    O210110   4.562   0.955   2.194
  152ACOH    C210111   4.579   1.035   2.087
  152ACOH    O110112   4.540   1.149   2.078
  152ACOH    C110113   4.682   0.976   1.997
  152ACOH    H110114   4.717   1.050   1.926
  152ACOH    H210115   4.639   0.892   1.944
  152ACOH    H310116   4.765   0.941   2.057
  153ACOH    H410117   3.667   7.694   0.767
  153ACOH    O210118   3.748   7.654   0.723
  153ACOH    C210119   3.706   7.545   0.656
  153ACOH    O110120   3.591   7.507   0.641
  153ACOH    C110121   3.821   7.477   0.593
  153ACOH    H110122   3.887   7.439   0.671
  153ACOH    H210123   3.876   7.549   0.533
  153ACOH    H310124   3.789   7.395   0.530
  154ACOH    H410125   3.267   5.853   2.434
  154ACOH    O210126   3.205   5.829   2.359
  154ACOH    C210127   3.225   5.699   2.328
  154ACOH    O110128   3.296   5.620   2.388
  154ACOH    C110129   3.139   5.657   2.215
  154ACOH    H110130   3.087   5.743   2.172
  154ACOH    H210131   3.066   5.585   2.248
  154ACOH    H310132   3.201   5.611   2.137
  155ACOH    H410133   3.731   5.472   1.258
  155ACOH    O210134   3.815   5.523   1.241
  155ACOH    C210135   3.888   5.450   1.156
  155ACOH    O110136   3.868   5.334   1.123
  155ACOH    C110137   4.011   5.522   1.114
  155ACOH    H110138   4.010   5.624   1.150
  155ACOH    H210139   4.018   5.522   1.005
  155ACOH    H310140   4.098   5.471   1.155
  156ACOH    H410141   3.805   7.728   0.121
  156ACOH    O210142   3.888   7.771   0.155
  156ACOH    C210143   3.913   7.876   0.075
  156ACOH    O110144   3.861   7.902   2.789
  156ACOH    C110145   4.023   7.957   0.133
  156ACOH    H110146   4.112   7.895   0.142
  156ACOH    H210147   3.994   7.992   0.231
  156ACOH    H310148   4.045   8.043   0.069
  157ACOH    H410149   8.540   2.502   2.261
  157ACOH    O210150   8.446   2.477   2.257
  157ACOH    C210151   8.434   2.361   2.325
  157ACOH    O110152   8.524   2.300   2.380
  157ACOH    C110153   8.294   2.312   2.325
  157ACOH    H110154   8.261   2.295   2.427
  157ACOH    H210155   8.288   2.219   2.269
  157ACOH    H310156   8.228   2.384   2.279
  158ACOH    H410157   7.740   8.116   2.280
  158ACOH    O210158   7.711   8.116   2.184
  158ACOH    C210159   7.806   8.052   2.114
  158ACOH    O110160   7.921   8.032   2.149
  158ACOH    C110161   7.760   8.023   1.976
  158ACOH    H110162   7.655   8.051   1.963
  158ACOH    H210163   7.770   7.917   1.955
  158ACOH    H310164   7.819   8.078   1.904
  159ACOH    H410165   8.217   6.853   0.251
  159ACOH    O210166   8.139   6.861   0.189
  159ACOH    C210167   8.157   6.973   0.117
  159ACOH    O110168   8.248   7.054   0.128
  159ACOH    C110169   8.046   6.990   0.020
  159ACOH    H110170   7.952   6.997   0.073
  159ACOH    H210171   8.043   6.903   2.775
  159ACOH    H310172   8.061   7.079   2.779
  160ACOH    H410173   3.592   4.974   1.580
  160ACOH    O210174   3.660   4.937   1.643
  160ACOH    C210175   3.601   4.923   1.763
  160ACOH    O110176   3.486   4.949   1.790
  160ACOH    C110177   3.695   4.865   1.862
  160ACOH    H110178   3.729   4.767   1.828
  160ACOH    H210179   3.648   4.855   1.959
  160ACOH    H310180   3.782   4.930   1.871
  161ACOH    H410181   4.234   4.914   1.414
  161ACOH    O210182   4.161   4.905   1.348
  161ACOH    C210183   4.215   4.852   1.237
  161ACOH    O110184   4.327   4.806   1.225
  161ACOH    C110185   4.112   4.843   1.130
  161ACOH    H110186   4.151   4.792   1.042
  161ACOH    H210187   4.082   4.943   1.101
  161ACOH    H310188   4.025   4.789   1.167
  162ACOH    H410189   8.498   2.656   1.444
  162ACOH    O210190   8.419   2.662   1.504
  162ACOH    C210191   8.352   2.773   1.467
  162ACOH    O110192   8.355   2.826   1.357
  162ACOH    C110193   8.255   2.812   1.572
  162ACOH    H110194   8.193   2.895   1.538
  162ACOH    H210195   8.309   2.843   1.661
  162ACOH    H310196   8.191   2.728   1.596
  163ACOH    H410197   4.464   0.156   1.291
  163ACOH    O210198   4.527   0.164   1.368
  163ACOH    C210199   4.488   0.271   1.441
  163ACOH    O110200   4.416   0.362   1.404
  163ACOH    C110201   4.553   0.271   1.574
  163ACOH    H110202   4.476   0.265   1.651
  163ACOH    H210203   4.610   0.362   1.588
  163ACOH    H310204   4.619   0.185   1.585
  164ACOH    H410205   4.844   2.655   1.242
  164ACOH    O210206   4.841   2.558   1.269
  164ACOH    C210207   4.806   2.490   1.159
  164ACOH    O110208   4.741   2.533   1.065
  164ACOH    C110209   4.827   2.345   1.177
  164ACOH    H110210   4.889   2.325   1.264
  164ACOH    H210211   4.877   2.304   1.089
  164ACOH    H310212   4.732   2.295   1.189
  165ACOH    H410213   8.077   2.601   1.307
  165ACOH    O210214   8.052   2.569   1.397
  165ACOH    C210215   8.090   2.440   1.405
  165ACOH    O110216   8.160   2.379   1.327
  165ACOH    C110217   8.044   2.379   1.532
  165ACOH    H110218   8.130   2.356   1.595
  165ACOH    H210219   7.990   2.287   1.512
  165ACOH    H310220   7.978   2.447   1.586
  166ACOH    H410221   4.182   8.210   0.953
  166ACOH    O210222   4.217   8.136   0.899
  166ACOH    C210223   4.263   8.190   0.784
  166ACOH    O110224   4.281   8.308   0.762
  166ACOH    C110225   4.304   8.084   0.690
  166ACOH    H110226   4.349   8.127   0.601
  166ACOH    H210227   4.216   8.027   0.660
  166ACOH    H310228   4.375   8.017   0.738
  167ACOH    H410229   4.134   1.687   1.724
  167ACOH    O210230   4.202   1.691   1.651
  167ACOH    C210231   4.161   1.785   1.565
  167ACOH    O110232   4.059   1.851   1.571
  167ACOH    C110233   4.257   1.798   1.453
  167ACOH    H110234   4.225   1.874   1.382
  167ACOH    H210235   4.266   1.703   1.401
  167ACOH    H310236   4.355   1.825   1.493
  168ACOH    H410237   7.418   9.043   1.129
  168ACOH    O210238   7.330   9.000   1.109
  168ACOH    C210239   7.252   9.091   1.049
  168ACOH    O110240   7.283   9.204   1.014
  168ACOH    C110241   7.119   9.034   1.018
  168ACOH    H110242   7.107   9.025   0.910
  168ACOH    H210243   7.040   9.098   1.057
  168ACOH    H310244   7.108   8.935   1.063
  169ACOH    H410245   2.794   6.859   2.025
  169ACOH    O210246   2.802   6.897   1.932
  169ACOH    C210247   2.807   7.031   1.945
  169ACOH    O110248   2.804   7.096   2.048
  169ACOH    C110249   2.807   7.095   1.811
  169ACOH    H110250   2.787   7.202   1.819
  169ACOH    H210251   2.730   7.050   1.749
  169ACOH    H310252   2.904   7.081   1.764
  170ACOH    H410253   2.989   0.318   0.910
  170ACOH    O210254   3.026   0.385   0.973
  170ACOH    C210255   2.950   0.379   1.084
  170ACOH    O110256   2.860   0.300   1.106
  170ACOH    C110257   2.996   0.479   1.183
  170ACOH    H110258   2.986   0.579   1.142
  170ACOH    H210259   3.100   0.461   1.208
  170ACOH    H310260   2.937   0.473   1.275
  171ACOH    H410261   1.455   5.757   0.703
  171ACOH    O210262   1.542   5.713   0.683
  171ACOH    C210263   1.636   5.791   0.740
  171ACOH    O110264   1.617   5.870   0.831
  171ACOH    C110265   1.772   5.750   0.699
  171ACOH    H110266   1.822   5.701   0.783
  171ACOH    H210267   1.830   5.837   0.671
  171ACOH    H310268   1.769   5.681   0.615
  172ACOH    H410269   8.210   2.803   0.982
  172ACOH    O210270   8.171   2.875   1.039
  172ACOH    C210271   8.106   2.816   1.140
  172ACOH    O110272   8.095   2.696   1.161
  172ACOH    C110273   8.042   2.917   1.228
  172ACOH    H110274   8.119   2.980   1.271
  172ACOH    H210275   7.985   2.870   1.307
  172ACOH    H310276   7.975   2.979   1.168
  173ACOH    H410277   3.783   8.095   2.150
  173ACOH    O210278   3.843   8.080   2.073
  173ACOH    C210279   3.856   8.196   2.007
  173ACOH    O110280   3.817   8.306   2.044
  173ACOH    C110281   3.937   8.178   1.884
  173ACOH    H110282   4.032   8.133   1.910
  173ACOH    H210283   3.955   8.273   1.835
  173ACOH    H310284   3.884   8.112   1.816
  174ACOH    H410285   8.559   4.395   1.740
  174ACOH    O210286   8.466   4.423   1.759
  174ACOH    C210287   8.454   4.430   1.893
  174ACOH    O110288   8.541   4.409   1.975
  174ACOH    C110289   8.318   4.471   1.935
  174ACOH    H110290   8.256   4.489   1.848
  174ACOH    H210291   8.324   4.562   1.994
  174ACOH    H310292   8.273   4.392   1.995
  175ACOH    H410293   3.451   0.850   0.773
  175ACOH    O210294   3.533   0.899   0.800
  175ACOH    C210295   3.522   1.024   0.750
  175ACOH    O110296   3.430   1.069   0.684
  175ACOH    C110297   3.639   1.106   0.787
  175ACOH    H110298   3.607   1.192   0.846
  175ACOH    H210299   3.689   1.141   0.698
  175ACOH    H310300   3.709   1.048   0.846
  176ACOH    H410301   4.905   2.392   0.699
  176ACOH    O210302   4.974   2.368   0.632
  176ACOH    C210303   4.993   2.476   0.554
  176ACOH    O110304   4.939   2.585   0.565
  176ACOH    C110305   5.090   2.445   0.446
  176ACOH    H110306   5.107   2.533   0.385
  176ACOH    H210307   5.051   2.365   0.385
  176ACOH    H310308   5.184   2.413   0.491
  177ACOH    H410309   4.965   4.325   1.134
  177ACOH    O210310   5.024   4.313   1.054
  177ACOH    C210311   4.994   4.195   0.998
  177ACOH    O110312   4.914   4.111   1.039
  177ACOH    C110313   5.075   4.175   0.876
  177ACOH    H110314   5.050   4.081   0.828
  177ACOH    H210315   5.180   4.173   0.904
  177ACOH    H310316   5.058   4.258   0.808
  178ACOH    H410317   4.342   0.518   2.185
  178ACOH    O210318   4.442   0.523   2.194
  178ACOH    C210319   4.470   0.643   2.247
  178ACOH    O110320   4.391   0.727   2.286
  178ACOH    C110321   4.617   0.657   2.262
  178ACOH    H110322   4.657   0.572   2.317
  178ACOH    H210323   4.641   0.748   2.316
  178ACOH    H310324   4.662   0.661   2.163
  179ACOH    H410325   7.582   8.364   0.252
  179ACOH    O210326   7.587   8.375   0.349
  179ACOH    C210327   7.560   8.504   0.373
  179ACOH    O110328   7.525   8.587   0.292
  179ACOH    C110329   7.574   8.534   0.518
  179ACOH    H110330   7.674   8.508   0.550
  179ACOH    H210331   7.502   8.475   0.573
  179ACOH    H310332   7.557   8.639   0.537
  180ACOH    H410333   3.189   7.700   1.327
  180ACOH    O210334   3.272   7.646   1.314
  180ACOH    C210335   3.347   7.715   1.226
  180ACOH    O110336   3.335   7.833   1.198
  180ACOH    C110337   3.462   7.634   1.179
  180ACOH    H110338   3.461   7.629   1.071
  180ACOH    H210339   3.457   7.533   1.218
  180ACOH    H310340   3.555   7.681   1.211
  181ACOH    H410341   8.108   2.133   1.759
  181ACOH    O210342   8.046   2.093   1.692
  181ACOH    C210343   8.120   2.014   1.612
  181ACOH    O110344   8.241   2.002   1.613
  181ACOH    C110345   8.036   1.950   1.508
  181ACOH    H110346   7.930   1.967   1.527
  181ACOH    H210347   8.055   1.843   1.506
  181ACOH    H310348   8.061   1.992   1.410
  182ACOH    H410349   4.195   9.891   1.874
  182ACOH    O210350   4.199   9.918   1.777
  182ACOH    C210351   4.153   9.813   1.706
  182ACOH    O110352   4.095   9.715   1.749
  182ACOH    C110353   4.171   9.836   1.561
  182ACOH    H110354   4.073   9.843   1.513
  182ACOH    H210355   4.225   9.753   1.517
  182ACOH    H310356   4.226   9.928   1.542
  183ACOH    H410357   4.496   8.865   0.859
  183ACOH    O210358   4.576   8.905   0.902
  183ACOH    C210359   4.578   9.035   0.867
  183ACOH    O110360   4.484   9.100   0.826
  183ACOH    C110361   4.705   9.100   0.908
  183ACOH    H110362   4.778   9.025   0.939
  183ACOH    H210363   4.687   9.168   0.990
  183ACOH    H310364   4.746   9.156   0.824
  184ACOH    H410365   3.280   5.193   2.081
  184ACOH    O210366   3.293   5.160   1.988
  184ACOH    C210367   3.261   5.263   1.907
  184ACOH    O110368   3.192   5.359   1.937
  184ACOH    C110369   3.304   5.236   1.768
  184ACOH    H110370   3.271   5.138   1.737
  184ACOH    H210371   3.413   5.239   1.763
  184ACOH    H310372   3.264   5.310   1.699
  185ACOH    H410373   4.965   2.786   2.346
  185ACOH    O210374   4.959   2.719   2.420
  185ACOH    C210375   4.832   2.675   2.427
  185ACOH    O110376   4.745   2.689   2.343
  185ACOH    C110377   4.813   2.588   2.545
  185ACOH    H110378   4.727   2.621   2.603
  185ACOH    H210379   4.901   2.591   2.610
  185ACOH    H310380   4.797   2.485   2.513
  186ACOH    H410381   2.883   6.587   0.679
  186ACOH    O210382   2.951   6.566   0.609
  186ACOH    C210383   2.931   6.439   0.569
  186ACOH    O110384   2.845   6.362   0.608
  186ACOH    C110385   3.028   6.402   0.464
  186ACOH    H110386   3.016   6.298   0.434
  186ACOH    H210387   3.129   6.417   0.500
  186ACOH    H310388   3.013   6.466   0.377
  187ACOH    H410389   3.012   5.660   0.955
  187ACOH    O210390   3.008   5.754   0.919
  187ACOH    C210391   3.096   5.824   0.994
  187ACOH    O110392   3.195   5.779   1.047
  187ACOH    C110393   3.076   5.969   0.978
  187ACOH    H110394   3.154   6.009   0.913
  187ACOH    H210395   3.082   6.018   1.074
  187ACOH    H310396   2.980   5.991   0.933
  188ACOH    H410397   4.465   2.829   2.104
  188ACOH    O210398   4.439   2.837   2.008
  188ACOH    C210399   4.361   2.732   1.976
  188ACOH    O110400   4.293   2.733   1.875
  188ACOH    C110401   4.353   2.623   2.076
  188ACOH    H110402   4.453   2.583   2.094
  188ACOH    H210403   4.291   2.542   2.038
  188ACOH    H310404   4.311   2.660   2.169
  189ACOH    H410405   7.867   1.238   0.951
  189ACOH    O210406   7.772   1.269   0.951
  189ACOH    C210407   7.754   1.341   1.063
  189ACOH    O110408   7.831   1.348   1.157
  189ACOH    C110409   7.621   1.406   1.069
  189ACOH    H110410   7.563   1.365   1.151
  189ACOH    H210411   7.567   1.391   0.976
  189ACOH    H310412   7.634   1.513   1.086
  190ACOH    H410413   4.649   4.266   0.815
  190ACOH    O210414   4.737   4.276   0.771
  190ACOH    C210415   4.711   4.301   0.641
  190ACOH    O110416   4.603   4.331   0.592
  190ACOH    C110417   4.835   4.305   0.560
  190ACOH    H110418   4.850   4.405   0.522
  190ACOH    H210419   4.826   4.235   0.477
  190ACOH    H310420   4.920   4.276   0.621
  191ACOH    H410421   4.624   4.332   2.711
  191ACOH    O210422   4.661   4.371   2.796
  191ACOH    C210423   4.557   4.420   0.045
  191ACOH    O110424   4.439   4.410   0.016
  191ACOH    C110425   4.603   4.479   0.173
  191ACOH    H110426   4.680   4.553   0.153
  191ACOH    H210427   4.643   4.402   0.237
  191ACOH    H310428   4.520   4.528   0.224
  192ACOH    H410429   3.877   5.377   0.566
  192ACOH    O210430   3.964   5.327   0.575
  192ACOH    C210431   4.043   5.407   0.649
  192ACOH    O110432   4.013   5.510   0.707
  192ACOH    C110433   4.179   5.350   0.657
  192ACOH    H110434   4.219   5.338   0.556
  192ACOH    H210435   4.175   5.252   0.705
  192ACOH    H310436   4.245   5.415   0.714
  193ACOH    H410437   2.385   0.089   2.244
  193ACOH    O210438   2.417   0.078   2.337
  193ACOH    C210439   2.421   9.945   2.361
  193ACOH    O110440   2.377   9.857   2.290
  193ACOH    C110441   2.480   9.919   2.494
  193ACOH    H110442   2.425   9.974   2.570
  193ACOH    H210443   2.583   9.952   2.495
  193ACOH    H310444   2.476   9.813   2.518
  194ACOH    H410445   4.278   4.810   1.727
  194ACOH    O210446   4.323   4.891   1.764
  194ACOH    C210447   4.359   4.966   1.658
  194ACOH    O110448   4.344   4.938   1.540
  194ACOH    C110449   4.423   5.092   1.702
  194ACOH    H110450   4.352   5.150   1.760
  194ACOH    H210451   4.457   5.150   1.617
  194ACOH    H310452   4.508   5.068   1.766
  195ACOH    H410453   3.132   4.882   2.163
  195ACOH    O210454   3.049   4.933   2.185
  195ACOH    C210455   3.017   5.005   2.076
  195ACOH    O110456   3.035   4.969   1.961
  195ACOH    C110457   2.922   5.113   2.109
  195ACOH    H110458   2.822   5.086   2.077
  195ACOH    H210459   2.951   5.205   2.058
  195ACOH    H310460   2.921   5.132   2.216
  196ACOH    H410461   4.380   3.571   1.906
  196ACOH    O210462   4.294   3.601   1.863
  196ACOH    C210463   4.311   3.592   1.730
  196ACOH    O110464   4.417   3.599   1.671
  196ACOH    C110465   4.182   3.610   1.660
  196ACOH    H110466   4.177   3.545   1.573
  196ACOH    H210467   4.172   3.713   1.628
  196ACOH    H310468   4.099   3.586   1.726
  197ACOH    H410469   8.885   4.025   1.144
  197ACOH    O210470   8.799   3.997   1.102
  197ACOH    C210471   8.731   3.923   1.191
  197ACOH    O110472   8.756   3.909   1.310
  197ACOH    C110473   8.613   3.863   1.126
  197ACOH    H110474   8.547   3.942   1.091
  197ACOH    H210475   8.559   3.799   1.195
  197ACOH    H310476   8.646   3.804   1.040
  198ACOH    H410477   3.274   7.473   0.963
  198ACOH    O210478   3.238   7.426   1.043
  198ACOH    C210479   3.133   7.497   1.088
  198ACOH    O110480   3.100   7.608   1.053
  198ACOH    C110481   3.066   7.426   1.200
  198ACOH    H110482   2.985   7.485   1.241
  198ACOH    H210483   3.139   7.406   1.278
  198ACOH    H310484   3.027   7.331   1.164
  199ACOH    H410485   1.337   1.045   1.691
  199ACOH    O210486   1.354   1.094   1.775
  199ACOH    C210487   1.481   1.138   1.769
  199ACOH    O110488   1.566   1.101   1.689
  199ACOH    C110489   1.517   1.218   1.889
  199ACOH    H110490   1.484   1.166   1.978
  199ACOH    H210491   1.467   1.314   1.883
  199ACOH    H310492   1.624   1.234   1.894
  200ACOH    H410493   5.302   3.239   1.972
  200ACOH    O210494   5.370   3.301   2.010
  200ACOH    C210495   5.317   3.356   2.121
  200ACOH    O110496   5.221   3.314   2.184
  200ACOH    C110497   5.405   3.463   2.175
  200ACOH    H110498   5.484   3.486   2.104
  200ACOH    H210499   5.449   3.430   2.268
  200ACOH    H310500   5.346   3.552   2.192
  201ACOH    H410501   3.603   5.110   2.212
  201ACOH    O210502   3.615   5.090   2.310
  201ACOH    C210503   3.748   5.099   2.333
  201ACOH    O110504   3.835   5.131   2.254
  201ACOH    C110505   3.777   5.067   2.475
  201ACOH    H110506   3.883   5.079   2.496
  201ACOH    H210507   3.747   4.965   2.495
  201ACOH    H310508   3.721   5.134   2.540
  202ACOH    H410509   5.110   3.816   0.870
  202ACOH    O210510   5.180   3.861   0.924
  202ACOH    C210511   5.266   3.766   0.965
  202ACOH    O110512   5.267   3.650   0.929
  202ACOH    C110513   5.371   3.824   1.052
  202ACOH    H110514   5.416   3.909   1.002
  202ACOH    H210515   5.448   3.751   1.075
  202ACOH    H310516   5.326   3.858   1.145
  203ACOH    H410517   8.000   2.186   0.667
  203ACOH    O210518   7.959   2.276   0.677
  203ACOH    C210519   8.008   2.330   0.790
  203ACOH    O110520   8.068   2.272   0.879
  203ACOH    C110521   7.970   2.473   0.800
  203ACOH    H110522   8.018   2.528   0.720
  203ACOH    H210523   8.000   2.515   0.895
  203ACOH    H310524   7.862   2.482   0.789
  204ACOH    H410525   3.979   8.091   1.176
  204ACOH    O210526   4.066   8.043   1.163
  204ACOH    C210527   4.045   7.953   1.065
  204ACOH    O110528   3.945   7.942   0.996
  204ACOH    C110529   4.163   7.865   1.045
  204ACOH    H110530   4.243   7.893   1.114
  204ACOH    H210531   4.199   7.876   0.943
  204ACOH    H310532   4.135   7.762   1.063
  205ACOH    H410533   1.201   3.834   2.165
  205ACOH    O210534   1.163   3.746   2.194
  205ACOH    C210535   1.193   3.737   2.326
  205ACOH    O110536   1.270   3.808   2.388
  205ACOH    C110537   1.127   3.618   2.385
  205ACOH    H110538   1.153   3.609   2.490
  205ACOH    H210539   1.159   3.529   2.332
  205ACOH    H310540   1.019   3.628   2.375
  206ACOH    H410541   9.136   2.927   0.435
  206ACOH    O210542   9.072   2.998   0.459
  206ACOH    C210543   8.950   2.941   0.464
  206ACOH    O110544   8.919   2.835   0.413
  206ACOH    C110545   8.849   3.034   0.520
  206ACOH    H110546   8.782   3.067   0.441
  206ACOH    H210547   8.898   3.121   0.564
  206ACOH    H310548   8.792   2.983   0.597
  207ACOH    H410549   1.559   3.599   1.851
  207ACOH    O210550   1.588   3.625   1.943
  207ACOH    C210551   1.512   3.730   1.979
  207ACOH    O110552   1.423   3.783   1.913
  207ACOH    C110553   1.543   3.775   2.116
  207ACOH    H110554   1.632   3.724   2.154
  207ACOH    H210555   1.459   3.753   2.182
  207ACOH    H310556   1.561   3.882   2.116
  208ACOH    H410557   4.284   9.650   2.258
  208ACOH    O210558   4.366   9.672   2.309
  208ACOH    C210559   4.426   9.555   2.339
  208ACOH    O110560   4.393   9.444   2.305
  208ACOH    C110561   4.544   9.577   2.427
  208ACOH    H110562   4.524   9.535   2.525
  208ACOH    H210563   4.566   9.683   2.436
  208ACOH    H310564   4.630   9.527   2.384
  209ACOH    H410565   9.476   0.618   1.445
  209ACOH    O210566   9.427   0.703   1.426
  209ACOH    C210567   9.399   0.701   1.294
  209ACOH    O110568   9.442   0.624   1.211
  209ACOH    C110569   9.321   0.822   1.257
  209ACOH    H110570   9.373   0.911   1.289
  209ACOH    H210571   9.223   0.818   1.305
  209ACOH    H310572   9.306   0.827   1.149
  210ACOH    H410573   7.619   1.302   0.689
  210ACOH    O210574   7.527   1.312   0.725
  210ACOH    C210575   7.482   1.188   0.753
  210ACOH    O110576   7.541   1.083   0.737
  210ACOH    C110577   7.347   1.196   0.814
  210ACOH    H110578   7.349   1.261   0.901
  210ACOH    H210579   7.313   1.097   0.844
  210ACOH    H310580   7.277   1.236   0.741
  211ACOH    H410581   2.060   4.741   1.874
  211ACOH    O210582   2.143   4.775   1.918
  211ACOH    C210583   2.106   4.871   2.004
  211ACOH    O110584   1.994   4.890   2.048
  211ACOH    C110585   2.224   4.940   2.062
  211ACOH    H110586   2.236   4.911   2.166
  211ACOH    H210587   2.210   5.048   2.057
  211ACOH    H310588   2.314   4.914   2.007
  212ACOH    H410589   8.661   6.568   1.240
  212ACOH    O210590   8.576   6.611   1.272
  212ACOH    C210591   8.606   6.673   1.387
  212ACOH    O110592   8.705   6.653   1.456
  212ACOH    C110593   8.495   6.758   1.434
  212ACOH    H110594   8.531   6.860   1.448
  212ACOH    H210595   8.457   6.721   1.529
  212ACOH    H310596   8.414   6.759   1.361
  213ACOH    H410597   4.230   4.501   2.227
  213ACOH    O210598   4.184   4.570   2.282
  213ACOH    C210599   4.117   4.501   2.377
  213ACOH    O110600   4.127   4.383   2.402
  213ACOH    C110601   4.028   4.590   2.456
  213ACOH    H110602   4.037   4.693   2.423
  213ACOH    H210603   4.054   4.583   2.561
  213ACOH    H310604   3.925   4.558   2.442
  214ACOH    H410605   7.302   0.122   0.901
  214ACOH    O210606   7.224   0.075   0.861
  214ACOH    C210607   7.124   0.084   0.951
  214ACOH    O110608   7.132   0.127   1.064
  214ACOH    C110609   6.999   0.023   0.900
  214ACOH    H110610   6.916   0.090   0.917
  214ACOH    H210611   6.981   9.930   0.953
  214ACOH    H310612   7.006   0.002   0.794
  215ACOH    H410613   4.993   8.389   1.413
  215ACOH    O210614   4.997   8.484   1.388
  215ACOH    C210615   4.979   8.491   1.255
  215ACOH    O110616   4.963   8.397   1.178
  215ACOH    C110617   4.979   8.632   1.209
  215ACOH    H110618   5.073   8.678   1.237
  215ACOH    H210619   4.897   8.685   1.257
  215ACOH    H310620   4.967   8.637   1.101
  216ACOH    H410621   8.713   4.586   0.749
  216ACOH    O210622   8.632   4.586   0.808
  216ACOH    C210623   8.623   4.710   0.861
  216ACOH    O110624   8.707   4.798   0.854
  216ACOH    C110625   8.499   4.726   0.940
  216ACOH    H110626   8.445   4.815   0.907
  216ACOH    H210627   8.525   4.738   1.045
  216ACOH    H310628   8.435   4.640   0.929
  217ACOH    H410629   1.101   2.746   2.105
  217ACOH    O210630   1.197   2.774   2.096
  217ACOH    C210631   1.246   2.708   1.989
  217ACOH    O110632   1.208   2.598   1.952
  217ACOH    C110633   1.378   2.761   1.948
  217ACOH    H110634   1.384   2.766   1.840
  217ACOH    H210635   1.457   2.696   1.985
  217ACOH    H310636   1.394   2.861   1.988
  218ACOH    H410637   5.085   3.628   2.051
  218ACOH    O210638   5.156   3.585   1.996
  218ACOH    C210639   5.106   3.569   1.872
  218ACOH    O110640   5.002   3.615   1.829
  218ACOH    C110641   5.197   3.489   1.786
  218ACOH    H110642   5.221   3.546   1.696
  218ACOH    H210643   5.148   3.397   1.757
  218ACOH    H310644   5.289   3.466   1.838
  219ACOH    H410645   4.498   2.063   0.322
  219ACOH    O210646   4.588   2.094   0.300
  219ACOH    C210647   4.640   2.144   0.413
  219ACOH    O110648   4.590   2.140   0.523
  219ACOH    C110649   4.775   2.202   0.388
  219ACOH    H110650   4.819   2.236   0.481
  219ACOH    H210651   4.766   2.286   0.320
  219ACOH    H310652   4.838   2.126   0.343
  220ACOH    H410653   9.050   0.865   0.443
  220ACOH    O210654   9.141   0.851   0.481
  220ACOH    C210655   9.166   0.719   0.476
  220ACOH    O110656   9.097   0.634   0.423
  220ACOH    C110657   9.297   0.689   0.539
  220ACOH    H110658   9.292   0.712   0.645
  220ACOH    H210659   9.374   0.750   0.494
  220ACOH    H310660   9.324   0.584   0.526
  221ACOH    H410661   2.785   6.567   1.217
  221ACOH    O210662   2.835   6.508   1.154
  221ACOH    C210663   2.787   6.383   1.174
  221ACOH    O110664   2.702   6.348   1.254
  221ACOH    C110665   2.850   6.288   1.080
  221ACOH    H110666   2.841   6.326   0.978
  221ACOH    H210667   2.801   6.191   1.085
  221ACOH    H310668   2.955   6.277   1.104
  222ACOH    H410669   9.052   5.651   0.544
  222ACOH    O210670   8.962   5.614   0.562
  222ACOH    C210671   8.915   5.679   0.670
  222ACOH    O110672   8.978   5.755   0.742
  222ACOH    C110673   8.777   5.635   0.703
  222ACOH    H110674   8.744   5.679   0.796
  222ACOH    H210675   8.775   5.526   0.712
  222ACOH    H310676   8.710   5.665   0.623
  223ACOH    H410677   4.490   4.830   1.290
  223ACOH    O210678   4.580   4.852   1.324
  223ACOH    C210679   4.615   4.754   1.410
  223ACOH    O110680   4.558   4.647   1.425
  223ACOH    C110681   4.744   4.785   1.477
  223ACOH    H110682   4.775   4.887   1.455
  223ACOH    H210683   4.820   4.717   1.441
  223ACOH    H310684   4.733   4.774   1.584
  224ACOH    H410685   5.584   3.769   0.778
  224ACOH    O210686   5.665   3.786   0.833
  224ACOH    C210687   5.673   3.918   0.853
  224ACOH    O110688   5.594   4.003   0.817
  224ACOH    C110689   5.792   3.950   0.936
  224ACOH    H110690   5.881   3.918   0.883
  224ACOH    H210691   5.786   3.897   1.030
  224ACOH    H310692   5.798   4.057   0.955
  225ACOH    H410693   2.119   3.854   0.615
  225ACOH    O210694   2.048   3.833   0.548
  225ACOH    C210695   2.115   3.785   0.441
  225ACOH    O110696   2.218   3.721   0.445
  225ACOH    C110697   2.027   3.785   0.322
  225ACOH    H110698   2.068   3.723   0.243
  225ACOH    H210699   2.018   3.887   0.285
  225ACOH    H310700   1.928   3.748   0.348
  226ACOH    H410701   4.022   8.363   0.975
  226ACOH    O210702   4.096   8.329   1.032
  226ACOH    C210703   4.101   8.413   1.138
  226ACOH    O110704   4.074   8.532   1.135
  226ACOH    C110705   4.178   8.352   1.248
  226ACOH    H110706   4.271   8.310   1.210
  226ACOH    H210707   4.119   8.273   1.293
  226ACOH    H310708   4.202   8.426   1.325
  227ACOH    H410709   4.492   1.596   0.893
  227ACOH    O210710   4.529   1.639   0.811
  227ACOH    C210711   4.519   1.772   0.825
  227ACOH    O110712   4.480   1.833   0.923
  227ACOH    C110713   4.570   1.840   0.704
  227ACOH    H110714   4.508   1.812   0.619
  227ACOH    H210715   4.672   1.809   0.685
  227ACOH    H310716   4.566   1.948   0.716
  228ACOH    H410717   3.499   7.463   0.503
  228ACOH    O210718   3.429   7.441   0.437
  228ACOH    C210719   3.490   7.415   0.320
  228ACOH    O110720   3.600   7.455   0.287
  228ACOH    C110721   3.395   7.357   0.222
  228ACOH    H110722   3.441   7.274   0.170
  228ACOH    H210723   3.367   7.434   0.150
  228ACOH    H310724   3.305   7.322   0.272
  229SOL     OW10725   2.015   9.686   1.984
  229SOL    HW110726   1.949   9.613   2.001
  229SOL    HW210727   2.106   9.646   1.975
  230SOL     OW10728   1.311   5.824   0.714
  230SOL    HW110729   1.233   5.764   0.733
  230SOL    HW210730   1.287   5.919   0.737
  231SOL     OW10731   1.759   8.489   1.999
  231SOL    HW110732   1.669   8.450   2.016
  231SOL    HW210733   1.789   8.465   1.906
  232SOL     OW10734   0.408   3.867   0.678
  232SOL    HW110735   0.373   3.942   0.734
  232SOL    HW210736   0.507   3.877   0.667
  233SOL     OW10737   1.551   9.376   1.288
  233SOL    HW110738   1.568   9.319   1.368
  233SOL    HW210739   1.528   9.469   1.317
  234SOL     OW10740   0.901   4.188   1.696
  234SOL    HW110741   0.915   4.104   1.644
  234SOL    HW210742   0.985   4.242   1.694
  235SOL     OW10743   0.304   0.723   0.555
  235SOL    HW110744   0.349   0.813   0.558
  235SOL    HW210745   0.373   0.653   0.534
  236SOL     OW10746   1.965   4.187   1.375
  236SOL    HW110747   1.930   4.123   1.443
  236SOL    HW210748   1.987   4.138   1.291
  237SOL     OW10749   2.721   6.168   0.418
  237SOL    HW110750   2.737   6.212   0.330
  237SOL    HW210751   2.748   6.230   0.492
  238SOL     OW10752   3.225   0.446   1.664
  238SOL    HW110753   3.149   0.407   1.611
  238SOL    HW210754   3.310   0.436   1.613
  239SOL     OW10755   9.954   8.158   0.425
  239SOL    HW110756   9.945   8.251   0.461
  239SOL    HW210757   0.049   8.129   0.430
  240SOL     OW10758   2.414   9.730   1.603
  240SOL    HW110759   2.428   9.662   1.675
  240SOL    HW210760   2.356   9.804   1.638
  241SOL     OW10761   9.195   4.097   1.785
  241SOL    HW110762   9.179   4.072   1.880
  241SOL    HW210763   9.128   4.050   1.727
  242SOL     OW10764   9.489   1.664   2.191
  242SOL    HW110765   9.409   1.613   2.161
  242SOL    HW210766   9.461   1.753   2.227
  243SOL     OW10767   9.579   6.055   1.637
  243SOL    HW110768   9.510   6.102   1.692
  243SOL    HW210769   9.670   6.077   1.672
  244SOL     OW10770   1.607   7.723   0.951
  244SOL    HW110771   1.543   7.647   0.957
  244SOL    HW210772   1.576   7.797   1.011
  245SOL     OW10773   3.389   3.142   2.167
  245SOL    HW110774   3.429   3.211   2.228
  245SOL    HW210775   3.455   3.069   2.151
  246SOL     OW10776   0.196   6.793   2.114
  246SOL    HW110777   0.205   6.810   2.212
  246SOL    HW210778   0.225   6.874   2.063
  247SOL     OW10779   1.012   0.183   0.759
  247SOL    HW110780   1.030   0.090   0.727
  247SOL    HW210781   0.924   0.214   0.722
  248SOL     OW10782   2.404   2.588   1.308
  248SOL    HW110783   2.328   2.525   1.291
  248SOL    HW210784   2.445   2.567   1.397
  249SOL     OW10785   9.947   9.284   1.290
  249SOL    HW110786   9.888   9.350   1.335
  249SOL    HW210787   9.891   9.220   1.237
  250SOL     OW10788   8.545   8.106   1.732
  250SOL    HW110789   8.589   8.018   1.717
  250SOL    HW210790   8.556   8.134   1.828
  251SOL     OW10791   0.548   3.509   1.388
  251SOL    HW110792   0.645   3.485   1.389
  251SOL    HW210793   0.506   3.475   1.303
  252SOL     OW10794   0.274   8.372   1.004
  252SOL    HW110795   0.290   8.470   1.012
  252SOL    HW210796   0.322   8.337   0.922
  253SOL     OW10797   9.097   6.042   1.464
  253SOL    HW110798   9.040   6.093   1.399
  253SOL    HW210799   9.150   6.105   1.520
  254SOL     OW10800   2.302   5.982   1.406
  254SOL    HW110801   2.258   6.054   1.352
  254SOL    HW210802   2.401   5.998   1.409
  255SOL     OW10803   8.848   8.352   1.063
  255SOL    HW110804   8.826   8.262   1.101
  255SOL    HW210805   8.826   8.422   1.130
  256SOL     OW10806   8.742   2.324   1.718
  256SOL    HW110807   8.801   2.272   1.779
  256SOL    HW210808   8.649   2.288   1.722
  257SOL     OW10809   2.780   9.830   1.251
  257SOL    HW110810   2.739   9.754   1.200
  257SOL    HW210811   2.729   9.845   1.336
  258SOL     OW10812   2.025   4.096   1.115
  258SOL    HW110813   2.049   4.014   1.063
  258SOL    HW210814   1.950   4.144   1.069
  259SOL     OW10815   8.041   8.006   1.179
  259SOL    HW110816   8.134   8.040   1.194
  259SOL    HW210817   8.018   8.014   1.083
  260SOL     OW10818   3.971   5.053   0.555
  260SOL    HW110819   3.972   5.153   0.559
  260SOL    HW210820   3.881   5.021   0.526
  261SOL     OW10821   7.968   9.140   1.302
  261SOL    HW110822   7.889   9.082   1.285
  261SOL    HW210823   8.031   9.135   1.225
  262SOL     OW10824   1.326   3.276   0.569
  262SOL    HW110825   1.394   3.239   0.505
  262SOL    HW210826   1.308   3.372   0.546
  263SOL     OW10827   9.014   4.323   1.105
  263SOL    HW110828   8.915   4.335   1.114
  263SOL    HW210829   9.061   4.397   1.154
  264SOL     OW10830   0.088   0.578   1.540
  264SOL    HW110831   0.009   0.587   1.479
  264SOL    HW210832   0.132   0.667   1.552
  265SOL     OW10833   0.331   3.155   0.933
  265SOL    HW110834   0.250   3.199   0.972
  265SOL    HW210835   0.325   3.157   0.833
  266SOL     OW10836   4.601   3.833   1.689
  266SOL    HW110837   4.596   3.865   1.783
  266SOL    HW210838   4.541   3.754   1.678
  267SOL     OW10839   0.687   3.431   1.688
  267SOL    HW110840   0.687   3.530   1.674
  267SOL    HW210841   0.778   3.395   1.665
  268SOL     OW10842   2.405   2.107   0.817
  268SOL    HW110843   2.392   2.149   0.907
  268SOL    HW210844   2.391   2.008   0.823
  269SOL     OW10845   1.828   2.292   1.050
  269SOL    HW110846   1.798   2.284   1.145
  269SOL    HW210847   1.876   2.378   1.037
  270SOL     OW10848   3.107   0.259   0.590
  270SOL    HW110849   3.200   0.289   0.611
  270SOL    HW210850   3.065   0.321   0.525
  271SOL     OW10851   9.654   2.049   0.476
  271SOL    HW110852   9.582   2.105   0.435
  271SOL    HW210853   9.625   1.953   0.478
  272SOL     OW10854   2.482   3.249   2.129
  272SOL    HW110855   2.546   3.314   2.170
  272SOL    HW210856   2.412   3.298   2.078
  273SOL     OW10857   2.637   2.372   2.129
  273SOL    HW110858   2.550   2.419   2.111
  273SOL    HW210859   2.707   2.408   2.068
  274SOL     OW10860   2.424   1.749   1.599
  274SOL    HW110861   2.457   1.828   1.651
  274SOL    HW210862   2.428   1.667   1.656
  275SOL     OW10863   1.344   2.730   0.936
  275SOL    HW110864   1.382   2.759   0.847
  275SOL    HW210865   1.392   2.649   0.968
  276SOL     OW10866   4.160   4.492   0.883
  276SOL    HW110867   4.184   4.552   0.807
  276SOL    HW210868   4.218   4.512   0.962
  277SOL     OW10869   1.497   6.237   0.362
  277SOL    HW110870   1.546   6.261   0.278
  277SOL    HW210871   1.527   6.297   0.436
  278SOL     OW10872   1.530   7.800   1.473
  278SOL    HW110873   1.563   7.775   1.564
  278SOL    HW210874   1.434   7.830   1.479
  279SOL     OW10875   4.194   1.528   2.160
  279SOL    HW110876   4.274   1.473   2.181
  279SOL    HW210877   4.113   1.487   2.203
  280SOL     OW10878   0.707   3.704   1.662
  280SOL    HW110879   0.787   3.727   1.717
  280SOL    HW210880   0.707   3.759   1.578
  281SOL     OW10881   2.381   1.377   0.781
  281SOL    HW110882   2.395   1.404   0.877
  281SOL    HW210883   2.343   1.454   0.730
  282SOL     OW10884   1.339   0.980   0.718
  282SOL    HW110885   1.369   0.998   0.811
  282SOL    HW210886   1.240   0.964   0.717
  283SOL     OW10887   2.192   2.387   0.845
  283SOL    HW110888   2.278   2.414   0.889
  283SOL    HW210889   2.197   2.409   0.747
  284SOL     OW10890   4.029   0.886   1.690
  284SOL    HW110891   3.987   0.804   1.730
  284SOL    HW210892   4.114   0.861   1.645
  285SOL     OW10893   1.829   8.677   1.095
  285SOL    HW110894   1.926   8.702   1.102
  285SOL    HW210895   1.774   8.760   1.093
  286SOL     OW10896   4.219   0.100   2.158
  286SOL    HW110897   4.178   0.176   2.106
  286SOL    HW210898   4.297   0.135   2.211
  287SOL     OW10899   8.961   4.293   2.313
  287SOL    HW110900   9.051   4.338   2.313
  287SOL    HW210901   8.891   4.359   2.340
  288SOL     OW10902   1.933   6.251   0.750
  288SOL    HW110903   1.941   6.157   0.781
  288SOL    HW210904   1.959   6.257   0.653
  289SOL     OW10905   0.409   4.881   1.286
  289SOL    HW110906   0.315   4.912   1.302
  289SOL    HW210907   0.437   4.820   1.360
  290SOL     OW10908   9.858   8.229   1.983
  290SOL    HW110909   9.846   8.304   1.917
  290SOL    HW210910   9.896   8.150   1.936
  291SOL     OW10911   3.189   3.753   1.362
  291SOL    HW110912   3.219   3.847   1.377
  291SOL    HW210913   3.103   3.754   1.310
  292SOL     OW10914   1.752   2.445   1.674
  292SOL    HW110915   1.722   2.484   1.761
  292SOL    HW210916   1.849   2.464   1.661
  293SOL     OW10917   2.986   3.815   0.608
  293SOL    HW110918   3.027   3.807   0.517
  293SOL    HW210919   2.986   3.725   0.653
  294SOL     OW10920   9.845   2.955   2.021
  294SOL    HW110921   9.937   2.991   2.005
  294SOL    HW210922   9.848   2.888   2.096
  295SOL     OW10923   8.761   2.151   2.284
  295SOL    HW110924   8.691   2.177   2.351
  295SOL    HW210925   8.761   2.216   2.208
  296SOL     OW10926   9.445   2.193   0.356
  296SOL    HW110927   9.403   2.260   0.418
  296SOL    HW210928   9.476   2.240   0.273
  297SOL     OW10929   3.200   4.536   1.046
  297SOL    HW110930   3.166   4.491   0.963
  297SOL    HW210931   3.194   4.635   1.035
  298SOL     OW10932   7.797   8.951   1.736
  298SOL    HW110933   7.852   8.900   1.802
  298SOL    HW210934   7.765   8.890   1.664
  299SOL     OW10935   9.041   1.170   1.298
  299SOL    HW110936   9.035   1.078   1.262
  299SOL    HW210937   8.949   1.203   1.321
  300SOL     OW10938   8.364   7.898   1.029
  300SOL    HW110939   8.333   7.935   0.942
  300SOL    HW210940   8.402   7.807   1.015
  301SOL     OW10941   8.824   8.371   0.783
  301SOL    HW110942   8.829   8.364   0.882
  301SOL    HW210943   8.830   8.280   0.742
  302SOL     OW10944   9.033   2.193   2.223
  302SOL    HW110945   8.943   2.163   2.254
  302SOL    HW210946   9.076   2.248   2.294
  303SOL     OW10947   8.864   1.682   1.906
  303SOL    HW110948   8.960   1.680   1.935
  303SOL    HW210949   8.836   1.777   1.891
  304SOL     OW10950   2.002   6.371   1.396
  304SOL    HW110951   1.907   6.362   1.364
  304SOL    HW210952   2.060   6.308   1.345
  305SOL     OW10953   9.013   9.529   1.250
  305SOL    HW110954   8.931   9.507   1.197
  305SOL    HW210955   8.997   9.612   1.304
  306SOL     OW10956   9.225   9.163   0.441
  306SOL    HW110957   9.133   9.137   0.413
  306SOL    HW210958   9.236   9.262   0.438
  307SOL     OW10959   9.256   1.863   0.581
  307SOL    HW110960   9.311   1.867   0.498
  307SOL    HW210961   9.208   1.949   0.594
  308SOL     OW10962   1.410   7.990   1.711
  308SOL    HW110963   1.423   7.911   1.770
  308SOL    HW210964   1.313   8.000   1.688
  309SOL     OW10965   3.114   9.789   0.615
  309SOL    HW110966   3.112   9.716   0.684
  309SOL    HW210967   3.032   9.845   0.624
  310SOL     OW10968   9.464   4.143   2.218
  310SOL    HW110969   9.432   4.229   2.257
  310SOL    HW210970   9.520   4.161   2.137
  311SOL     OW10971   8.680   0.265   1.284
  311SOL    HW110972   8.628   0.179   1.277
  311SOL    HW210973   8.616   0.341   1.293
  312SOL     OW10974   2.273   0.745   1.949
  312SOL    HW110975   2.205   0.816   1.970
  312SOL    HW210976   2.340   0.741   2.022
  313SOL     OW10977   1.468   5.177   1.440
  313SOL    HW110978   1.526   5.231   1.500
  313SOL    HW210979   1.487   5.202   1.344
  314SOL     OW10980   2.405   9.089   2.121
  314SOL    HW110981   2.429   9.032   2.199
  314SOL    HW210982   2.382   9.181   2.152
  315SOL     OW10983   9.477   7.109   2.181
  315SOL    HW110984   9.379   7.090   2.184
  315SOL    HW210985   9.526   7.040   2.234
  316SOL     OW10986   2.814   2.120   1.004
  316SOL    HW110987   2.775   2.083   1.088
  316SOL    HW210988   2.908   2.088   0.994
  317SOL     OW10989   1.619   0.880   1.264
  317SOL    HW110990   1.552   0.807   1.277
  317SOL    HW210991   1.588   0.963   1.309
  318SOL     OW10992   3.268   3.593   0.410
  318SOL    HW110993   3.192   3.640   0.366
  318SOL    HW210994   3.266   3.496   0.386
  319SOL     OW10995   3.126   9.103   1.407
  319SOL    HW110996   3.191   9.037   1.445
  319SOL    HW210997   3.146   9.117   1.310
  320SOL     OW10998   2.857   0.308   1.786
  320SOL    HW110999   2.932   0.297   1.721
  320SOL    HW211000   2.879   0.260   1.871
  321SOL     OW11001   1.354   6.213   1.682
  321SOL    HW111002   1.310   6.156   1.751
  321SOL    HW211003   1.290   6.284   1.652
  322SOL     OW11004   2.636   2.661   2.243
  322SOL    HW111005   2.666   2.574   2.282
  322SOL    HW211006   2.687   2.736   2.285
  323SOL     OW11007   0.894   5.069   2.095
  323SOL    HW111008   0.916   5.126   2.173
  323SOL    HW211009   0.801   5.033   2.105
  324SOL     OW11010   1.660   8.899   1.109
  324SOL    HW111011   1.659   8.915   1.207
  324SOL    HW211012   1.569   8.875   1.077
  325SOL     OW11013   9.452   7.529   0.920
  325SOL    HW111014   9.392   7.543   0.998
  325SOL    HW211015   9.514   7.453   0.938
  326SOL     OW11016   4.799   3.252   1.317
  326SOL    HW111017   4.826   3.319   1.248
  326SOL    HW211018   4.704   3.266   1.342
  327SOL     OW11019   0.911   5.268   1.896
  327SOL    HW111020   0.900   5.196   1.964
  327SOL    HW211021   0.935   5.227   1.808
  328SOL     OW11022   1.286   4.767   2.052
  328SOL    HW111023   1.235   4.854   2.056
  328SOL    HW211024   1.376   4.780   2.093
  329SOL     OW11025   2.419   1.828   0.809
  329SOL    HW111026   2.362   1.758   0.766
  329SOL    HW211027   2.509   1.829   0.765
  330SOL     OW11028   3.947   0.657   1.817
  330SOL    HW111029   4.036   0.618   1.839
  330SOL    HW211030   3.890   0.658   1.899
  331SOL     OW11031   7.901   9.896   1.498
  331SOL    HW111032   7.813   9.850   1.490
  331SOL    HW211033   7.970   9.832   1.531
  332SOL     OW11034   8.940   6.236   2.016
  332SOL    HW111035   8.930   6.327   2.055
  332SOL    HW211036   8.864   6.178   2.046
  333SOL     OW11037   3.569   3.862   1.151
  333SOL    HW111038   3.518   3.785   1.190
  333SOL    HW211039   3.645   3.828   1.097
  334SOL     OW11040   0.782   8.318   1.392
  334SOL    HW111041   0.772   8.325   1.492
  334SOL    HW211042   0.745   8.400   1.349
  335SOL     OW11043   3.385   3.129   1.745
  335SOL    HW111044   3.399   3.177   1.658
  335SOL    HW211045   3.322   3.181   1.802
  336SOL     OW11046   1.818   5.482   2.171
  336SOL    HW111047   1.753   5.415   2.208
  336SOL    HW211048   1.896   5.434   2.131
  337SOL     OW11049   8.178   8.360   0.591
  337SOL    HW111050   8.261   8.306   0.605
  337SOL    HW211051   8.107   8.326   0.653
  338SOL     OW11052   2.165   8.321   1.055
  338SOL    HW111053   2.240   8.344   0.993
  338SOL    HW211054   2.196   8.333   1.149
  339SOL     OW11055   2.357   8.074   1.455
  339SOL    HW111056   2.448   8.115   1.445
  339SOL    HW211057   2.303   8.127   1.520
  340SOL     OW11058   2.466   2.814   1.712
  340SOL    HW111059   2.565   2.831   1.714
  340SOL    HW211060   2.430   2.818   1.805
  341SOL     OW11061   2.847   6.786   1.017
  341SOL    HW111062   2.880   6.723   1.087
  341SOL    HW211063   2.862   6.880   1.046
  342SOL     OW11064   3.586   5.151   0.842
  342SOL    HW111065   3.677   5.140   0.882
  342SOL    HW211066   3.550   5.060   0.819
  343SOL     OW11067   0.423   6.658   0.859
  343SOL    HW111068   0.425   6.584   0.926
  343SOL    HW211069   0.337   6.657   0.809
  344SOL     OW11070   2.454   9.529   1.777
  344SOL    HW111071   2.448   9.438   1.735
  344SOL    HW211072   2.537   9.534   1.834
  345SOL     OW11073   3.350   0.364   0.666
  345SOL    HW111074   3.339   0.446   0.610
  345SOL    HW211075   3.342   0.387   0.762
  346SOL     OW11076   2.354   0.117   2.086
  346SOL    HW111077   2.262   0.155   2.076
  346SOL    HW211078   2.366   0.040   2.023
  347SOL     OW11079   1.069   9.740   1.458
  347SOL    HW111080   1.052   9.778   1.367
  347SOL    HW211081   1.066   9.814   1.526
  348SOL     OW11082   2.770   4.632   1.271
  348SOL    HW111083   2.787   4.715   1.323
  348SOL    HW211084   2.727   4.563   1.329
  349SOL     OW11085   2.646   4.317   0.846
  349SOL    HW111086   2.636   4.373   0.928
  349SOL    HW211087   2.620   4.223   0.867
  350SOL     OW11088   2.669   7.199   0.790
  350SOL    HW111089   2.582   7.159   0.819
  350SOL    HW211090   2.718   7.236   0.869
  351SOL     OW11091   4.272   0.880   1.248
  351SOL    HW111092   4.315   0.866   1.158
  351SOL    HW211093   4.288   0.799   1.304
  352SOL     OW11094   1.939   6.793   0.869
  352SOL    HW111095   2.021   6.771   0.816
  352SOL    HW211096   1.860   6.794   0.808
  353SOL     OW11097   0.840   3.217   0.868
  353SOL    HW111098   0.833   3.304   0.917
  353SOL    HW211099   0.754   3.166   0.878
  354SOL     OW11100   8.009   0.209   1.806
  354SOL    HW111101   8.047   0.185   1.896
  354SOL    HW211102   7.909   0.205   1.810
  355SOL     OW11103   8.854   2.992   1.436
  355SOL    HW111104   8.948   2.988   1.403
  355SOL    HW211105   8.791   2.977   1.359
  356SOL     OW11106   9.704   2.945   0.857
  356SOL    HW111107   9.779   2.990   0.808
  356SOL    HW211108   9.740   2.900   0.939
  357SOL     OW11109   8.442   0.338   1.731
  357SOL    HW111110   8.471   0.270   1.663
  357SOL    HW211111   8.506   0.415   1.731
  358SOL     OW11112   2.364   7.123   1.924
  358SOL    HW111113   2.422   7.099   2.002
  358SOL    HW211114   2.298   7.193   1.952
  359SOL     OW11115   1.042   7.171   2.144
  359SOL    HW111116   1.138   7.198   2.149
  359SOL    HW211117   1.036   7.073   2.124
  360SOL     OW11118   0.725   6.367   2.033
  360SOL    HW111119   0.698   6.458   2.065
  360SOL    HW211120   0.809   6.339   2.080
  361SOL     OW11121   4.268   1.420   0.338
  361SOL    HW111122   4.242   1.335   0.293
  361SOL    HW211123   4.356   1.451   0.304
  362SOL     OW11124   8.571   9.048   0.914
  362SOL    HW111125   8.618   8.960   0.905
  362SOL    HW211126   8.631   9.114   0.960
  363SOL     OW11127   2.385   2.098   1.933
  363SOL    HW111128   2.431   2.045   2.004
  363SOL    HW211129   2.299   2.053   1.909
  364SOL     OW11130   2.723   8.284   2.038
  364SOL    HW111131   2.724   8.342   2.119
  364SOL    HW211132   2.811   8.238   2.029
  365SOL     OW11133   0.302   2.284   0.540
  365SOL    HW111134   0.241   2.216   0.500
  365SOL    HW211135   0.354   2.242   0.615
  366SOL     OW11136   2.532   8.747   1.882
  366SOL    HW111137   2.497   8.840   1.871
  366SOL    HW211138   2.559   8.711   1.793
  367SOL     OW11139   9.988   0.623   1.888
  367SOL    HW111140   9.925   0.680   1.836
  367SOL    HW211141   9.941   0.539   1.918
  368SOL     OW11142   2.791   2.448   0.373
  368SOL    HW111143   2.780   2.365   0.427
  368SOL    HW211144   2.702   2.488   0.354
  369SOL     OW11145   0.690   1.537   1.378
  369SOL    HW111146   0.700   1.636   1.384
  369SOL    HW211147   0.743   1.494   1.452
  370SOL     OW11148   9.290   3.669   0.574
  370SOL    HW111149   9.245   3.711   0.495
  370SOL    HW211150   9.353   3.736   0.615
  371SOL     OW11151   3.694   0.953   1.887
  371SOL    HW111152   3.673   0.924   1.793
  371SOL    HW211153   3.787   0.988   1.891
  372SOL     OW11154   0.057   2.824   1.672
  372SOL    HW111155   0.101   2.764   1.738
  372SOL    HW211156   0.068   2.920   1.699
  373SOL     OW11157   8.445   2.304   1.310
  373SOL    HW111158   8.348   2.327   1.317
  373SOL    HW211159   8.469   2.237   1.380
  374SOL     OW11160   2.112   2.709   0.648
  374SOL    HW111161   2.179   2.636   0.655
  374SOL    HW211162   2.049   2.704   0.726
  375SOL     OW11163   8.630   0.231   0.597
  375SOL    HW111164   8.703   0.263   0.537
  375SOL    HW211165   8.643   0.133   0.615
  376SOL     OW11166   1.260   6.823   1.594
  376SOL    HW111167   1.239   6.824   1.692
  376SOL    HW211168   1.356   6.849   1.581
  377SOL     OW11169   0.703   3.642   0.500
  377SOL    HW111170   0.700   3.724   0.556
  377SOL    HW211171   0.610   3.617   0.472
  378SOL     OW11172   2.935   9.868   2.022
  378SOL    HW111173   2.932   9.917   1.935
  378SOL    HW211174   2.850   9.885   2.073
  379SOL     OW11175   3.176   3.790   0.928
  379SOL    HW111176   3.221   3.715   0.879
  379SOL    HW211177   3.079   3.770   0.938
  380SOL     OW11178   1.651   5.328   0.347
  380SOL    HW111179   1.615   5.377   0.426
  380SOL    HW211180   1.578   5.273   0.306
  381SOL     OW11181   1.402   4.801   1.283
  381SOL    HW111182   1.444   4.832   1.368
  381SOL    HW211183   1.398   4.876   1.218
  382SOL     OW11184   9.879   8.775   1.128
  382SOL    HW111185   9.882   8.716   1.209
  382SOL    HW211186   9.793   8.760   1.079
  383SOL     OW11187   1.704   3.958   1.333
  383SOL    HW111188   1.668   4.044   1.370
  383SOL    HW211189   1.640   3.923   1.264
  384SOL     OW11190   0.376   6.427   1.016
  384SOL    HW111191   0.278   6.425   0.993
  384SOL    HW211192   0.390   6.384   1.105
  385SOL     OW11193   1.979   1.436   0.630
  385SOL    HW111194   1.975   1.359   0.694
  385SOL    HW211195   1.936   1.516   0.671
  386SOL     OW11196   8.680   6.999   1.228
  386SOL    HW111197   8.663   6.943   1.147
  386SOL    HW211198   8.649   7.093   1.212
  387SOL     OW11199   1.293   2.483   0.687
  387SOL    HW111200   1.219   2.431   0.730
  387SOL    HW211201   1.257   2.534   0.608
  388SOL     OW11202   0.863   8.893   0.865
  388SOL    HW111203   0.919   8.810   0.870
  388SOL    HW211204   0.919   8.972   0.889
  389SOL     OW11205   9.693   3.289   0.749
  389SOL    HW111206   9.745   3.234   0.684
  389SOL    HW211207   9.599   3.254   0.753
  390SOL     OW11208   9.734   4.449   1.694
  390SOL    HW111209   9.773   4.371   1.742
  390SOL    HW211210   9.639   4.431   1.672
  391SOL     OW11211   8.110   8.274   1.423
  391SOL    HW111212   8.188   8.305   1.369
  391SOL    HW211213   8.027   8.283   1.369
  392SOL     OW11214   2.149   1.062   0.540
  392SOL    HW111215   2.199   0.983   0.506
  392SOL    HW211216   2.057   1.034   0.566
  393SOL     OW11217   9.741   6.182   0.790
  393SOL    HW111218   9.692   6.109   0.838
  393SOL    HW211219   9.717   6.271   0.829
  394SOL     OW11220   9.687   9.919   0.597
  394SOL    HW111221   9.637   9.992   0.644
  394SOL    HW211222   9.776   9.905   0.642
  395SOL     OW11223   4.225   0.192   1.765
  395SOL    HW111224   4.158   0.218   1.695
  395SOL    HW211225   4.229   0.093   1.772
  396SOL     OW11226   2.037   2.169   0.922
  396SOL    HW111227   1.954   2.213   0.956
  396SOL    HW211228   2.099   2.239   0.887
  397SOL     OW11229   1.423   0.721   0.676
  397SOL    HW111230   1.420   0.699   0.579
  397SOL    HW211231   1.392   0.815   0.690
  398SOL     OW11232   4.326   1.393   1.345
  398SOL    HW111233   4.404   1.361   1.291
  398SOL    HW211234   4.352   1.396   1.442
  399SOL     OW11235   2.466   0.043   1.393
  399SOL    HW111236   2.526   0.099   1.335
  399SOL    HW211237   2.514   9.959   1.418
  400SOL     OW11238   9.492   5.948   2.044
  400SOL    HW111239   9.516   5.901   1.959
  400SOL    HW211240   9.565   6.012   2.069
  401SOL     OW11241   3.447   3.403   1.982
  401SOL    HW111242   3.437   3.463   2.061
  401SOL    HW211243   3.367   3.343   1.975
  402SOL     OW11244   1.146   0.366   1.932
  402SOL    HW111245   1.217   0.361   1.862
  402SOL    HW211246   1.175   0.313   2.012
  403SOL     OW11247   0.898   4.660   0.432
  403SOL    HW111248   0.836   4.709   0.370
  403SOL    HW211249   0.924   4.721   0.507
  404SOL     OW11250   1.585   7.155   0.517
  404SOL    HW111251   1.507   7.095   0.497
  404SOL    HW211252   1.551   7.240   0.557
  405SOL     OW11253   7.433   0.191   0.975
  405SOL    HW111254   7.391   0.218   1.062
  405SOL    HW211255   7.520   0.239   0.964
  406SOL     OW11256   1.687   6.742   0.414
  406SOL    HW111257   1.737   6.828   0.426
  406SOL    HW211258   1.742   6.667   0.452
  407SOL     OW11259   1.408   1.678   1.770
  407SOL    HW111260   1.482   1.647   1.710
  407SOL    HW211261   1.361   1.599   1.809
  408SOL     OW11262   4.101   9.440   1.646
  408SOL    HW111263   4.045   9.390   1.712
  408SOL    HW211264   4.106   9.536   1.673
  409SOL     OW11265   9.128   1.683   1.977
  409SOL    HW111266   9.160   1.594   2.011
  409SOL    HW211267   9.161   1.755   2.037
  410SOL     OW11268   8.831   4.632   1.137
  410SOL    HW111269   8.873   4.664   1.222
  410SOL    HW211270   8.887   4.662   1.059
  411SOL     OW11271   0.236   3.589   0.825
  411SOL    HW111272   0.149   3.547   0.801
  411SOL    HW211273   0.310   3.522   0.810
  412SOL     OW11274   1.839   4.237   0.971
  412SOL    HW111275   1.762   4.174   0.958
  412SOL    HW211276   1.886   4.251   0.884
  413SOL     OW11277   9.342   4.811   0.486
  413SOL    HW111278   9.334   4.823   0.585
  413SOL    HW211279   9.330   4.899   0.441
  414SOL     OW11280   0.013   3.343   1.813
  414SOL    HW111281   9.930   3.399   1.816
  414SOL    HW211282   0.035   3.309   1.904
  415SOL     OW11283   4.404   4.229   1.641
  415SOL    HW111284   4.393   4.314   1.590
  415SOL    HW211285   4.347   4.157   1.601
  416SOL     OW11286   9.448   8.012   0.523
  416SOL    HW111287   9.392   7.941   0.480
  416SOL    HW211288   9.480   7.980   0.612
  417SOL     OW11289   9.230   8.791   1.245
  417SOL    HW111290   9.236   8.738   1.160
  417SOL    HW211291   9.274   8.739   1.319
  418SOL     OW11292   2.610   5.101   1.721
  418SOL    HW111293   2.627   5.194   1.754
  418SOL    HW211294   2.658   5.036   1.780
  419SOL     OW11295   3.321   9.363   0.556
  419SOL    HW111296   3.399   9.315   0.517
  419SOL    HW211297   3.244   9.361   0.492
  420SOL     OW11298   3.582   4.993   1.193
  420SOL    HW111299   3.486   4.965   1.183
  420SOL    HW211300   3.640   4.929   1.142
  421SOL     OW11301   2.630   9.833   1.478
  421SOL    HW111302   2.553   9.790   1.526
  421SOL    HW211303   2.681   9.891   1.543
  422SOL     OW11304   0.394   2.478   1.374
  422SOL    HW111305   0.434   2.475   1.466
  422SOL    HW211306   0.347   2.566   1.361
  423SOL     OW11307   9.134   2.118   1.985
  423SOL    HW111308   9.103   2.150   2.074
  423SOL    HW211309   9.181   2.192   1.936
  424SOL     OW11310   0.843   0.570   0.839
  424SOL    HW111311   0.862   0.589   0.742
  424SOL    HW211312   0.916   0.514   0.876
  425SOL     OW11313   8.442   1.771   1.291
  425SOL    HW111314   8.516   1.717   1.249
  425SOL    HW211315   8.468   1.795   1.384
  426SOL     OW11316   3.099   1.321   1.432
  426SOL    HW111317   3.050   1.397   1.476
  426SOL    HW211318   3.197   1.339   1.435
  427SOL     OW11319   1.229   4.766   0.597
  427SOL    HW111320   1.132   4.787   0.603
  427SOL    HW211321   1.280   4.852   0.587
  428SOL     OW11322   9.596   3.605   1.020
  428SOL    HW111323   9.690   3.581   0.995
  428SOL    HW211324   9.537   3.525   1.008
  429SOL     OW11325   9.327   9.018   1.371
  429SOL    HW111326   9.303   8.998   1.466
  429SOL    HW211327   9.288   8.947   1.312
  430SOL     OW11328   3.833   2.976   2.190
  430SOL    HW111329   3.854   3.072   2.169
  430SOL    HW211330   3.913   2.919   2.170
  431SOL     OW11331   0.969   4.557   1.320
  431SOL    HW111332   0.873   4.554   1.293
  431SOL    HW211333   1.024   4.508   1.253
  432SOL     OW11334   8.593   9.428   2.082
  432SOL    HW111335   8.513   9.486   2.065
  432SOL    HW211336   8.566   9.332   2.083
  433SOL     OW11337   2.687   4.335   0.574
  433SOL    HW111338   2.766   4.278   0.550
  433SOL    HW211339   2.672   4.331   0.672
  434SOL     OW11340   1.704   2.551   1.928
  434SOL    HW111341   1.788   2.546   1.982
  434SOL    HW211342   1.690   2.644   1.895
  435SOL     OW11343   2.240   8.504   0.710
  435SOL    HW111344   2.185   8.430   0.672
  435SOL    HW211345   2.277   8.560   0.636
  436SOL     OW11346   0.528   1.509   0.484
  436SOL    HW111347   0.553   1.605   0.494
  436SOL    HW211348   0.429   1.500   0.484
  437SOL     OW11349   8.863   2.725   1.224
  437SOL    HW111350   8.818   2.814   1.223
  437SOL    HW211351   8.922   2.716   1.144
  438SOL     OW11352   2.355   2.379   1.881
  438SOL    HW111353   2.371   2.284   1.908
  438SOL    HW211354   2.384   2.439   1.955
  439SOL     OW11355   9.164   5.805   1.339
  439SOL    HW111356   9.147   5.894   1.380
  439SOL    HW211357   9.135   5.733   1.402
  440SOL     OW11358   1.379   5.321   0.737
  440SOL    HW111359   1.373   5.403   0.794
  440SOL    HW211360   1.289   5.278   0.730
  441SOL     OW11361   8.141   9.932   1.949
  441SOL    HW111362   8.146   0.022   1.992
  441SOL    HW211363   8.226   9.882   1.966
  442SOL     OW11364   9.992   3.516   0.729
  442SOL    HW111365   0.014   3.419   0.734
  442SOL    HW211366   9.943   3.535   0.644
  443SOL     OW11367   3.139   8.041   0.894
  443SOL    HW111368   3.084   7.957   0.893
  443SOL    HW211369   3.167   8.061   0.988
  444SOL     OW11370   3.381   3.761   0.580
  444SOL    HW111371   3.355   3.855   0.558
  444SOL    HW211372   3.345   3.699   0.512
  445SOL     OW11373   4.996   3.320   1.503
  445SOL    HW111374   4.960   3.406   1.539
  445SOL    HW211375   4.932   3.283   1.435
  446SOL     OW11376   2.235   8.966   1.261
  446SOL    HW111377   2.257   8.908   1.339
  446SOL    HW211378   2.310   8.964   1.195
  447SOL     OW11379   8.325   9.906   1.615
  447SOL    HW111380   8.407   9.959   1.639
  447SOL    HW211381   8.245   9.965   1.617
  448SOL     OW11382   2.030   7.279   0.668
  448SOL    HW111383   2.046   7.214   0.593
  448SOL    HW211384   2.018   7.229   0.753
  449SOL     OW11385   8.894   6.796   0.865
  449SOL    HW111386   8.960   6.870   0.872
  449SOL    HW211387   8.808   6.824   0.906
  450SOL     OW11388   0.987   5.275   1.181
  450SOL    HW111389   1.064   5.319   1.134
  450SOL    HW211390   1.018   5.189   1.220
  451SOL     OW11391   7.770   8.941   1.283
  451SOL    HW111392   7.747   8.897   1.370
  451SOL    HW211393   7.820   8.876   1.225
  452SOL     OW11394   2.576   2.248   1.266
  452SOL    HW111395   2.636   2.169   1.269
  452SOL    HW211396   2.528   2.257   1.354
  453SOL     OW11397   1.166   2.165   1.456
  453SOL    HW111398   1.214   2.236   1.404
  453SOL    HW211399   1.232   2.103   1.497
  454SOL     OW11400   0.185   0.925   1.762
  454SOL    HW111401   0.108   0.969   1.807
  454SOL    HW211402   0.215   0.847   1.816
  455SOL     OW11403   0.635   1.274   0.389
  455SOL    HW111404   0.569   1.233   0.326
  455SOL    HW211405   0.599   1.362   0.421
  456SOL     OW11406   9.648   6.708   2.120
  456SOL    HW111407   9.724   6.646   2.138
  456SOL    HW211408   9.659   6.748   2.029
  457SOL     OW11409   9.832   8.913   0.470
  457SOL    HW111410   9.747   8.917   0.522
  457SOL    HW211411   9.874   9.003   0.467
  458SOL     OW11412   1.387   8.165   0.477
  458SOL    HW111413   1.384   8.106   0.558
  458SOL    HW211414   1.396   8.110   0.395
  459SOL     OW11415   9.860   4.014   1.732
  459SOL    HW111416   9.899   3.933   1.776
  459SOL    HW211417   9.857   4.090   1.797
  460SOL     OW11418   3.057   9.037   0.673
  460SOL    HW111419   3.009   9.099   0.611
  460SOL    HW211420   3.141   9.005   0.629
  461SOL     OW11421   4.412   3.706   1.384
  461SOL    HW111422   4.322   3.748   1.387
  461SOL    HW211423   4.429   3.658   1.470
  462SOL     OW11424   7.933   9.228   0.696
  462SOL    HW111425   7.840   9.199   0.671
  462SOL    HW211426   7.989   9.148   0.715
  463SOL     OW11427   1.606   1.957   0.487
  463SOL    HW111428   1.617   1.884   0.555
  463SOL    HW211429   1.518   1.947   0.441
  464SOL     OW11430   9.676   5.206   2.223
  464SOL    HW111431   9.642   5.176   2.312
  464SOL    HW211432   9.745   5.277   2.236
  465SOL     OW11433   3.846   4.719   0.554
  465SOL    HW111434   3.797   4.800   0.524
  465SOL    HW211435   3.944   4.730   0.535
  466SOL     OW11436   2.496   7.776   1.526
  466SOL    HW111437   2.478   7.835   1.605
  466SOL    HW211438   2.547   7.695   1.556
  467SOL     OW11439   3.579   4.222   1.493
  467SOL    HW111440   3.596   4.302   1.435
  467SOL    HW211441   3.481   4.212   1.509
  468SOL     OW11442   2.888   7.530   0.815
  468SOL    HW111443   2.834   7.484   0.744
  468SOL    HW211444   2.853   7.622   0.828
  469SOL     OW11445   8.171   9.098   0.388
  469SOL    HW111446   8.098   9.167   0.390
  469SOL    HW211447   8.134   9.010   0.419
  470SOL     OW11448   2.608   3.660   0.661
  470SOL    HW111449   2.597   3.759   0.663
  470SOL    HW211450   2.576   3.625   0.573
  471SOL     OW11451   3.768   3.563   1.769
  471SOL    HW111452   3.678   3.581   1.729
  471SOL    HW211453   3.825   3.513   1.704
  472SOL     OW11454   0.752   9.196   1.602
  472SOL    HW111455   0.718   9.195   1.508
  472SOL    HW211456   0.683   9.235   1.662
  473SOL     OW11457   1.841   0.080   0.873
  473SOL    HW111458   1.849   0.170   0.915
  473SOL    HW211459   1.904   0.074   0.795
  474SOL     OW11460   1.514   8.535   1.598
  474SOL    HW111461   1.455   8.517   1.518
  474SOL    HW211462   1.458   8.533   1.681
  475SOL     OW11463   3.657   7.906   1.041
  475SOL    HW111464   3.622   7.992   1.077
  475SOL    HW211465   3.756   7.914   1.025
  476SOL     OW11466   0.601   6.689   0.642
  476SOL    HW111467   0.686   6.737   0.666
  476SOL    HW211468   0.549   6.671   0.726
  477SOL     OW11469   9.171   4.763   1.080
  477SOL    HW111470   9.102   4.750   1.009
  477SOL    HW211471   9.182   4.678   1.132
  478SOL     OW11472   9.367   4.389   2.279
  478SOL    HW111473   9.410   4.479   2.288
  478SOL    HW211474   9.289   4.395   2.218
  479SOL     OW11475   2.710   0.455   2.181
  479SOL    HW111476   2.789   0.427   2.236
  479SOL    HW211477   2.696   0.554   2.189
  480SOL     OW11478   2.534   0.789   0.622
  480SOL    HW111479   2.541   0.690   0.625
  480SOL    HW211480   2.463   0.816   0.556
  481SOL     OW11481   1.662   6.987   2.004
  481SOL    HW111482   1.703   7.070   1.966
  481SOL    HW211483   1.633   7.005   2.098
  482SOL     OW11484   1.444   7.773   1.880
  482SOL    HW111485   1.413   7.680   1.896
  482SOL    HW211486   1.430   7.828   1.962
  483SOL     OW11487   1.346   4.404   1.019
  483SOL    HW111488   1.379   4.366   0.932
  483SOL    HW211489   1.380   4.498   1.029
  484SOL     OW11490   2.418   5.888   0.831
  484SOL    HW111491   2.368   5.828   0.892
  484SOL    HW211492   2.466   5.834   0.762
  485SOL     OW11493   0.408   9.190   0.887
  485SOL    HW111494   0.488   9.246   0.868
  485SOL    HW211495   0.413   9.104   0.836
  486SOL     OW11496   9.365   1.928   0.332
  486SOL    HW111497   9.390   2.025   0.341
  486SOL    HW211498   9.279   1.921   0.281
  487SOL     OW11499   1.620   4.738   0.853
  487SOL    HW111500   1.581   4.702   0.769
  487SOL    HW211501   1.559   4.716   0.930
  488SOL     OW11502   0.816   9.191   2.133
  488SOL    HW111503   0.829   9.221   2.228
  488SOL    HW211504   0.749   9.117   2.130
  489SOL     OW11505   0.442   0.884   2.237
  489SOL    HW111506   0.386   0.819   2.288
  489SOL    HW211507   0.471   0.842   2.150
  490SOL     OW11508   0.376   9.019   2.239
  490SOL    HW111509   0.316   9.099   2.228
  490SOL    HW211510   0.466   9.039   2.200
  491SOL     OW11511   0.880   6.359   0.523
  491SOL    HW111512   0.961   6.303   0.539
  491SOL    HW211513   0.902   6.455   0.541
  492SOL     OW11514   3.834   0.567   1.323
  492SOL    HW111515   3.827   0.598   1.418
  492SOL    HW211516   3.753   0.597   1.272
  493SOL     OW11517   4.342   4.449   0.549
  493SOL    HW111518   4.430   4.403   0.558
  493SOL    HW211519   4.275   4.385   0.511
  494SOL     OW11520   2.095   3.416   1.773
  494SOL    HW111521   2.021   3.424   1.839
  494SOL    HW211522   2.090   3.327   1.728
  495SOL     OW11523   1.275   1.308   1.148
  495SOL    HW111524   1.366   1.320   1.188
  495SOL    HW211525   1.268   1.362   1.064
  496SOL     OW11526   0.883   3.977   1.981
  496SOL    HW111527   0.799   4.024   1.953
  496SOL    HW211528   0.952   4.045   2.007
  497SOL     OW11529   2.364   3.399   1.132
  497SOL    HW111530   2.324   3.440   1.049
  497SOL    HW211531   2.463   3.409   1.128
  498SOL     OW11532   2.561   3.049   1.159
  498SOL    HW111533   2.562   2.950   1.171
  498SOL    HW211534   2.588   3.094   1.244
  499SOL     OW11535   1.342   1.969   0.409
  499SOL    HW111536   1.265   1.925   0.456
  499SOL    HW211537   1.315   2.060   0.378
  500SOL     OW11538   9.621   3.537   0.644
  500SOL    HW111539   9.651   3.453   0.689
  500SOL    HW211540   9.524   3.528   0.619
  501SOL     OW11541   3.085   0.674   1.767
  501SOL    HW111542   3.152   0.738   1.804
  501SOL    HW211543   3.132   0.590   1.738
  502SOL     OW11544   2.552   3.928   0.671
  502SOL    HW111545   2.548   3.996   0.744
  502SOL    HW211546   2.625   3.952   0.607
  503SOL     OW11547   0.779   7.688   0.735
  503SOL    HW111548   0.797   7.643   0.648
  503SOL    HW211549   0.862   7.734   0.767
  504SOL     OW11550   9.314   7.063   0.718
  504SOL    HW111551   9.317   7.151   0.765
  504SOL    HW211552   9.377   6.999   0.762
  505SOL     OW11553   0.829   2.813   1.003
  505SOL    HW111554   0.923   2.779   1.006
  505SOL    HW211555   0.824   2.902   1.047
  506SOL     OW11556   8.874   9.174   1.446
  506SOL    HW111557   8.797   9.196   1.506
  506SOL    HW211558   8.951   9.234   1.468
  507SOL     OW11559   3.291   5.241   2.234
  507SOL    HW111560   3.367   5.208   2.289
  507SOL    HW211561   3.261   5.330   2.269
  508SOL     OW11562   9.609   0.911   2.056
  508SOL    HW111563   9.703   0.934   2.079
  508SOL    HW211564   9.574   0.843   2.120
  509SOL     OW11565   9.499   1.266   0.715
  509SOL    HW111566   9.440   1.340   0.680
  509SOL    HW211567   9.578   1.256   0.655
  510SOL     OW11568   3.826   4.137   1.806
  510SOL    HW111569   3.789   4.058   1.756
  510SOL    HW211570   3.785   4.221   1.770
  511SOL     OW11571   7.914   0.453   0.916
  511SOL    HW111572   7.956   0.520   0.978
  511SOL    HW211573   7.858   0.501   0.849
  512SOL     OW11574   0.084   6.573   2.000
  512SOL    HW111575   0.126   6.653   2.042
  512SOL    HW211576   0.155   6.516   1.959
  513SOL     OW11577   3.407   4.626   0.494
  513SOL    HW111578   3.495   4.587   0.466
  513SOL    HW211579   3.383   4.593   0.585
  514SOL     OW11580   1.908   0.718   0.691
  514SOL    HW111581   1.821   0.691   0.730
  514SOL    HW211582   1.906   0.816   0.669
  515SOL     OW11583   9.639   5.436   1.866
  515SOL    HW111584   9.576   5.447   1.790
  515SOL    HW211585   9.589   5.409   1.949
  516SOL     OW11586   3.583   8.792   0.306
  516SOL    HW111587   3.673   8.752   0.320
  516SOL    HW211588   3.558   8.785   0.209
  517SOL     OW11589   3.616   0.562   0.439
  517SOL    HW111590   3.573   0.472   0.436
  517SOL    HW211591   3.712   0.554   0.415
  518SOL     OW11592   1.585   9.573   2.045
  518SOL    HW111593   1.601   9.496   1.984
  518SOL    HW211594   1.548   9.650   1.992
  519SOL     OW11595   8.870   0.873   1.974
  519SOL    HW111596   8.808   0.915   2.041
  519SOL    HW211597   8.953   0.843   2.020
  520SOL     OW11598   9.740   7.917   1.912
  520SOL    HW111599   9.792   7.841   1.950
  520SOL    HW211600   9.660   7.935   1.969
  521SOL     OW11601   1.722   3.074   1.901
  521SOL    HW111602   1.744   3.112   1.991
  521SOL    HW211603   1.671   3.141   1.848
  522SOL     OW11604   3.190   4.098   1.968
  522SOL    HW111605   3.201   4.197   1.968
  522SOL    HW211606   3.234   4.060   1.886
  523SOL     OW11607   1.328   5.296   1.774
  523SOL    HW111608   1.413   5.298   1.828
  523SOL    HW211609   1.255   5.339   1.827
  524SOL     OW11610   1.167   5.014   2.074
  524SOL    HW111611   1.209   5.104   2.087
  524SOL    HW211612   1.068   5.024   2.073
  525SOL     OW11613   2.259   8.455   1.710
  525SOL    HW111614   2.292   8.429   1.800
  525SOL    HW211615   2.334   8.451   1.644
  526SOL     OW11616   9.238   6.801   0.490
  526SOL    HW111617   9.232   6.788   0.589
  526SOL    HW211618   9.162   6.858   0.459
  527SOL     OW11619   9.155   3.539   2.113
  527SOL    HW111620   9.177   3.443   2.128
  527SOL    HW211621   9.132   3.582   2.200
  528SOL     OW11622   9.260   8.630   1.014
  528SOL    HW111623   9.305   8.715   0.986
  528SOL    HW211624   9.321   8.553   0.999
  529SOL     OW11625   1.509   3.535   1.712
  529SOL    HW111626   1.545   3.538   1.619
  529SOL    HW211627   1.410   3.549   1.711
  530SOL     OW11628   0.428   8.382   2.201
  530SOL    HW111629   0.494   8.435   2.254
  530SOL    HW211630   0.340   8.429   2.201
  531SOL     OW11631   4.403   2.381   1.366
  531SOL    HW111632   4.424   2.306   1.303
  531SOL    HW211633   4.487   2.423   1.397
  532SOL     OW11634   8.632   8.185   0.537
  532SOL    HW111635   8.717   8.157   0.582
  532SOL    HW211636   8.649   8.269   0.485
  533SOL     OW11637   8.237   1.279   1.197
  533SOL    HW111638   8.205   1.255   1.289
  533SOL    HW211639   8.306   1.213   1.168
  534SOL     OW11640   7.964   0.380   2.147
  534SOL    HW111641   7.898   0.344   2.213
  534SOL    HW211642   7.918   0.442   2.084
  535SOL     OW11643   1.134   5.435   1.920
  535SOL    HW111644   1.139   5.515   1.860
  535SOL    HW211645   1.044   5.393   1.913
  536SOL     OW11646   0.460   5.152   2.274
  536SOL    HW111647   0.387   5.185   2.214
  536SOL    HW211648   0.420   5.099   2.349
  537SOL     OW11649   1.083   7.996   0.465
  537SOL    HW111650   1.117   8.070   0.522
  537SOL    HW211651   0.988   8.014   0.440
  538SOL     OW11652   3.110   4.821   1.068
  538SOL    HW111653   3.139   4.882   0.994
  538SOL    HW211654   3.020   4.782   1.045
  539SOL     OW11655   0.108   0.371   1.732
  539SOL    HW111656   0.052   0.393   1.812
  539SOL    HW211657   0.100   0.444   1.664
  540SOL     OW11658   0.055   7.939   1.004
  540SOL    HW111659   0.043   7.962   0.908
  540SOL    HW211660   0.060   8.024   1.058
  541SOL     OW11661   0.266   6.168   0.707
  541SOL    HW111662   0.334   6.241   0.708
  541SOL    HW211663   0.188   6.194   0.764
  542SOL     OW11664   0.600   1.964   1.605
  542SOL    HW111665   0.656   1.964   1.688
  542SOL    HW211666   0.573   2.057   1.583
  543SOL     OW11667   8.622   2.945   1.583
  543SOL    HW111668   8.627   2.870   1.650
  543SOL    HW211669   8.713   2.961   1.545
  544SOL     OW11670   8.811   4.165   1.840
  544SOL    HW111671   8.862   4.182   1.924
  544SOL    HW211672   8.747   4.089   1.854
  545SOL     OW11673   3.427   8.024   2.245
  545SOL    HW111674   3.523   8.053   2.242
  545SOL    HW211675   3.412   7.966   2.325
  546SOL     OW11676   3.072   2.003   1.002
  546SOL    HW111677   3.157   2.046   1.032
  546SOL    HW211678   3.089   1.954   0.916
  547SOL     OW11679   3.145   3.486   1.380
  547SOL    HW111680   3.172   3.582   1.386
  547SOL    HW211681   3.144   3.445   1.471
  548SOL     OW11682   7.371   0.530   1.214
  548SOL    HW111683   7.458   0.546   1.166
  548SOL    HW211684   7.350   0.433   1.213
  549SOL     OW11685   9.826   4.884   1.842
  549SOL    HW111686   9.923   4.876   1.866
  549SOL    HW211687   9.781   4.796   1.854
  550SOL     OW11688   9.982   0.007   0.973
  550SOL    HW111689   0.070   0.054   0.982
  550SOL    HW211690   9.988   9.918   1.018
  551SOL     OW11691   1.847   4.929   0.905
  551SOL    HW111692   1.807   4.842   0.878
  551SOL    HW211693   1.940   4.936   0.869
  552SOL     OW11694   2.257   4.200   0.745
  552SOL    HW111695   2.294   4.278   0.796
  552SOL    HW211696   2.157   4.199   0.754
  553SOL     OW11697   9.664   6.816   1.878
  553SOL    HW111698   9.642   6.904   1.838
  553SOL    HW211699   9.745   6.777   1.833
  554SOL     OW11700   1.076   8.235   1.709
  554SOL    HW111701   0.994   8.232   1.766
  554SOL    HW211702   1.101   8.142   1.682
  555SOL     OW11703   1.988   6.149   1.080
  555SOL    HW111704   1.999   6.117   0.985
  555SOL    HW211705   1.899   6.194   1.089
  556SOL     OW11706   1.485   0.736   1.642
  556SOL    HW111707   1.583   0.721   1.630
  556SOL    HW211708   1.468   0.769   1.735
  557SOL     OW11709   0.721   2.432   0.678
  557SOL    HW111710   0.753   2.394   0.591
  557SOL    HW211711   0.629   2.467   0.668
  558SOL     OW11712   0.169   6.337   1.654
  558SOL    HW111713   0.246   6.346   1.591
  558SOL    HW211714   0.194   6.372   1.744
  559SOL     OW11715   8.800   8.105   1.221
  559SOL    HW111716   8.889   8.060   1.227
  559SOL    HW211717   8.751   8.072   1.141
  560SOL     OW11718   4.879   3.460   1.155
  560SOL    HW111719   4.952   3.511   1.200
  560SOL    HW211720   4.809   3.524   1.122
  561SOL     OW11721   9.281   6.231   1.241
  561SOL    HW111722   9.329   6.265   1.322
  561SOL    HW211723   9.332   6.154   1.202
  562SOL     OW11724   9.761   0.213   1.598
  562SOL    HW111725   9.751   0.309   1.627
  562SOL    HW211726   9.673   0.181   1.561
  563SOL     OW11727   0.550   2.950   2.022
  563SOL    HW111728   0.560   3.047   1.999
  563SOL    HW211729   0.572   2.895   1.942
  564SOL     OW11730   0.564   8.599   2.316
  564SOL    HW111731   0.494   8.651   2.265
  564SOL    HW211732   0.639   8.660   2.341
  565SOL     OW11733   7.566   9.088   1.171
  565SOL    HW111734   7.589   9.181   1.199
  565SOL    HW211735   7.631   9.024   1.213
  566SOL     OW11736   3.045   1.636   1.318
  566SOL    HW111737   3.008   1.601   1.404
  566SOL    HW211738   2.994   1.597   1.241
  567SOL     OW11739   0.121   2.050   0.566
  567SOL    HW111740   0.197   1.999   0.607
  567SOL    HW211741   0.074   2.102   0.638
  568SOL     OW11742   2.369   3.856   1.020
  568SOL    HW111743   2.390   3.787   0.951
  568SOL    HW211744   2.269   3.865   1.029
  569SOL     OW11745   2.394   2.230   1.067
  569SOL    HW111746   2.466   2.234   1.136
  569SOL    HW211747   2.307   2.206   1.111
  570SOL     OW11748   8.887   6.485   2.119
  570SOL    HW111749   8.860   6.510   2.212
  570SOL    HW211750   8.914   6.568   2.069
  571SOL     OW11751   2.840   0.651   0.838
  571SOL    HW111752   2.783   0.570   0.849
  571SOL    HW211753   2.835   0.706   0.922
  572SOL     OW11754   1.874   3.602   1.462
  572SOL    HW111755   1.942   3.622   1.533
  572SOL    HW211756   1.889   3.663   1.383
  573SOL     OW11757   3.634   1.732   1.525
  573SOL    HW111758   3.648   1.810   1.464
  573SOL    HW211759   3.723   1.699   1.557
  574SOL     OW11760   0.472   1.735   1.087
  574SOL    HW111761   0.542   1.689   1.033
  574SOL    HW211762   0.456   1.683   1.171
  575SOL     OW11763   3.707   4.361   1.697
  575SOL    HW111764   3.636   4.414   1.743
  575SOL    HW211765   3.666   4.307   1.623
  576SOL     OW11766   9.014   3.880   1.432
  576SOL    HW111767   8.929   3.907   1.387
  576SOL    HW211768   9.020   3.924   1.521
  577SOL     OW11769   1.760   4.247   1.994
  577SOL    HW111770   1.801   4.156   1.980
  577SOL    HW211771   1.661   4.238   2.004
  578SOL     OW11772   1.772   8.009   2.005
  578SOL    HW111773   1.720   8.057   1.934
  578SOL    HW211774   1.868   8.003   1.977
  579SOL     OW11775   9.810   7.066   0.806
  579SOL    HW111776   9.836   6.994   0.870
  579SOL    HW211777   9.747   7.029   0.738
  580SOL     OW11778   4.147   2.968   1.308
  580SOL    HW111779   4.168   3.033   1.235
  580SOL    HW211780   4.058   2.991   1.349
  581SOL     OW11781   9.603   9.541   1.793
  581SOL    HW111782   9.586   9.489   1.877
  581SOL    HW211783   9.537   9.514   1.723
  582SOL     OW11784   0.480   4.453   2.169
  582SOL    HW111785   0.429   4.376   2.208
  582SOL    HW211786   0.578   4.431   2.169
  583SOL     OW11787   4.986   3.655   0.519
  583SOL    HW111788   4.906   3.595   0.514
  583SOL    HW211789   5.068   3.604   0.492
  584SOL     OW11790   1.059   0.915   0.682
  584SOL    HW111791   0.988   0.956   0.739
  584SOL    HW211792   1.032   0.823   0.655
  585SOL     OW11793   1.349   4.445   1.600
  585SOL    HW111794   1.350   4.518   1.669
  585SOL    HW211795   1.393   4.477   1.516
  586SOL     OW11796   9.064   8.580   0.558
  586SOL    HW111797   9.146   8.528   0.582
  586SOL    HW211798   8.983   8.528   0.586
  587SOL     OW11799   8.587   0.185   2.310
  587SOL    HW111800   8.663   0.225   2.259
  587SOL    HW211801   8.615   0.167   2.405
  588SOL     OW11802   2.707   9.609   2.194
  588SOL    HW111803   2.775   9.554   2.242
  588SOL    HW211804   2.723   9.706   2.212
  589SOL     OW11805   0.791   4.407   0.439
  589SOL    HW111806   0.781   4.373   0.533
  589SOL    HW211807   0.837   4.495   0.440
  590SOL     OW11808   3.958   8.570   1.623
  590SOL    HW111809   4.053   8.558   1.651
  590SOL    HW211810   3.900   8.577   1.704
  591SOL     OW11811   9.460   7.437   1.348
  591SOL    HW111812   9.418   7.395   1.429
  591SOL    HW211813   9.520   7.512   1.376
  592SOL     OW11814   2.174   8.212   1.611
  592SOL    HW111815   2.113   8.237   1.535
  592SOL    HW211816   2.198   8.294   1.663
  593SOL     OW11817   9.855   8.598   1.335
  593SOL    HW111818   9.935   8.576   1.391
  593SOL    HW211819   9.832   8.520   1.277
  594SOL     OW11820   9.699   7.259   2.084
  594SOL    HW111821   9.761   7.202   2.029
  594SOL    HW211822   9.627   7.202   2.123
  595SOL     OW11823   0.112   8.179   1.126
  595SOL    HW111824   0.134   8.152   1.219
  595SOL    HW211825   0.184   8.238   1.090
  596SOL     OW11826   9.521   8.204   1.330
  596SOL    HW111827   9.598   8.176   1.273
  596SOL    HW211828   9.542   8.189   1.426
  597SOL     OW11829   8.908   6.716   0.600
  597SOL    HW111830   8.905   6.617   0.581
  597SOL    HW211831   8.914   6.731   0.698
  598SOL     OW11832   3.380   2.157   1.651
  598SOL    HW111833   3.366   2.119   1.742
  598SOL    HW211834   3.477   2.153   1.627
  599SOL     OW11835   2.067   2.219   0.485
  599SOL    HW111836   2.051   2.313   0.454
  599SOL    HW211837   2.165   2.205   0.499
  600SOL     OW11838   7.704   0.851   0.791
  600SOL    HW111839   7.718   0.849   0.890
  600SOL    HW211840   7.641   0.925   0.768
  601SOL     OW11841   8.669   8.724   1.443
  601SOL    HW111842   8.619   8.759   1.523
  601SOL    HW211843   8.712   8.801   1.396
  602SOL     OW11844   4.289   9.035   1.634
  602SOL    HW111845   4.288   8.978   1.553
  602SOL    HW211846   4.316   9.128   1.609
  603SOL     OW11847   9.746   1.589   1.570
  603SOL    HW111848   9.709   1.497   1.554
  603SOL    HW211849   9.703   1.629   1.651
  604SOL     OW11850   9.915   2.579   0.987
  604SOL    HW111851   9.886   2.666   1.027
  604SOL    HW211852   9.931   2.513   1.061
  605SOL     OW11853   1.584   4.588   1.744
  605SOL    HW111854   1.622   4.574   1.836
  605SOL    HW211855   1.622   4.521   1.681
  606SOL     OW11856   3.696   8.719   2.082
  606SOL    HW111857   3.773   8.694   2.140
  606SOL    HW211858   3.704   8.815   2.055
  607SOL     OW11859   3.451   3.184   0.768
  607SOL    HW111860   3.541   3.214   0.801
  607SOL    HW211861   3.434   3.091   0.799
  608SOL     OW11862   8.923   9.159   0.801
  608SOL    HW111863   9.014   9.186   0.768
  608SOL    HW211864   8.925   9.063   0.828
  609SOL     OW11865   9.602   4.796   2.091
  609SOL    HW111866   9.628   4.739   2.013
  609SOL    HW211867   9.679   4.856   2.114
  610SOL     OW11868   0.539   0.287   0.373
  610SOL    HW111869   0.446   0.264   0.345
  610SOL    HW211870   0.586   0.205   0.405
  611SOL     OW11871   9.064   7.897   0.982
  611SOL    HW111872   9.064   7.976   0.920
  611SOL    HW211873   9.050   7.928   1.076
  612SOL     OW11874   9.653   7.678   0.792
  612SOL    HW111875   9.583   7.623   0.837
  612SOL    HW211876   9.729   7.695   0.855
  613SOL     OW11877   0.996   8.647   0.882
  613SOL    HW111878   0.932   8.593   0.937
  613SOL    HW211879   1.022   8.595   0.800
  614SOL     OW11880   9.745   6.434   1.749
  614SOL    HW111881   9.735   6.402   1.655
  614SOL    HW211882   9.654   6.452   1.788
  615SOL     OW11883   7.935   9.704   0.747
  615SOL    HW111884   7.953   9.682   0.843
  615SOL    HW211885   8.020   9.694   0.694
  616SOL     OW11886   1.521   1.096   1.401
  616SOL    HW111887   1.553   1.117   1.493
  616SOL    HW211888   1.517   1.179   1.346
  617SOL     OW11889   9.424   2.179   2.214
  617SOL    HW111890   9.422   2.274   2.244
  617SOL    HW211891   9.446   2.175   2.116
  618SOL     OW11892   3.440   4.417   1.145
  618SOL    HW111893   3.351   4.444   1.108
  618SOL    HW211894   3.469   4.332   1.100
  619SOL     OW11895   2.718   0.734   2.173
  619SOL    HW111896   2.736   0.820   2.222
  619SOL    HW211897   2.775   0.731   2.090
  620SOL     OW11898   3.989   1.986   0.947
  620SOL    HW111899   4.050   1.975   0.868
  620SOL    HW211900   4.012   1.918   1.017
  621SOL     OW11901   9.228   9.343   1.782
  621SOL    HW111902   9.171   9.400   1.842
  621SOL    HW211903   9.186   9.253   1.772
  622SOL     OW11904   7.884   9.847   1.985
  622SOL    HW111905   7.973   9.885   1.958
  622SOL    HW211906   7.895   9.792   2.068
  623SOL     OW11907   2.073   9.043   0.394
  623SOL    HW111908   1.991   8.993   0.421
  623SOL    HW211909   2.047   9.119   0.335
  624SOL     OW11910   9.461   3.357   1.004
  624SOL    HW111911   9.454   3.301   0.922
  624SOL    HW211912   9.502   3.303   1.078
  625SOL     OW11913   0.991   6.620   2.094
  625SOL    HW111914   1.016   6.716   2.090
  625SOL    HW211915   1.022   6.573   2.012
  626SOL     OW11916   2.169   6.710   0.737
  626SOL    HW111917   2.219   6.792   0.710
  626SOL    HW211918   2.215   6.666   0.814
  627SOL     OW11919   8.812   0.613   0.489
  627SOL    HW111920   8.747   0.678   0.451
  627SOL    HW211921   8.904   0.634   0.456
  628SOL     OW11922   4.603   2.579   1.703
  628SOL    HW111923   4.633   2.543   1.614
  628SOL    HW211924   4.683   2.597   1.760
  629SOL     OW11925   0.251   9.850   1.947
  629SOL    HW111926   0.326   9.905   1.911
  629SOL    HW211927   0.175   9.849   1.882
  630SOL     OW11928   1.370   0.398   0.394
  630SOL    HW111929   1.431   0.339   0.448
  630SOL    HW211930   1.356   0.357   0.304
  631SOL     OW11931   2.748   7.622   1.328
  631SOL    HW111932   2.802   7.704   1.310
  631SOL    HW211933   2.757   7.597   1.424
  632SOL     OW11934   2.658   0.538   1.446
  632SOL    HW111935   2.626   0.545   1.540
  632SOL    HW211936   2.695   0.626   1.417
  633SOL     OW11937   9.785   1.794   1.400
  633SOL    HW111938   9.860   1.767   1.339
  633SOL    HW211939   9.763   1.719   1.461
  634SOL     OW11940   1.198   1.305   1.419
  634SOL    HW111941   1.148   1.221   1.441
  634SOL    HW211942   1.209   1.312   1.320
  635SOL     OW11943   4.339   2.247   1.618
  635SOL    HW111944   4.381   2.294   1.696
  635SOL    HW211945   4.359   2.297   1.534
  636SOL     OW11946   0.301   5.650   1.681
  636SOL    HW111947   0.372   5.720   1.667
  636SOL    HW211948   0.335   5.580   1.743
  637SOL     OW11949   4.491   2.701   0.353
  637SOL    HW111950   4.539   2.785   0.380
  637SOL    HW211951   4.479   2.643   0.434
  638SOL     OW11952   0.110   1.970   1.421
  638SOL    HW111953   0.191   1.944   1.474
  638SOL    HW211954   0.032   1.979   1.482
  639SOL     OW11955   0.869   0.581   1.400
  639SOL    HW111956   0.821   0.504   1.358
  639SOL    HW211957   0.884   0.653   1.332
  640SOL     OW11958   3.524   1.494   0.884
  640SOL    HW111959   3.526   1.590   0.911
  640SOL    HW211960   3.506   1.437   0.965
  641SOL     OW11961   4.330   4.011   0.674
  641SOL    HW111962   4.301   4.089   0.729
  641SOL    HW211963   4.425   3.989   0.695
  642SOL     OW11964   9.377   3.081   1.824
  642SOL    HW111965   9.403   3.020   1.899
  642SOL    HW211966   9.307   3.037   1.768
  643SOL     OW11967   2.048   7.968   1.933
  643SOL    HW111968   2.031   7.877   1.973
  643SOL    HW211969   2.055   7.959   1.834
  644SOL     OW11970   2.137   5.012   1.695
  644SOL    HW111971   2.215   5.061   1.734
  644SOL    HW211972   2.169   4.931   1.647
  645SOL     OW11973   4.771   2.919   0.975
  645SOL    HW111974   4.672   2.934   0.974
  645SOL    HW211975   4.813   2.969   0.899
  646SOL     OW11976   3.124   0.700   2.197
  646SOL    HW111977   3.090   0.680   2.289
  646SOL    HW211978   3.152   0.796   2.192
  647SOL     OW11979   2.825   7.649   0.442
  647SOL    HW111980   2.810   7.556   0.475
  647SOL    HW211981   2.875   7.701   0.511
  648SOL     OW11982   1.745   7.237   1.929
  648SOL    HW111983   1.757   7.291   1.846
  648SOL    HW211984   1.829   7.239   1.983
  649SOL     OW11985   4.991   3.738   0.787
  649SOL    HW111986   4.994   3.652   0.838
  649SOL    HW211987   4.983   3.720   0.690
  650SOL     OW11988   4.251   4.151   2.246
  650SOL    HW111989   4.198   4.165   2.330
  650SOL    HW211990   4.264   4.239   2.199
  651SOL     OW11991   3.648   2.115   1.577
  651SOL    HW111992   3.728   2.173   1.567
  651SOL    HW211993   3.637   2.058   1.496
  652SOL     OW11994   0.660   8.536   1.275
  652SOL    HW111995   0.593   8.472   1.238
  652SOL    HW211996   0.613   8.614   1.317
  653SOL     OW11997   0.112   8.893   1.243
  653SOL    HW111998   0.171   8.947   1.183
  653SOL    HW211999   0.030   8.865   1.192
  654SOL     OW12000   2.540   1.949   1.752
  654SOL    HW112001   2.597   1.883   1.801
  654SOL    HW212002   2.487   2.002   1.818
  655SOL     OW12003   2.888   0.191   2.028
  655SOL    HW112004   2.953   0.148   2.090
  655SOL    HW212005   2.795   0.182   2.065
  656SOL     OW12006   9.556   1.190   1.165
  656SOL    HW112007   9.581   1.175   1.069
  656SOL    HW212008   9.463   1.229   1.169
  657SOL     OW12009   8.179   9.054   1.712
  657SOL    HW112010   8.091   9.086   1.678
  657SOL    HW212011   8.188   8.956   1.694
  658SOL     OW12012   3.734   1.956   1.787
  658SOL    HW112013   3.691   2.003   1.710
  658SOL    HW212014   3.805   2.015   1.826
  659SOL     OW12015   0.042   0.264   2.088
  659SOL    HW112016   9.998   0.191   2.140
  659SOL    HW212017   0.134   0.235   2.060
  660SOL     OW12018   0.600   4.706   2.114
  660SOL    HW112019   0.647   4.665   2.035
  660SOL    HW212020   0.534   4.640   2.150
  661SOL     OW12021   0.373   3.530   1.605
  661SOL    HW112022   0.443   3.526   1.534
  661SOL    HW212023   0.404   3.589   1.680
  662SOL     OW12024   9.373   9.921   0.949
  662SOL    HW112025   9.306   9.900   1.020
  662SOL    HW212026   9.335   9.989   0.887
  663SOL     OW12027   9.199   2.120   1.340
  663SOL    HW112028   9.150   2.036   1.319
  663SOL    HW212029   9.292   2.116   1.302
  664SOL     OW12030   9.569   3.084   0.437
  664SOL    HW112031   9.478   3.122   0.452
  664SOL    HW212032   9.572   3.038   0.349
  665SOL     OW12033   3.651   1.959   1.347
  665SOL    HW112034   3.568   1.930   1.298
  665SOL    HW212035   3.691   2.037   1.300
  666SOL     OW12036   1.706   7.551   2.188
  666SOL    HW112037   1.799   7.556   2.223
  666SOL    HW212038   1.672   7.643   2.170
  667SOL     OW12039   8.984   1.991   0.379
  667SOL    HW112040   9.044   2.020   0.454
  667SOL    HW212041   8.929   2.068   0.348
  668SOL     OW12042   2.071   7.537   1.406
  668SOL    HW112043   2.064   7.563   1.309
  668SOL    HW212044   2.167   7.520   1.429
  669SOL     OW12045   2.797   9.317   1.585
  669SOL    HW112046   2.741   9.239   1.557
  669SOL    HW212047   2.797   9.324   1.685
  670SOL     OW12048   3.495   0.175   2.145
  670SOL    HW112049   3.532   0.185   2.052
  670SOL    HW212050   3.571   0.173   2.210
  671SOL     OW12051   1.113   1.688   0.607
  671SOL    HW112052   1.202   1.652   0.633
  671SOL    HW212053   1.113   1.787   0.614
  672SOL     OW12054   3.873   9.375   0.827
  672SOL    HW112055   3.909   9.310   0.894
  672SOL    HW212056   3.927   9.369   0.743
  673SOL     OW12057   0.617   8.873   0.981
  673SOL    HW112058   0.551   8.907   0.913
  673SOL    HW212059   0.710   8.886   0.946
  674SOL     OW12060   0.108   2.896   1.081
  674SOL    HW112061   0.189   2.839   1.069
  674SOL    HW212062   0.126   2.965   1.151
  675SOL     OW12063   1.374   5.477   1.287
  675SOL    HW112064   1.346   5.460   1.382
  675SOL    HW212065   1.412   5.569   1.280
  676SOL     OW12066   9.215   9.438   0.466
  676SOL    HW112067   9.245   9.513   0.525
  676SOL    HW212068   9.115   9.443   0.455
  677SOL     OW12069   9.294   8.440   0.604
  677SOL    HW112070   9.300   8.365   0.670
  677SOL    HW212071   9.385   8.480   0.591
  678SOL     OW12072   1.936   6.940   2.177
  678SOL    HW112073   1.969   6.860   2.127
  678SOL    HW212074   1.863   6.913   2.240
  679SOL     OW12075   3.912   2.137   1.891
  679SOL    HW112076   3.987   2.184   1.844
  679SOL    HW212077   3.934   2.128   1.988
  680SOL     OW12078   3.783   5.127   1.308
  680SOL    HW112079   3.813   5.204   1.253
  680SOL    HW212080   3.704   5.083   1.265
  681SOL     OW12081   8.869   2.806   1.929
  681SOL    HW112082   8.936   2.783   1.859
  681SOL    HW212083   8.868   2.735   2.000
  682SOL     OW12084   9.607   6.009   1.356
  682SOL    HW112085   9.589   6.019   1.454
  682SOL    HW212086   9.660   6.088   1.324
  683SOL     OW12087   2.934   4.031   2.033
  683SOL    HW112088   3.029   4.052   2.009
  683SOL    HW212089   2.917   3.934   2.020
  684SOL     OW12090   3.339   4.871   1.206
  684SOL    HW112091   3.400   4.794   1.190
  684SOL    HW212092   3.253   4.857   1.157
  685SOL     OW12093   0.058   1.937   1.995
  685SOL    HW112094   0.149   1.976   2.002
  685SOL    HW212095   0.003   1.991   1.932
  686SOL     OW12096   9.466   2.429   1.758
  686SOL    HW112097   9.531   2.446   1.683
  686SOL    HW212098   9.466   2.507   1.820
  687SOL     OW12099   9.949   8.643   0.732
  687SOL    HW112100   9.958   8.611   0.826
  687SOL    HW212101   9.857   8.680   0.718
  688SOL     OW12102   0.334   1.886   1.567
  688SOL    HW112103   0.433   1.901   1.574
  688SOL    HW212104   0.316   1.788   1.552
  689SOL     OW12105   2.729   6.919   0.646
  689SOL    HW112106   2.737   6.843   0.710
  689SOL    HW212107   2.727   7.006   0.696
  690SOL     OW12108   8.799   7.439   1.808
  690SOL    HW112109   8.736   7.455   1.884
  690SOL    HW212110   8.746   7.423   1.724
  691SOL     OW12111   8.972   7.203   1.799
  691SOL    HW112112   8.952   7.300   1.808
  691SOL    HW212113   8.921   7.165   1.722
  692SOL     OW12114   3.275   3.318   0.382
  692SOL    HW112115   3.371   3.292   0.373
  692SOL    HW212116   3.218   3.237   0.373
  693SOL     OW12117   0.239   7.653   1.569
  693SOL    HW112118   0.203   7.569   1.529
  693SOL    HW212119   0.338   7.657   1.557
  694SOL     OW12120   2.720   4.912   1.885
  694SOL    HW112121   2.815   4.883   1.877
  694SOL    HW212122   2.660   4.835   1.864
  695SOL     OW12123   9.922   0.624   1.316
  695SOL    HW112124   9.851   0.674   1.267
  695SOL    HW212125   0.012   0.654   1.284
  696SOL     OW12126   9.677   7.962   0.998
  696SOL    HW112127   9.626   7.971   0.912
  696SOL    HW212128   9.737   7.883   0.993
  697SOL     OW12129   9.438   6.031   1.141
  697SOL    HW112130   9.491   6.017   1.224
  697SOL    HW212131   9.498   6.024   1.061
  698SOL     OW12132   8.992   9.746   0.812
  698SOL    HW112133   9.038   9.693   0.883
  698SOL    HW212134   9.058   9.807   0.768
  699SOL     OW12135   0.442   8.325   1.474
  699SOL    HW112136   0.474   8.410   1.515
  699SOL    HW212137   0.455   8.329   1.375
  700SOL     OW12138   1.610   1.025   0.623
  700SOL    HW112139   1.520   1.014   0.665
  700SOL    HW212140   1.614   0.970   0.539
  701SOL     OW12141   0.441   8.410   0.536
  701SOL    HW112142   0.443   8.509   0.540
  701SOL    HW212143   0.355   8.380   0.494
  702SOL     OW12144   0.906   7.360   1.984
  702SOL    HW112145   0.959   7.304   2.048
  702SOL    HW212146   0.833   7.306   1.944
  703SOL     OW12147   0.736   0.086   1.118
  703SOL    HW112148   0.713   0.130   1.032
  703SOL    HW212149   0.823   0.121   1.152
  704SOL     OW12150   3.091   2.960   1.963
  704SOL    HW112151   3.082   2.911   1.876
  704SOL    HW212152   3.152   2.909   2.023
  705SOL     OW12153   1.737   8.162   2.232
  705SOL    HW112154   1.752   8.097   2.157
  705SOL    HW212155   1.811   8.229   2.232
  706SOL     OW12156   9.391   6.254   0.503
  706SOL    HW112157   9.452   6.218   0.433
  706SOL    HW212158   9.342   6.179   0.547
  707SOL     OW12159   7.778   9.615   1.863
  707SOL    HW112160   7.792   9.545   1.933
  707SOL    HW212161   7.815   9.702   1.896
  708SOL     OW12162   3.120   7.516   0.657
  708SOL    HW112163   3.049   7.535   0.726
  708SOL    HW212164   3.089   7.442   0.598
  709SOL     OW12165   1.856   8.102   1.302
  709SOL    HW112166   1.807   8.118   1.216
  709SOL    HW212167   1.791   8.097   1.378
  710SOL     OW12168   2.983   4.483   2.237
  710SOL    HW112169   3.079   4.496   2.259
  710SOL    HW212170   2.974   4.413   2.166
  711SOL     OW12171   9.084   4.946   1.279
  711SOL    HW112172   9.122   4.900   1.199
  711SOL    HW212173   9.121   5.039   1.284
  712SOL     OW12174   0.436   3.406   1.163
  712SOL    HW112175   0.336   3.407   1.165
  712SOL    HW212176   0.467   3.435   1.073
  713SOL     OW12177   1.408   6.821   1.183
  713SOL    HW112178   1.393   6.787   1.090
  713SOL    HW212179   1.320   6.846   1.224
  714SOL     OW12180   0.409   8.288   0.786
  714SOL    HW112181   0.456   8.200   0.791
  714SOL    HW212182   0.429   8.332   0.699
  715SOL     OW12183   1.867   1.942   1.593
  715SOL    HW112184   1.875   1.985   1.683
  715SOL    HW212185   1.879   1.843   1.602
  716SOL     OW12186   2.556   2.778   1.189
  716SOL    HW112187   2.633   2.732   1.144
  716SOL    HW212188   2.497   2.711   1.231
  717SOL     OW12189   9.923   1.338   2.352
  717SOL    HW112190   9.848   1.342   2.285
  717SOL    HW212191   9.884   1.331   2.444
  718SOL     OW12192   0.808   5.335   1.533
  718SOL    HW112193   0.748   5.300   1.461
  718SOL    HW212194   0.756   5.396   1.592
  719SOL     OW12195   3.642   8.401   1.725
  719SOL    HW112196   3.572   8.465   1.692
  719SOL    HW212197   3.710   8.452   1.778
  720SOL     OW12198   3.578   0.613   1.194
  720SOL    HW112199   3.513   0.644   1.124
  720SOL    HW212200   3.582   0.513   1.193
  721SOL     OW12201   9.414   1.883   1.594
  721SOL    HW112202   9.391   1.796   1.638
  721SOL    HW212203   9.446   1.865   1.501
  722SOL     OW12204   4.141   0.316   1.329
  722SOL    HW112205   4.116   0.402   1.284
  722SOL    HW212206   4.239   0.313   1.344
  723SOL     OW12207   1.284   2.385   1.767
  723SOL    HW112208   1.270   2.459   1.832
  723SOL    HW212209   1.249   2.412   1.677
  724SOL     OW12210   0.067   7.301   2.119
  724SOL    HW112211   0.117   7.375   2.076
  724SOL    HW212212   9.985   7.337   2.164
  725SOL     OW12213   9.320   9.692   1.282
  725SOL    HW112214   9.345   9.722   1.374
  725SOL    HW212215   9.275   9.767   1.233
  726SOL     OW12216   9.824   2.503   0.597
  726SOL    HW112217   9.923   2.492   0.606
  726SOL    HW212218   9.780   2.414   0.599
  727SOL     OW12219   0.502   7.133   0.971
  727SOL    HW112220   0.579   7.178   0.928
  727SOL    HW212221   0.485   7.174   1.061
  728SOL     OW12222   2.797   2.868   2.319
  728SOL    HW112223   2.854   2.895   2.396
  728SOL    HW212224   2.814   2.929   2.241
  729SOL     OW12225   3.049   1.179   1.196
  729SOL    HW112226   3.139   1.152   1.163
  729SOL    HW212227   3.059   1.234   1.279
  730SOL     OW12228   1.695   0.071   1.323
  730SOL    HW112229   1.690   9.987   1.379
  730SOL    HW212230   1.791   0.090   1.302
  731SOL     OW12231   3.925   3.931   0.595
  731SOL    HW112232   4.008   3.883   0.570
  731SOL    HW212233   3.947   4.026   0.620
  732SOL     OW12234   1.798   0.965   1.768
  732SOL    HW112235   1.714   1.012   1.739
  732SOL    HW212236   1.785   0.866   1.757
  733SOL     OW12237   0.752   0.795   0.962
  733SOL    HW112238   0.790   0.716   0.914
  733SOL    HW212239   0.654   0.781   0.978
  734SOL     OW12240   1.891   0.989   0.658
  734SOL    HW112241   1.797   1.010   0.634
  734SOL    HW212242   1.906   1.009   0.755
  735SOL     OW12243   0.698   8.893   0.425
  735SOL    HW112244   0.608   8.876   0.387
  735SOL    HW212245   0.691   8.907   0.524
  736SOL     OW12246   9.372   0.268   1.307
  736SOL    HW112247   9.292   0.328   1.313
  736SOL    HW212248   9.381   0.233   1.214
  737SOL     OW12249   0.004   3.396   2.193
  737SOL    HW112250   0.018   3.377   2.290
  737SOL    HW212251   0.041   3.321   2.138
  738SOL     OW12252   9.794   8.402   1.159
  738SOL    HW112253   9.768   8.308   1.179
  738SOL    HW212254   9.857   8.404   1.081
  739SOL     OW12255   3.640   8.454   0.936
  739SOL    HW112256   3.650   8.485   1.030
  739SOL    HW212257   3.562   8.392   0.929
  740SOL     OW12258   3.400   2.010   0.444
  740SOL    HW112259   3.327   2.043   0.503
  740SOL    HW212260   3.452   2.088   0.408
  741SOL     OW12261   8.789   1.892   0.659
  741SOL    HW112262   8.813   1.839   0.578
  741SOL    HW212263   8.698   1.866   0.691
  742SOL     OW12264   0.789   4.037   1.021
  742SOL    HW112265   0.837   4.082   0.946
  742SOL    HW212266   0.766   4.104   1.091
  743SOL     OW12267   9.297   5.071   1.873
  743SOL    HW112268   9.209   5.113   1.893
  743SOL    HW212269   9.345   5.051   1.959
  744SOL     OW12270   7.841   8.727   2.304
  744SOL    HW112271   7.928   8.679   2.294
  744SOL    HW212272   7.776   8.669   2.354
  745SOL     OW12273   3.822   9.983   2.116
  745SOL    HW112274   3.855   0.054   2.054
  745SOL    HW212275   3.865   9.896   2.094
  746SOL     OW12276   2.055   6.005   1.533
  746SOL    HW112277   2.144   5.986   1.492
  746SOL    HW212278   2.055   6.096   1.573
  747SOL     OW12279   1.790   7.385   1.004
  747SOL    HW112280   1.880   7.370   1.045
  747SOL    HW212281   1.801   7.421   0.912
  748SOL     OW12282   2.614   6.136   2.123
  748SOL    HW112283   2.686   6.132   2.054
  748SOL    HW212284   2.611   6.228   2.164
  749SOL     OW12285   8.745   8.928   1.774
  749SOL    HW112286   8.791   9.015   1.793
  749SOL    HW212287   8.804   8.852   1.803
  750SOL     OW12288   0.541   5.702   1.246
  750SOL    HW112289   0.471   5.659   1.190
  750SOL    HW212290   0.499   5.770   1.306
  751SOL     OW12291   3.074   1.298   0.729
  751SOL    HW112292   3.043   1.298   0.824
  751SOL    HW212293   3.169   1.328   0.725
  752SOL     OW12294   8.989   0.927   0.928
  752SOL    HW112295   8.914   0.951   0.865
  752SOL    HW212296   9.076   0.934   0.880
  753SOL     OW12297   8.937   2.392   0.757
  753SOL    HW112298   8.889   2.316   0.714
  753SOL    HW212299   8.873   2.442   0.816
  754SOL     OW12300   2.398   4.460   0.794
  754SOL    HW112301   2.425   4.549   0.831
  754SOL    HW212302   2.480   4.404   0.781
  755SOL     OW12303   0.939   0.248   1.221
  755SOL    HW112304   1.015   0.309   1.197
  755SOL    HW212305   0.859   0.303   1.245
  756SOL     OW12306   2.288   0.298   1.063
  756SOL    HW112307   2.369   0.283   1.121
  756SOL    HW212308   2.236   0.377   1.098
  757SOL     OW12309   8.393   9.255   1.144
  757SOL    HW112310   8.456   9.184   1.177
  757SOL    HW212311   8.377   9.321   1.218
  758SOL     OW12312   0.634   3.851   1.165
  758SOL    HW112313   0.689   3.919   1.119
  758SOL    HW212314   0.573   3.807   1.099
  759SOL     OW12315   0.799   9.421   1.979
  759SOL    HW112316   0.814   9.332   2.023
  759SOL    HW212317   0.702   9.443   1.980
  760SOL     OW12318   2.745   3.530   0.862
  760SOL    HW112319   2.697   3.574   0.786
  760SOL    HW212320   2.788   3.446   0.830
  761SOL     OW12321   0.943   1.474   0.622
  761SOL    HW112322   1.000   1.555   0.611
  761SOL    HW212323   0.936   1.426   0.534
  762SOL     OW12324   2.103   0.952   2.014
  762SOL    HW112325   2.122   0.993   1.924
  762SOL    HW212326   2.005   0.955   2.032
  763SOL     OW12327   7.664   8.889   0.740
  763SOL    HW112328   7.585   8.853   0.790
  763SOL    HW212329   7.744   8.887   0.799
  764SOL     OW12330   8.539   0.057   1.685
  764SOL    HW112331   8.538   0.079   1.782
  764SOL    HW212332   8.633   0.037   1.656
  765SOL     OW12333   9.772   4.053   0.671
  765SOL    HW112334   9.707   3.980   0.692
  765SOL    HW212335   9.725   4.141   0.668
  766SOL     OW12336   0.626   3.335   1.938
  766SOL    HW112337   0.644   3.366   1.844
  766SOL    HW212338   0.694   3.374   1.999
  767SOL     OW12339   1.324   3.598   1.470
  767SOL    HW112340   1.421   3.594   1.449
  767SOL    HW212341   1.290   3.690   1.451
  768SOL     OW12342   0.966   6.497   1.290
  768SOL    HW112343   1.028   6.539   1.356
  768SOL    HW212344   0.981   6.537   1.200
  769SOL     OW12345   3.248   1.798   1.414
  769SOL    HW112346   3.172   1.745   1.378
  769SOL    HW212347   3.300   1.742   1.479
  770SOL     OW12348   1.232   0.254   2.173
  770SOL    HW112349   1.276   0.167   2.197
  770SOL    HW212350   1.137   0.253   2.203
  771SOL     OW12351   2.219   7.030   1.467
  771SOL    HW112352   2.121   7.042   1.484
  771SOL    HW212353   2.251   6.949   1.515
  772SOL     OW12354   0.978   4.138   0.837
  772SOL    HW112355   1.020   4.219   0.794
  772SOL    HW212356   1.040   4.102   0.906
  773SOL     OW12357   9.760   5.687   2.200
  773SOL    HW112358   9.787   5.782   2.209
  773SOL    HW212359   9.795   5.650   2.114
  774SOL     OW12360   0.742   4.139   0.378
  774SOL    HW112361   0.766   4.236   0.374
  774SOL    HW212362   0.803   4.092   0.442
  775SOL     OW12363   2.299   6.732   2.101
  775SOL    HW112364   2.367   6.786   2.150
  775SOL    HW212365   2.262   6.662   2.162
  776SOL     OW12366   3.271   1.518   1.201
  776SOL    HW112367   3.255   1.541   1.105
  776SOL    HW212368   3.197   1.557   1.257
  777SOL     OW12369   0.216   0.837   1.509
  777SOL    HW112370   0.204   0.866   1.604
  777SOL    HW212371   0.285   0.894   1.466
  778SOL     OW12372   3.678   1.267   1.909
  778SOL    HW112373   3.596   1.322   1.922
  778SOL    HW212374   3.659   1.173   1.936
  779SOL     OW12375   1.363   0.369   1.757
  779SOL    HW112376   1.357   0.413   1.668
  779SOL    HW212377   1.412   0.282   1.748
  780SOL     OW12378   3.484   1.818   0.614
  780SOL    HW112379   3.455   1.882   0.543
  780SOL    HW212380   3.533   1.866   0.686
  781SOL     OW12381   0.610   4.813   1.739
  781SOL    HW112382   0.555   4.893   1.761
  781SOL    HW212383   0.703   4.842   1.714
  782SOL     OW12384   0.259   5.669   0.569
  782SOL    HW112385   0.347   5.707   0.598
  782SOL    HW212386   0.269   5.571   0.551
  783SOL     OW12387   3.111   9.383   0.366
  783SOL    HW112388   3.143   9.362   0.273
  783SOL    HW212389   3.097   9.482   0.375
  784SOL     OW12390   3.027   5.050   1.678
  784SOL    HW112391   3.025   5.019   1.773
  784SOL    HW212392   3.100   5.002   1.629
  785SOL     OW12393   8.102   0.768   1.467
  785SOL    HW112394   8.196   0.757   1.500
  785SOL    HW212395   8.076   0.686   1.415
  786SOL     OW12396   2.006   2.499   1.007
  786SOL    HW112397   2.075   2.458   0.946
  786SOL    HW212398   1.968   2.581   0.964
  787SOL     OW12399   9.663   4.299   0.631
  787SOL    HW112400   9.575   4.330   0.667
  787SOL    HW212401   9.674   4.332   0.537
  788SOL     OW12402   8.917   6.548   0.968
  788SOL    HW112403   9.002   6.510   0.932
  788SOL    HW212404   8.904   6.641   0.935
  789SOL     OW12405   2.299   8.350   1.301
  789SOL    HW112406   2.360   8.287   1.252
  789SOL    HW212407   2.342   8.377   1.387
  790SOL     OW12408   0.772   0.435   0.421
  790SOL    HW112409   0.849   0.384   0.384
  790SOL    HW212410   0.687   0.398   0.384
  791SOL     OW12411   2.522   4.691   0.890
  791SOL    HW112412   2.521   4.772   0.950
  791SOL    HW212413   2.565   4.714   0.803
  792SOL     OW12414   2.671   2.140   0.770
  792SOL    HW112415   2.726   2.129   0.853
  792SOL    HW212416   2.574   2.131   0.793
  793SOL     OW12417   8.751   9.826   1.817
  793SOL    HW112418   8.779   9.880   1.737
  793SOL    HW212419   8.666   9.777   1.796
  794SOL     OW12420   8.319   0.553   1.108
  794SOL    HW112421   8.375   0.602   1.041
  794SOL    HW212422   8.225   0.587   1.104
  795SOL     OW12423   0.059   9.070   1.947
  795SOL    HW112424   0.031   9.088   2.041
  795SOL    HW212425   0.023   9.142   1.887
  796SOL     OW12426   2.820   6.217   1.934
  796SOL    HW112427   2.784   6.310   1.919
  796SOL    HW212428   2.819   6.167   1.848
  797SOL     OW12429   1.597   9.243   1.536
  797SOL    HW112430   1.682   9.265   1.585
  797SOL    HW212431   1.574   9.147   1.552
  798SOL     OW12432   8.050   1.341   0.612
  798SOL    HW112433   8.126   1.383   0.562
  798SOL    HW212434   8.064   1.243   0.617
  799SOL     OW12435   1.504   2.300   1.193
  799SOL    HW112436   1.490   2.215   1.142
  799SOL    HW212437   1.590   2.295   1.244
  800SOL     OW12438   1.110   0.023   1.012
  800SOL    HW112439   1.185   0.069   1.061
  800SOL    HW212440   1.068   0.087   0.947
  801SOL     OW12441   8.672   1.498   1.461
  801SOL    HW112442   8.575   1.488   1.483
  801SOL    HW212443   8.723   1.516   1.546
  802SOL     OW12444   9.402   6.335   1.454
  802SOL    HW112445   9.342   6.305   1.529
  802SOL    HW212446   9.495   6.349   1.489
  803SOL     OW12447   0.722   7.081   1.441
  803SOL    HW112448   0.680   7.024   1.371
  803SOL    HW212449   0.795   7.136   1.399
  804SOL     OW12450   2.204   3.994   1.545
  804SOL    HW112451   2.198   3.954   1.454
  804SOL    HW212452   2.112   4.012   1.580
  805SOL     OW12453   1.051   5.018   1.276
  805SOL    HW112454   1.013   5.001   1.184
  805SOL    HW212455   1.084   4.932   1.314
  806SOL     OW12456   2.524   3.886   1.246
  806SOL    HW112457   2.561   3.978   1.232
  806SOL    HW212458   2.467   3.861   1.169
  807SOL     OW12459   3.773   0.720   2.034
  807SOL    HW112460   3.701   0.667   2.079
  807SOL    HW212461   3.732   0.795   1.982
  808SOL     OW12462   9.035   0.146   2.197
  808SOL    HW112463   9.029   0.144   2.098
  808SOL    HW212464   9.131   0.147   2.225
  809SOL     OW12465   8.480   7.963   0.468
  809SOL    HW112466   8.534   8.046   0.479
  809SOL    HW212467   8.527   7.900   0.406
  810SOL     OW12468   1.116   3.462   0.743
  810SOL    HW112469   1.163   3.490   0.660
  810SOL    HW212470   1.183   3.429   0.809
  811SOL     OW12471   8.624   7.965   1.406
  811SOL    HW112472   8.548   8.029   1.412
  811SOL    HW212473   8.696   8.004   1.348
  812SOL     OW12474   9.898   1.897   0.498
  812SOL    HW112475   9.981   1.947   0.521
  812SOL    HW212476   9.820   1.959   0.497
  813SOL     OW12477   2.707   6.182   0.793
  813SOL    HW112478   2.743   6.094   0.762
  813SOL    HW212479   2.746   6.255   0.737
  814SOL     OW12480   0.598   2.885   2.280
  814SOL    HW112481   0.528   2.923   2.339
  814SOL    HW212482   0.578   2.908   2.185
  815SOL     OW12483   3.443   8.629   0.479
  815SOL    HW112484   3.493   8.692   0.420
  815SOL    HW212485   3.500   8.605   0.558
  816SOL     OW12486   1.209   5.707   2.128
  816SOL    HW112487   1.219   5.631   2.064
  816SOL    HW212488   1.112   5.723   2.145
  817SOL     OW12489   9.013   2.675   1.000
  817SOL    HW112490   9.021   2.725   0.914
  817SOL    HW212491   9.105   2.660   1.038
  818SOL     OW12492   1.903   3.783   1.258
  818SOL    HW112493   1.834   3.852   1.278
  818SOL    HW212494   1.891   3.751   1.164
  819SOL     OW12495   3.608   2.514   0.969
  819SOL    HW112496   3.636   2.572   1.046
  819SOL    HW212497   3.690   2.479   0.923
  820SOL     OW12498   1.323   3.385   0.905
  820SOL    HW112499   1.322   3.289   0.880
  820SOL    HW212500   1.406   3.428   0.869
  821SOL     OW12501   2.473   9.282   0.642
  821SOL    HW112502   2.419   9.230   0.575
  821SOL    HW212503   2.425   9.285   0.729
  822SOL     OW12504   1.711   0.862   1.004
  822SOL    HW112505   1.687   0.870   1.101
  822SOL    HW212506   1.784   0.927   0.983
  823SOL     OW12507   9.118   8.462   1.687
  823SOL    HW112508   9.018   8.468   1.696
  823SOL    HW212509   9.155   8.553   1.669
  824SOL     OW12510   0.811   7.250   2.298
  824SOL    HW112511   0.844   7.325   2.354
  824SOL    HW212512   0.886   7.212   2.245
  825SOL     OW12513   2.922   1.538   1.092
  825SOL    HW112514   2.939   1.447   1.056
  825SOL    HW212515   2.829   1.567   1.067
  826SOL     OW12516   0.900   8.247   1.010
  826SOL    HW112517   0.951   8.233   0.925
  826SOL    HW212518   0.861   8.339   1.010
  827SOL     OW12519   0.727   7.516   1.585
  827SOL    HW112520   0.774   7.553   1.666
  827SOL    HW212521   0.713   7.418   1.597
  828SOL     OW12522   2.912   1.422   0.542
  828SOL    HW112523   2.943   1.415   0.447
  828SOL    HW212524   2.979   1.378   0.602
  829SOL     OW12525   9.092   3.009   1.307
  829SOL    HW112526   9.135   2.977   1.223
  829SOL    HW212527   9.161   3.049   1.367
  830SOL     OW12528   2.298   2.992   0.844
  830SOL    HW112529   2.297   3.049   0.925
  830SOL    HW212530   2.326   2.899   0.869
  831SOL     OW12531   8.069   8.292   2.197
  831SOL    HW112532   8.022   8.205   2.180
  831SOL    HW212533   8.136   8.307   2.124
  832SOL     OW12534   7.330   0.261   1.220
  832SOL    HW112535   7.376   0.216   1.297
  832SOL    HW212536   7.246   0.211   1.198
  833SOL     OW12537   0.409   5.610   0.848
  833SOL    HW112538   0.429   5.694   0.796
  833SOL    HW212539   0.454   5.532   0.804
  834SOL     OW12540   7.744   0.837   1.057
  834SOL    HW112541   7.686   0.836   1.138
  834SOL    HW212542   7.837   0.862   1.084
  835SOL     OW12543   2.723   3.253   0.529
  835SOL    HW112544   2.818   3.275   0.550
  835SOL    HW212545   2.711   3.154   0.533
  836SOL     OW12546   2.921   9.675   1.458
  836SOL    HW112547   2.928   9.581   1.423
  836SOL    HW212548   2.903   9.737   1.382
  837SOL     OW12549   0.119   2.425   1.942
  837SOL    HW112550   0.102   2.370   1.860
  837SOL    HW212551   0.149   2.365   2.016
  838SOL     OW12552   2.143   0.345   1.683
  838SOL    HW112553   2.224   0.301   1.644
  838SOL    HW212554   2.084   0.276   1.725
  839SOL     OW12555   8.670   9.255   1.614
  839SOL    HW112556   8.651   9.353   1.613
  839SOL    HW212557   8.590   9.205   1.582
  840SOL     OW12558   1.343   3.212   1.692
  840SOL    HW112559   1.441   3.219   1.708
  840SOL    HW212560   1.303   3.144   1.754
  841SOL     OW12561   0.844   1.121   2.076
  841SOL    HW112562   0.778   1.119   2.001
  841SOL    HW212563   0.931   1.084   2.046
  842SOL     OW12564   8.527   8.879   1.633
  842SOL    HW112565   8.493   8.962   1.588
  842SOL    HW212566   8.609   8.901   1.686
  843SOL     OW12567   1.010   5.767   1.076
  843SOL    HW112568   1.047   5.744   1.166
  843SOL    HW212569   1.049   5.706   1.007
  844SOL     OW12570   1.645   5.316   1.598
  844SOL    HW112571   1.678   5.243   1.658
  844SOL    HW212572   1.717   5.386   1.590
  845SOL     OW12573   8.679   7.704   1.204
  845SOL    HW112574   8.765   7.728   1.249
  845SOL    HW212575   8.632   7.788   1.177
  846SOL     OW12576   7.783   1.283   0.665
  846SOL    HW112577   7.869   1.320   0.630
  846SOL    HW212578   7.794   1.257   0.761
  847SOL     OW12579   3.842   8.163   1.217
  847SOL    HW112580   3.824   8.176   1.314
  847SOL    HW212581   3.756   8.165   1.166
  848SOL     OW12582   1.430   0.540   1.963
  848SOL    HW112583   1.457   0.484   2.042
  848SOL    HW212584   1.412   0.480   1.885
  849SOL     OW12585   2.663   5.629   0.844
  849SOL    HW112586   2.620   5.669   0.763
  849SOL    HW212587   2.685   5.702   0.909
  850SOL     OW12588   0.790   2.322   0.435
  850SOL    HW112589   0.774   2.226   0.414
  850SOL    HW212590   0.740   2.379   0.369
  851SOL     OW12591   1.211   3.860   1.450
  851SOL    HW112592   1.228   3.958   1.438
  851SOL    HW212593   1.195   3.841   1.547
  852SOL     OW12594   1.779   3.841   0.577
  852SOL    HW112595   1.878   3.846   0.567
  852SOL    HW212596   1.756   3.836   0.674
  853SOL     OW12597   3.022   3.564   0.701
  853SOL    HW112598   3.000   3.476   0.659
  853SOL    HW212599   3.115   3.562   0.736
  854SOL     OW12600   9.457   2.911   0.748
  854SOL    HW112601   9.548   2.934   0.784
  854SOL    HW212602   9.467   2.846   0.673
  855SOL     OW12603   0.002   1.686   1.265
  855SOL    HW112604   0.074   1.752   1.243
  855SOL    HW212605   9.970   1.642   1.181
  856SOL     OW12606   9.289   2.565   1.447
  856SOL    HW112607   9.320   2.472   1.466
  856SOL    HW212608   9.190   2.565   1.434
  857SOL     OW12609   9.431   7.231   1.934
  857SOL    HW112610   9.377   7.314   1.946
  857SOL    HW212611   9.446   7.189   2.024
  858SOL     OW12612   1.327   4.635   1.815
  858SOL    HW112613   1.425   4.636   1.792
  858SOL    HW212614   1.313   4.686   1.900
  859SOL     OW12615   8.790   0.965   0.743
  859SOL    HW112616   8.824   1.017   0.664
  859SOL    HW212617   8.706   1.008   0.776
  860SOL     OW12618   1.384   6.529   2.133
  860SOL    HW112619   1.347   6.598   2.196
  860SOL    HW212620   1.425   6.575   2.054
  861SOL     OW12621   9.488   5.619   2.198
  861SOL    HW112622   9.582   5.652   2.207
  861SOL    HW212623   9.489   5.528   2.157
  862SOL     OW12624   4.088   1.261   1.389
  862SOL    HW112625   4.179   1.301   1.376
  862SOL    HW212626   4.019   1.333   1.389
  863SOL     OW12627   0.276   5.019   0.905
  863SOL    HW112628   0.363   4.985   0.869
  863SOL    HW212629   0.235   5.083   0.840
  864SOL     OW12630   1.769   1.525   0.452
  864SOL    HW112631   1.785   1.623   0.459
  864SOL    HW212632   1.845   1.476   0.496
  865SOL     OW12633   1.439   4.322   0.775
  865SOL    HW112634   1.454   4.314   0.677
  865SOL    HW212635   1.517   4.368   0.817
  866SOL     OW12636   1.305   7.362   1.489
  866SOL    HW112637   1.392   7.347   1.442
  866SOL    HW212638   1.242   7.288   1.467
  867SOL     OW12639   3.506   3.347   2.306
  867SOL    HW112640   3.603   3.356   2.325
  867SOL    HW212641   3.468   3.436   2.281
  868SOL     OW12642   8.522   2.152   0.669
  868SOL    HW112643   8.508   2.141   0.767
  868SOL    HW212644   8.455   2.097   0.619
  869SOL     OW12645   4.162   8.755   0.948
  869SOL    HW112646   4.168   8.672   1.004
  869SOL    HW212647   4.245   8.764   0.893
  870SOL     OW12648   1.202   8.748   0.527
  870SOL    HW112649   1.249   8.836   0.523
  870SOL    HW212650   1.109   8.758   0.491
  871SOL     OW12651   3.044   4.962   1.311
  871SOL    HW112652   2.974   4.911   1.361
  871SOL    HW212653   3.069   4.911   1.229
  872SOL     OW12654   0.105   6.427   0.951
  872SOL    HW112655   0.069   6.339   0.921
  872SOL    HW212656   0.039   6.471   1.012
  873SOL     OW12657   8.922   9.486   1.671
  873SOL    HW112658   8.965   9.477   1.761
  873SOL    HW212659   8.979   9.442   1.602
  874SOL     OW12660   1.354   2.706   1.501
  874SOL    HW112661   1.388   2.684   1.410
  874SOL    HW212662   1.427   2.749   1.554
  875SOL     OW12663   3.380   2.932   0.855
  875SOL    HW112664   3.308   2.948   0.787
  875SOL    HW212665   3.387   2.833   0.872
  876SOL     OW12666   9.986   8.362   0.965
  876SOL    HW112667   0.073   8.403   0.937
  876SOL    HW212668   0.004   8.286   1.026
  877SOL     OW12669   9.951   3.800   0.424
  877SOL    HW112670   0.031   3.803   0.484
  877SOL    HW212671   9.920   3.894   0.406
  878SOL     OW12672   2.525   1.083   1.058
  878SOL    HW112673   2.452   1.025   1.092
  878SOL    HW212674   2.569   1.131   1.135
  879SOL     OW12675   2.425   3.678   1.670
  879SOL    HW112676   2.496   3.610   1.691
  879SOL    HW212677   2.387   3.660   1.580
  880SOL     OW12678   4.124   2.344   1.389
  880SOL    HW112679   4.095   2.436   1.415
  880SOL    HW212680   4.224   2.342   1.381
  881SOL     OW12681   7.866   0.898   1.472
  881SOL    HW112682   7.871   0.981   1.416
  881SOL    HW212683   7.955   0.854   1.475
  882SOL     OW12684   4.285   8.569   0.643
  882SOL    HW112685   4.186   8.577   0.650
  882SOL    HW212686   4.313   8.479   0.676
  883SOL     OW12687   8.204   1.005   0.965
  883SOL    HW112688   8.278   1.040   1.022
  883SOL    HW212689   8.240   0.981   0.874
  884SOL     OW12690   3.646   9.526   0.811
  884SOL    HW112691   3.672   9.611   0.764
  884SOL    HW212692   3.724   9.465   0.815
  885SOL     OW12693   7.826   0.773   2.011
  885SOL    HW112694   7.790   0.683   2.033
  885SOL    HW212695   7.822   0.788   1.912
  886SOL     OW12696   2.071   1.553   1.448
  886SOL    HW112697   2.070   1.481   1.517
  886SOL    HW212698   2.088   1.513   1.358
  887SOL     OW12699   2.293   8.616   1.235
  887SOL    HW112700   2.292   8.517   1.250
  887SOL    HW212701   2.385   8.644   1.207
  888SOL     OW12702   1.985   5.542   0.900
  888SOL    HW112703   1.891   5.527   0.931
  888SOL    HW212704   2.041   5.575   0.976
  889SOL     OW12705   8.538   0.725   1.411
  889SOL    HW112706   8.471   0.793   1.442
  889SOL    HW212707   8.621   0.733   1.467
  890SOL     OW12708   1.249   1.043   1.096
  890SOL    HW112709   1.333   1.019   1.047
  890SOL    HW212710   1.253   1.139   1.125
  891SOL     OW12711   8.457   8.593   1.311
  891SOL    HW112712   8.496   8.622   1.223
  891SOL    HW212713   8.521   8.616   1.384
  892SOL     OW12714   2.196   1.343   0.484
  892SOL    HW112715   2.116   1.383   0.530
  892SOL    HW212716   2.190   1.244   0.488
  893SOL     OW12717   3.916   3.408   1.609
  893SOL    HW112718   3.984   3.355   1.660
  893SOL    HW212719   3.922   3.385   1.512
  894SOL     OW12720   1.250   7.529   0.538
  894SOL    HW112721   1.230   7.620   0.574
  894SOL    HW212722   1.237   7.529   0.439
  895SOL     OW12723   9.071   1.797   1.560
  895SOL    HW112724   9.064   1.698   1.570
  895SOL    HW212725   9.105   1.837   1.645
  896SOL     OW12726   0.688   1.509   0.715
  896SOL    HW112727   0.784   1.496   0.688
  896SOL    HW212728   0.628   1.483   0.639
  897SOL     OW12729   4.688   2.488   2.139
  897SOL    HW112730   4.733   2.522   2.057
  897SOL    HW212731   4.704   2.552   2.215
  898SOL     OW12732   0.294   0.079   0.737
  898SOL    HW112733   0.307   0.170   0.697
  898SOL    HW212734   0.237   0.025   0.676
  899SOL     OW12735   3.520   4.679   1.154
  899SOL    HW112736   3.499   4.581   1.158
  899SOL    HW212737   3.582   4.703   1.229
  900SOL     OW12738   0.041   4.266   0.399
  900SOL    HW112739   9.979   4.188   0.400
  900SOL    HW212740   0.135   4.233   0.408
  901SOL     OW12741   1.596   0.161   2.259
  901SOL    HW112742   1.641   0.128   2.342
  901SOL    HW212743   1.516   0.104   2.240
  902SOL     OW12744   8.796   9.995   1.605
  902SOL    HW112745   8.801   9.957   1.512
  902SOL    HW212746   8.856   0.074   1.612
  903SOL     OW12747   9.611   8.231   0.637
  903SOL    HW112748   9.701   8.220   0.679
  903SOL    HW212749   9.591   8.152   0.579
  904SOL     OW12750   0.085   4.872   1.928
  904SOL    HW112751   0.166   4.928   1.947
  904SOL    HW212752   0.075   4.803   2.000
  905SOL     OW12753   2.363   7.651   0.466
  905SOL    HW112754   2.301   7.585   0.508
  905SOL    HW212755   2.455   7.638   0.503
  906SOL     OW12756   7.893   9.376   0.924
  906SOL    HW112757   7.980   9.400   0.968
  906SOL    HW212758   7.911   9.335   0.835
  907SOL     OW12759   0.573   0.237   1.494
  907SOL    HW112760   0.658   0.235   1.545
  907SOL    HW212761   0.496   0.240   1.558
  908SOL     OW12762   9.038   7.977   1.239
  908SOL    HW112763   9.122   8.021   1.269
  908SOL    HW212764   9.018   7.899   1.298
  909SOL     OW12765   2.782   9.410   1.108
  909SOL    HW112766   2.792   9.313   1.086
  909SOL    HW212767   2.831   9.465   1.040
  910SOL     OW12768   9.305   3.155   0.474
  910SOL    HW112769   9.212   3.120   0.467
  910SOL    HW212770   9.302   3.248   0.511
  911SOL     OW12771   9.543   9.386   2.014
  911SOL    HW112772   9.449   9.402   2.044
  911SOL    HW212773   9.561   9.288   2.010
  912SOL     OW12774   4.180   3.077   0.842
  912SOL    HW112775   4.228   3.020   0.775
  912SOL    HW212776   4.156   3.164   0.800
  913SOL     OW12777   2.801   5.934   0.722
  913SOL    HW112778   2.898   5.939   0.701
  913SOL    HW212779   2.753   5.887   0.647
  914SOL     OW12780   3.815   8.551   1.880
  914SOL    HW112781   3.767   8.623   1.931
  914SOL    HW212782   3.844   8.480   1.943
  915SOL     OW12783   0.320   5.404   0.488
  915SOL    HW112784   0.255   5.329   0.479
  915SOL    HW212785   0.359   5.426   0.399
  916SOL     OW12786   3.802   2.687   1.815
  916SOL    HW112787   3.845   2.659   1.901
  916SOL    HW212788   3.703   2.693   1.826
  917SOL     OW12789   1.730   6.365   1.341
  917SOL    HW112790   1.730   6.332   1.247
  917SOL    HW212791   1.661   6.316   1.394
  918SOL     OW12792   3.629   2.996   0.438
  918SOL    HW112793   3.702   2.978   0.505
  918SOL    HW212794   3.550   2.939   0.460
  919SOL     OW12795   1.703   0.322   1.460
  919SOL    HW112796   1.681   0.238   1.411
  919SOL    HW212797   1.718   0.301   1.557
  920SOL     OW12798   2.592   1.274   2.044
  920SOL    HW112799   2.680   1.269   2.091
  920SOL    HW212800   2.589   1.205   1.972
  921SOL     OW12801   9.248   1.662   0.760
  921SOL    HW112802   9.245   1.737   0.695
  921SOL    HW212803   9.337   1.660   0.806
  922SOL     OW12804   9.508   1.839   1.340
  922SOL    HW112805   9.455   1.796   1.268
  922SOL    HW212806   9.604   1.810   1.333
  923SOL     OW12807   3.148   1.495   1.792
  923SOL    HW112808   3.194   1.411   1.763
  923SOL    HW212809   3.216   1.564   1.815
  924SOL     OW12810   9.961   3.770   1.819
  924SOL    HW112811   0.015   3.712   1.759
  924SOL    HW212812   9.907   3.713   1.881
  925SOL     OW12813   0.145   5.869   0.418
  925SOL    HW112814   0.220   5.926   0.382
  925SOL    HW212815   0.184   5.789   0.464
  926SOL     OW12816   9.448   4.412   1.099
  926SOL    HW112817   9.529   4.360   1.126
  926SOL    HW212818   9.386   4.352   1.047
  927SOL     OW12819   8.838   4.996   0.687
  927SOL    HW112820   8.783   4.945   0.753
  927SOL    HW212821   8.834   5.093   0.708
  928SOL     OW12822   9.237   8.722   0.386
  928SOL    HW112823   9.181   8.670   0.450
  928SOL    HW212824   9.262   8.664   0.308
  929SOL     OW12825   9.428   6.766   1.383
  929SOL    HW112826   9.334   6.798   1.393
  929SOL    HW212827   9.461   6.728   1.469
  930SOL     OW12828   1.329   0.958   1.548
  930SOL    HW112829   1.374   0.870   1.568
  930SOL    HW212830   1.382   1.007   1.479
  931SOL     OW12831   0.354   3.095   0.408
  931SOL    HW112832   0.447   3.059   0.407
  931SOL    HW212833   0.346   3.167   0.339
  932SOL     OW12834   0.414   2.939   1.356
  932SOL    HW112835   0.347   2.986   1.413
  932SOL    HW212836   0.446   3.001   1.284
  933SOL     OW12837   8.534   3.189   1.486
  933SOL    HW112838   8.559   3.108   1.539
  933SOL    HW212839   8.498   3.161   1.397
  934SOL     OW12840   9.651   1.138   0.914
  934SOL    HW112841   9.750   1.155   0.911
  934SOL    HW212842   9.606   1.186   0.839
  935SOL     OW12843   9.810   6.828   0.424
  935SOL    HW112844   9.776   6.736   0.445
  935SOL    HW212845   9.813   6.840   0.325
  936SOL     OW12846   1.591   6.412   0.551
  936SOL    HW112847   1.554   6.425   0.643
  936SOL    HW212848   1.678   6.460   0.543
  937SOL     OW12849   1.345   9.252   0.462
  937SOL    HW112850   1.305   9.263   0.371
  937SOL    HW212851   1.289   9.301   0.529
  938SOL     OW12852   9.663   2.514   1.570
  938SOL    HW112853   9.672   2.489   1.473
  938SOL    HW212854   9.675   2.612   1.580
  939SOL     OW12855   8.938   9.450   0.441
  939SOL    HW112856   8.889   9.385   0.500
  939SOL    HW212857   8.908   9.439   0.346
  940SOL     OW12858   1.131   4.512   0.514
  940SOL    HW112859   1.050   4.541   0.464
  940SOL    HW212860   1.185   4.592   0.540
  941SOL     OW12861   8.630   7.515   2.018
  941SOL    HW112862   8.633   7.486   2.113
  941SOL    HW212863   8.624   7.615   2.013
  942SOL     OW12864   9.894   5.127   0.748
  942SOL    HW112865   9.870   5.044   0.798
  942SOL    HW212866   9.992   5.146   0.759
  943SOL     OW12867   3.043   9.188   0.903
  943SOL    HW112868   3.064   9.120   0.833
  943SOL    HW212869   3.008   9.271   0.860
  944SOL     OW12870   9.949   3.872   0.781
  944SOL    HW112871   9.901   3.954   0.751
  944SOL    HW212872   0.016   3.846   0.712
  945SOL     OW12873   2.493   3.564   2.000
  945SOL    HW112874   2.470   3.660   2.016
  945SOL    HW212875   2.408   3.512   1.986
  946SOL     OW12876   3.686   9.418   1.276
  946SOL    HW112877   3.617   9.400   1.346
  946SOL    HW212878   3.642   9.439   1.189
  947SOL     OW12879   9.700   6.117   2.106
  947SOL    HW112880   9.760   6.169   2.045
  947SOL    HW212881   9.755   6.061   2.168
  948SOL     OW12882   1.807   0.026   0.482
  948SOL    HW112883   1.712   0.001   0.503
  948SOL    HW212884   1.823   0.019   0.383
  949SOL     OW12885   0.137   9.940   0.550
  949SOL    HW112886   0.095   0.011   0.495
  949SOL    HW212887   0.218   9.904   0.504
  950SOL     OW12888   2.987   8.242   0.791
  950SOL    HW112889   2.913   8.261   0.855
  950SOL    HW212890   3.043   8.167   0.826
  951SOL     OW12891   0.965   2.124   1.276
  951SOL    HW112892   1.036   2.148   1.342
  951SOL    HW212893   0.906   2.203   1.260
  952SOL     OW12894   4.120   1.774   2.063
  952SOL    HW112895   4.152   1.686   2.099
  952SOL    HW212896   4.161   1.848   2.116
  953SOL     OW12897   1.920   1.802   0.547
  953SOL    HW112898   1.996   1.775   0.487
  953SOL    HW212899   1.943   1.888   0.592
  954SOL     OW12900   1.115   8.493   2.167
  954SOL    HW112901   1.180   8.545   2.112
  954SOL    HW212902   1.032   8.478   2.115
  955SOL     OW12903   8.599   0.517   0.643
  955SOL    HW112904   8.590   0.418   0.635
  955SOL    HW212905   8.682   0.547   0.597
  956SOL     OW12906   0.641   9.740   0.905
  956SOL    HW112907   0.605   9.831   0.884
  956SOL    HW212908   0.589   9.671   0.854
  957SOL     OW12909   4.226   4.060   1.518
  957SOL    HW112910   4.162   4.054   1.595
  957SOL    HW212911   4.194   4.129   1.454
  958SOL     OW12912   9.204   2.934   1.077
  958SOL    HW112913   9.202   2.962   0.981
  958SOL    HW212914   9.235   2.839   1.083
  959SOL     OW12915   2.320   9.261   0.868
  959SOL    HW112916   2.317   9.162   0.857
  959SOL    HW212917   2.322   9.284   0.966
  960SOL     OW12918   4.351   0.126   1.181
  960SOL    HW112919   4.317   0.192   1.114
  960SOL    HW212920   4.307   0.037   1.166
  961SOL     OW12921   0.388   3.902   1.590
  961SOL    HW112922   0.406   3.857   1.503
  961SOL    HW212923   0.306   3.958   1.582
  962SOL     OW12924   3.948   1.056   1.884
  962SOL    HW112925   3.983   1.000   1.809
  962SOL    HW212926   3.951   1.153   1.858
  963SOL     OW12927   8.779   0.245   1.899
  963SOL    HW112928   8.856   0.184   1.917
  963SOL    HW212929   8.693   0.199   1.922
  964SOL     OW12930   9.742   9.090   0.894
  964SOL    HW112931   9.687   9.044   0.824
  964SOL    HW212932   9.746   9.188   0.874
  965SOL     OW12933   3.126   9.007   2.265
  965SOL    HW112934   3.134   8.915   2.224
  965SOL    HW212935   3.040   9.049   2.235
  966SOL     OW12936   1.653   6.512   2.222
  966SOL    HW112937   1.555   6.504   2.203
  966SOL    HW212938   1.704   6.447   2.165
  967SOL     OW12939   9.433   1.920   2.298
  967SOL    HW112940   9.438   2.014   2.265
  967SOL    HW212941   9.441   1.919   2.398
  968SOL     OW12942   9.905   2.145   1.097
  968SOL    HW112943   9.921   2.240   1.122
  968SOL    HW212944   9.985   2.090   1.121
  969SOL     OW12945   9.576   9.113   2.003
  969SOL    HW112946   9.642   9.087   1.932
  969SOL    HW212947   9.607   9.079   2.091
  970SOL     OW12948   3.527   9.449   1.045
  970SOL    HW112949   3.577   9.482   0.965
  970SOL    HW212950   3.455   9.515   1.068
  971SOL     OW12951   9.853   3.515   0.974
  971SOL    HW112952   9.844   3.416   0.987
  971SOL    HW212953   9.903   3.533   0.889
  972SOL     OW12954   4.852   2.806   1.206
  972SOL    HW112955   4.878   2.882   1.265
  972SOL    HW212956   4.827   2.840   1.116
  973SOL     OW12957   3.384   0.815   0.373
  973SOL    HW112958   3.316   0.876   0.415
  973SOL    HW212959   3.476   0.850   0.392
  974SOL     OW12960   1.984   2.770   2.260
  974SOL    HW112961   1.988   2.740   2.355
  974SOL    HW212962   1.905   2.831   2.247
  975SOL     OW12963   0.680   1.066   1.853
  975SOL    HW112964   0.581   1.072   1.854
  975SOL    HW212965   0.708   0.972   1.875
  976SOL     OW12966   1.142   6.368   1.604
  976SOL    HW112967   1.154   6.455   1.557
  976SOL    HW212968   1.081   6.309   1.551
  977SOL     OW12969   0.921   3.319   1.615
  977SOL    HW112970   1.016   3.346   1.599
  977SOL    HW212971   0.918   3.241   1.678
  978SOL     OW12972   1.097   8.522   0.659
  978SOL    HW112973   1.149   8.596   0.617
  978SOL    HW212974   1.130   8.434   0.625
  979SOL     OW12975   9.290   8.981   1.640
  979SOL    HW112976   9.209   9.014   1.689
  979SOL    HW212977   9.369   9.038   1.664
  980SOL     OW12978   2.990   0.450   0.439
  980SOL    HW112979   2.892   0.444   0.458
  980SOL    HW212980   3.018   0.546   0.437
  981SOL     OW12981   9.709   4.043   1.126
  981SOL    HW112982   9.694   3.997   1.213
  981SOL    HW212983   9.697   4.142   1.138
  982SOL     OW12984   0.750   5.789   0.768
  982SOL    HW112985   0.759   5.889   0.770
  982SOL    HW212986   0.744   5.755   0.862
  983SOL     OW12987   4.011   0.493   0.767
  983SOL    HW112988   3.922   0.539   0.765
  983SOL    HW212989   4.004   0.408   0.819
  984SOL     OW12990   1.291   2.665   0.468
  984SOL    HW112991   1.338   2.751   0.449
  984SOL    HW212992   1.326   2.593   0.408
  985SOL     OW12993   1.857   9.723   1.629
  985SOL    HW112994   1.790   9.756   1.563
  985SOL    HW212995   1.810   9.670   1.701
  986SOL     OW12996   9.845   3.600   2.103
  986SOL    HW112997   9.752   3.564   2.105
  986SOL    HW212998   9.909   3.531   2.139
  987SOL     OW12999   2.425   4.724   1.193
  987SOL    HW113000   2.345   4.668   1.169
  987SOL    HW213001   2.433   4.728   1.293
  988SOL     OW13002   9.823   1.299   1.761
  988SOL    HW113003   9.773   1.264   1.839
  988SOL    HW213004   9.878   1.378   1.789
  989SOL     OW13005   3.491   4.000   2.315
  989SOL    HW113006   3.540   3.916   2.295
  989SOL    HW213007   3.506   4.026   2.411
  990SOL     OW13008   9.764   2.409   2.267
  990SOL    HW113009   9.721   2.498   2.280
  990SOL    HW213010   9.737   2.372   2.178
  991SOL     OW13011   1.778   9.592   2.237
  991SOL    HW113012   1.704   9.595   2.170
  991SOL    HW213013   1.841   9.517   2.214
  992SOL     OW13014   3.716   1.882   2.155
  992SOL    HW113015   3.801   1.904   2.106
  992SOL    HW213016   3.739   1.840   2.243
  993SOL     OW13017   0.493   5.787   0.656
  993SOL    HW113018   0.478   5.875   0.611
  993SOL    HW213019   0.588   5.780   0.684
  994SOL     OW13020   4.230   3.110   0.473
  994SOL    HW113021   4.148   3.109   0.416
  994SOL    HW213022   4.277   3.197   0.463
  995SOL     OW13023   9.525   0.692   2.225
  995SOL    HW113024   9.598   0.641   2.270
  995SOL    HW213025   9.445   0.695   2.285
  996SOL     OW13026   0.234   1.509   1.127
  996SOL    HW113027   0.202   1.598   1.094
  996SOL    HW213028   0.304   1.523   1.196
  997SOL     OW13029   3.579   2.634   0.578
  997SOL    HW113030   3.525   2.712   0.550
  997SOL    HW213031   3.673   2.663   0.595
  998SOL     OW13032   0.662   6.902   1.232
  998SOL    HW113033   0.572   6.886   1.274
  998SOL    HW213034   0.652   6.905   1.132
  999SOL     OW13035   2.977   8.502   0.474
  999SOL    HW113036   2.968   8.402   0.478
  999SOL    HW213037   2.921   8.543   0.546
 1000SOL     OW13038   0.234   8.862   0.963
 1000SOL    HW113039   0.299   8.901   0.897
 1000SOL    HW213040   0.142   8.897   0.943
 1001SOL     OW13041   4.534   3.568   0.418
 1001SOL    HW113042   4.510   3.613   0.504
 1001SOL    HW213043   4.478   3.606   0.344
 1002SOL     OW13044   9.479   7.872   1.186
 1002SOL    HW113045   9.564   7.906   1.146
 1002SOL    HW213046   9.486   7.872   1.286
 1003SOL     OW13047   8.345   6.840   0.347
 1003SOL    HW113048   8.381   6.767   0.405
 1003SOL    HW213049   8.409   6.916   0.345
 1004SOL     OW13050   2.837   8.738   0.981
 1004SOL    HW113051   2.909   8.768   0.918
 1004SOL    HW213052   2.749   8.735   0.932
 1005SOL     OW13053   1.902   1.677   1.634
 1005SOL    HW113054   1.865   1.609   1.697
 1005SOL    HW213055   1.956   1.630   1.564
 1006SOL     OW13056   8.001   9.041   2.081
 1006SOL    HW113057   7.986   8.974   2.008
 1006SOL    HW213058   7.929   9.032   2.150
 1007SOL     OW13059   0.761   2.927   0.620
 1007SOL    HW113060   0.849   2.885   0.643
 1007SOL    HW213061   0.691   2.893   0.682
 1008SOL     OW13062   9.274   6.041   0.623
 1008SOL    HW113063   9.223   6.030   0.708
 1008SOL    HW213064   9.337   5.964   0.612
 1009SOL     OW13065   8.814   1.890   1.570
 1009SOL    HW113066   8.806   1.969   1.510
 1009SOL    HW213067   8.906   1.852   1.563
 1010SOL     OW13068   4.071   4.490   1.238
 1010SOL    HW113069   3.982   4.513   1.201
 1010SOL    HW213070   4.142   4.507   1.169
 1011SOL     OW13071   1.895   9.839   2.185
 1011SOL    HW113072   1.953   9.803   2.112
 1011SOL    HW213073   1.846   9.764   2.229
 1012SOL     OW13074   1.597   5.290   0.915
 1012SOL    HW113075   1.672   5.239   0.872
 1012SOL    HW213076   1.517   5.289   0.854
 1013SOL     OW13077   1.918   3.214   1.177
 1013SOL    HW113078   1.934   3.261   1.264
 1013SOL    HW213079   1.974   3.132   1.172
 1014SOL     OW13080   8.861   7.170   2.048
 1014SOL    HW113081   8.910   7.173   1.961
 1014SOL    HW213082   8.766   7.140   2.032
 1015SOL     OW13083   3.539   0.282   0.471
 1015SOL    HW113084   3.473   0.308   0.542
 1015SOL    HW213085   3.528   0.185   0.449
 1016SOL     OW13086   0.117   6.881   0.801
 1016SOL    HW113087   0.085   6.916   0.713
 1016SOL    HW213088   0.141   6.784   0.791
 1017SOL     OW13089   1.262   8.674   2.012
 1017SOL    HW113090   1.308   8.716   2.090
 1017SOL    HW213091   1.184   8.731   1.984
 1018SOL     OW13092   0.773   8.161   0.716
 1018SOL    HW113093   0.743   8.255   0.727
 1018SOL    HW213094   0.868   8.152   0.747
 1019SOL     OW13095   1.425   7.199   1.687
 1019SOL    HW113096   1.379   7.267   1.630
 1019SOL    HW213097   1.511   7.172   1.646
 1020SOL     OW13098   7.978   9.935   1.011
 1020SOL    HW113099   7.909   9.962   1.079
 1020SOL    HW213100   7.979   9.835   1.003
 1021SOL     OW13101   9.977   5.445   1.299
 1021SOL    HW113102   0.046   5.477   1.364
 1021SOL    HW213103   9.957   5.348   1.316
 1022SOL     OW13104   0.700   5.687   1.831
 1022SOL    HW113105   0.688   5.592   1.860
 1022SOL    HW213106   0.798   5.709   1.833
 1023SOL     OW13107   2.709   1.750   1.847
 1023SOL    HW113108   2.669   1.678   1.904
 1023SOL    HW213109   2.788   1.790   1.894
 1024SOL     OW13110   2.723   5.871   0.985
 1024SOL    HW113111   2.657   5.941   1.010
 1024SOL    HW213112   2.762   5.893   0.895
 1025SOL     OW13113   1.214   6.342   2.029
 1025SOL    HW113114   1.285   6.400   2.069
 1025SOL    HW213115   1.168   6.391   1.955
 1026SOL     OW13116   3.547   9.235   0.477
 1026SOL    HW113117   3.634   9.269   0.511
 1026SOL    HW213118   3.543   9.136   0.487
 1027SOL     OW13119   0.719   9.171   0.459
 1027SOL    HW113120   0.630   9.215   0.445
 1027SOL    HW213121   0.716   9.078   0.423
 1028SOL     OW13122   8.936   6.440   0.533
 1028SOL    HW113123   9.011   6.472   0.476
 1028SOL    HW213124   8.970   6.368   0.595
 1029SOL     OW13125   2.802   5.885   1.472
 1029SOL    HW113126   2.862   5.832   1.531
 1029SOL    HW213127   2.814   5.855   1.377
 1030SOL     OW13128   2.250   1.628   0.709
 1030SOL    HW113129   2.195   1.638   0.792
 1030SOL    HW213130   2.190   1.622   0.630
 1031SOL     OW13131   8.406   8.232   0.688
 1031SOL    HW113132   8.430   8.313   0.741
 1031SOL    HW213133   8.483   8.206   0.629
 1032SOL     OW13134   7.421   9.433   1.149
 1032SOL    HW113135   7.367   9.515   1.126
 1032SOL    HW213136   7.379   9.353   1.106
 1033SOL     OW13137   9.779   9.654   0.795
 1033SOL    HW113138   9.695   9.678   0.843
 1033SOL    HW213139   9.835   9.736   0.781
 1034SOL     OW13140   1.885   9.429   2.004
 1034SOL    HW113141   1.946   9.413   1.926
 1034SOL    HW213142   1.792   9.401   1.980
 1035SOL     OW13143   8.090   1.485   1.103
 1035SOL    HW113144   8.153   1.413   1.132
 1035SOL    HW213145   7.996   1.460   1.127
 1036SOL     OW13146   0.070   0.442   0.610
 1036SOL    HW113147   0.069   0.536   0.645
 1036SOL    HW213148   0.012   0.384   0.668
 1037SOL     OW13149   9.339   7.889   0.957
 1037SOL    HW113150   9.382   7.864   1.045
 1037SOL    HW213151   9.241   7.871   0.963
 1038SOL     OW13152   0.072   5.839   2.111
 1038SOL    HW113153   0.070   5.808   2.016
 1038SOL    HW213154   0.167   5.845   2.142
 1039SOL     OW13155   9.350   8.104   1.695
 1039SOL    HW113156   9.433   8.138   1.652
 1039SOL    HW213157   9.314   8.174   1.758
 1040SOL     OW13158   2.537   8.716   1.164
 1040SOL    HW113159   2.623   8.743   1.206
 1040SOL    HW213160   2.494   8.796   1.122
 1041SOL     OW13161   9.292   9.549   2.323
 1041SOL    HW113162   9.210   9.606   2.323
 1041SOL    HW213163   9.307   9.512   2.415
 1042SOL     OW13164   8.476   1.875   1.811
 1042SOL    HW113165   8.456   1.973   1.807
 1042SOL    HW213166   8.489   1.848   1.906
 1043SOL     OW13167   4.498   2.777   0.748
 1043SOL    HW113168   4.501   2.877   0.751
 1043SOL    HW213169   4.495   2.742   0.842
 1044SOL     OW13170   0.265   5.067   1.594
 1044SOL    HW113171   0.189   5.092   1.654
 1044SOL    HW213172   0.230   5.041   1.504
 1045SOL     OW13173   9.211   4.296   1.376
 1045SOL    HW113174   9.240   4.204   1.350
 1045SOL    HW213175   9.214   4.305   1.476
 1046SOL     OW13176   9.347   5.695   1.699
 1046SOL    HW113177   9.420   5.740   1.751
 1046SOL    HW213178   9.270   5.758   1.690
 1047SOL     OW13179   2.015   6.701   2.043
 1047SOL    HW113180   2.009   6.603   2.060
 1047SOL    HW213181   2.111   6.728   2.041
 1048SOL     OW13182   3.088   5.676   1.361
 1048SOL    HW113183   3.057   5.699   1.453
 1048SOL    HW213184   3.021   5.708   1.294
 1049SOL     OW13185   8.580   9.973   0.951
 1049SOL    HW113186   8.595   0.069   0.928
 1049SOL    HW213187   8.482   9.953   0.952
 1050SOL     OW13188   3.309   0.207   1.071
 1050SOL    HW113189   3.399   0.164   1.073
 1050SOL    HW213190   3.314   0.292   1.019
 1051SOL     OW13191   0.809   8.645   1.926
 1051SOL    HW113192   0.818   8.565   1.986
 1051SOL    HW213193   0.844   8.622   1.836
 1052SOL     OW13194   3.292   0.439   0.926
 1052SOL    HW113195   3.329   0.524   0.963
 1052SOL    HW213196   3.192   0.439   0.936
 1053SOL     OW13197   2.268   6.587   0.968
 1053SOL    HW113198   2.327   6.582   1.049
 1053SOL    HW213199   2.173   6.570   0.996
 1054SOL     OW13200   9.607   3.465   2.027
 1054SOL    HW113201   9.598   3.397   1.955
 1054SOL    HW213202   9.532   3.530   2.022
 1055SOL     OW13203   1.621   0.439   0.950
 1055SOL    HW113204   1.636   0.520   0.894
 1055SOL    HW213205   1.707   0.390   0.963
 1056SOL     OW13206   2.674   6.408   2.184
 1056SOL    HW113207   2.765   6.373   2.207
 1056SOL    HW213208   2.673   6.439   2.090
 1057SOL     OW13209   9.329   6.000   2.264
 1057SOL    HW113210   9.289   5.915   2.295
 1057SOL    HW213211   9.394   5.981   2.189
 1058SOL     OW13212   9.099   6.889   1.341
 1058SOL    HW113213   9.016   6.939   1.364
 1058SOL    HW213214   9.077   6.793   1.325
 1059SOL     OW13215   1.056   7.351   1.753
 1059SOL    HW113216   1.005   7.364   1.839
 1059SOL    HW213217   1.105   7.435   1.731
 1060SOL     OW13218   0.897   0.777   1.209
 1060SOL    HW113219   0.884   0.863   1.259
 1060SOL    HW213220   0.849   0.783   1.122
 1061SOL     OW13221   9.836   5.298   1.729
 1061SOL    HW113222   9.775   5.335   1.799
 1061SOL    HW213223   9.892   5.372   1.692
 1062SOL     OW13224   1.014   7.800   0.824
 1062SOL    HW113225   0.966   7.872   0.874
 1062SOL    HW213226   1.068   7.746   0.887
 1063SOL     OW13227   2.144   2.770   1.314
 1063SOL    HW113228   2.183   2.687   1.274
 1063SOL    HW213229   2.188   2.790   1.401
 1064SOL     OW13230   0.929   5.738   2.139
 1064SOL    HW113231   0.878   5.819   2.168
 1064SOL    HW213232   0.935   5.736   2.039
 1065SOL     OW13233   0.423   2.162   0.757
 1065SOL    HW113234   0.520   2.173   0.779
 1065SOL    HW213235   0.368   2.186   0.837
 1066SOL     OW13236   4.198   9.865   2.027
 1066SOL    HW113237   4.197   9.784   2.085
 1066SOL    HW213238   4.206   9.947   2.083
 1067SOL     OW13239   1.881   2.295   2.138
 1067SOL    HW113240   1.783   2.301   2.119
 1067SOL    HW213241   1.909   2.199   2.142
 1068SOL     OW13242   1.501   9.866   1.631
 1068SOL    HW113243   1.423   9.806   1.611
 1068SOL    HW213244   1.571   9.855   1.560
 1069SOL     OW13245   0.072   2.272   1.722
 1069SOL    HW113246   0.150   2.210   1.716
 1069SOL    HW213247   0.061   2.320   1.634
 1070SOL     OW13248   9.344   0.079   0.568
 1070SOL    HW113249   9.309   0.171   0.548
 1070SOL    HW213250   9.430   0.087   0.618
 1071SOL     OW13251   2.393   8.393   0.909
 1071SOL    HW113252   2.341   8.441   0.839
 1071SOL    HW213253   2.411   8.299   0.879
 1072SOL     OW13254   2.581   0.269   1.754
 1072SOL    HW113255   2.560   0.184   1.801
 1072SOL    HW213256   2.679   0.287   1.758
 1073SOL     OW13257   9.580   3.262   1.833
 1073SOL    HW113258   9.636   3.280   1.753
 1073SOL    HW213259   9.507   3.199   1.810
 1074SOL     OW13260   4.454   2.554   0.594
 1074SOL    HW113261   4.490   2.473   0.640
 1074SOL    HW213262   4.471   2.635   0.650
 1075SOL     OW13263   1.738   4.991   1.149
 1075SOL    HW113264   1.781   4.966   1.063
 1075SOL    HW213265   1.640   5.004   1.135
 1076SOL     OW13266   3.091   9.291   1.601
 1076SOL    HW113267   2.994   9.316   1.602
 1076SOL    HW213268   3.107   9.226   1.526
 1077SOL     OW13269   9.675   7.340   0.510
 1077SOL    HW113270   9.759   7.289   0.530
 1077SOL    HW213271   9.598   7.276   0.506
 1078SOL     OW13272   2.570   9.662   0.903
 1078SOL    HW113273   2.563   9.643   1.001
 1078SOL    HW213274   2.648   9.723   0.887
 1079SOL     OW13275   9.579   8.227   1.999
 1079SOL    HW113276   9.679   8.229   2.008
 1079SOL    HW213277   9.547   8.318   1.972
 1080SOL     OW13278   1.008   9.865   1.223
 1080SOL    HW113279   0.929   9.821   1.181
 1080SOL    HW213280   1.045   9.933   1.159
 1081SOL     OW13281   3.055   9.383   1.997
 1081SOL    HW113282   3.107   9.370   2.082
 1081SOL    HW213283   3.064   9.478   1.967
 1082SOL     OW13284   0.506   9.560   0.705
 1082SOL    HW113285   0.428   9.524   0.655
 1082SOL    HW213286   0.554   9.485   0.751
 1083SOL     OW13287   3.740   1.105   0.428
 1083SOL    HW113288   3.697   1.015   0.432
 1083SOL    HW213289   3.670   1.176   0.440
 1084SOL     OW13290   8.973   9.936   0.402
 1084SOL    HW113291   9.017   9.921   0.314
 1084SOL    HW213292   8.957   9.849   0.447
 1085SOL     OW13293   3.175   8.697   0.460
 1085SOL    HW113294   3.107   8.624   0.460
 1085SOL    HW213295   3.267   8.659   0.469
 1086SOL     OW13296   9.581   1.788   0.430
 1086SOL    HW113297   9.651   1.766   0.362
 1086SOL    HW213298   9.500   1.822   0.384
 1087SOL     OW13299   2.246   2.060   1.574
 1087SOL    HW113300   2.174   2.126   1.595
 1087SOL    HW213301   2.208   1.987   1.517
 1088SOL     OW13302   9.001   3.530   1.885
 1088SOL    HW113303   9.007   3.437   1.850
 1088SOL    HW213304   9.049   3.536   1.973
 1089SOL     OW13305   9.542   2.782   1.216
 1089SOL    HW113306   9.627   2.742   1.250
 1089SOL    HW213307   9.530   2.757   1.120
 1090SOL     OW13308   9.492   2.150   0.992
 1090SOL    HW113309   9.450   2.073   0.944
 1090SOL    HW213310   9.479   2.140   1.090
 1091SOL     OW13311   1.851   7.471   0.751
 1091SOL    HW113312   1.918   7.405   0.717
 1091SOL    HW213313   1.790   7.497   0.676
 1092SOL     OW13314   1.660   0.673   0.813
 1092SOL    HW113315   1.674   0.745   0.881
 1092SOL    HW213316   1.578   0.692   0.760
 1093SOL     OW13317   1.512   6.517   1.691
 1093SOL    HW113318   1.485   6.496   1.597
 1093SOL    HW213319   1.587   6.456   1.719
 1094SOL     OW13320   2.449   6.569   1.176
 1094SOL    HW113321   2.541   6.607   1.167
 1094SOL    HW213322   2.416   6.583   1.269
 1095SOL     OW13323   3.314   0.522   2.100
 1095SOL    HW113324   3.243   0.586   2.127
 1095SOL    HW213325   3.277   0.429   2.098
 1096SOL     OW13326   8.160   9.110   1.101
 1096SOL    HW113327   8.243   9.165   1.111
 1096SOL    HW213328   8.134   9.107   1.005
 1097SOL     OW13329   3.778   2.922   1.664
 1097SOL    HW113330   3.732   2.985   1.727
 1097SOL    HW213331   3.810   2.842   1.716
 1098SOL     OW13332   0.915   3.758   1.830
 1098SOL    HW113333   0.945   3.686   1.893
 1098SOL    HW213334   0.898   3.842   1.881
 1099SOL     OW13335   2.891   4.681   1.666
 1099SOL    HW113336   2.963   4.623   1.628
 1099SOL    HW213337   2.882   4.663   1.764
 1100SOL     OW13338   1.047   3.811   0.669
 1100SOL    HW113339   0.978   3.818   0.740
 1100SOL    HW213340   1.025   3.734   0.608
 1101SOL     OW13341   1.495   9.572   0.663
 1101SOL    HW113342   1.400   9.596   0.682
 1101SOL    HW213343   1.532   9.634   0.594
 1102SOL     OW13344   2.927   4.311   2.023
 1102SOL    HW113345   2.841   4.348   1.989
 1102SOL    HW213346   2.924   4.211   2.023
 1103SOL     OW13347   0.126   4.784   0.873
 1103SOL    HW113348   0.175   4.870   0.881
 1103SOL    HW213349   0.132   4.733   0.959
 1104SOL     OW13350   2.841   1.270   2.163
 1104SOL    HW113351   2.917   1.303   2.107
 1104SOL    HW213352   2.850   1.172   2.178
 1105SOL     OW13353   3.468   9.347   1.428
 1105SOL    HW113354   3.438   9.304   1.343
 1105SOL    HW213355   3.398   9.410   1.461
 1106SOL     OW13356   7.771   9.132   0.983
 1106SOL    HW113357   7.690   9.130   1.042
 1106SOL    HW213358   7.803   9.226   0.973
 1107SOL     OW13359   0.855   3.814   0.869
 1107SOL    HW113360   0.902   3.739   0.916
 1107SOL    HW213361   0.831   3.885   0.934
 1108SOL     OW13362   8.662   9.539   1.599
 1108SOL    HW113363   8.666   9.569   1.504
 1108SOL    HW213364   8.755   9.526   1.633
 1109SOL     OW13365   3.780   0.642   0.798
 1109SOL    HW113366   3.720   0.665   0.722
 1109SOL    HW213367   3.832   0.724   0.824
 1110SOL     OW13368   9.085   2.526   1.899
 1110SOL    HW113369   9.073   2.595   1.827
 1110SOL    HW213370   9.127   2.445   1.860
 1111SOL     OW13371   9.089   8.135   0.833
 1111SOL    HW113372   9.091   8.219   0.888
 1111SOL    HW213373   9.170   8.133   0.774
 1112SOL     OW13374   8.340   8.550   2.317
 1112SOL    HW113375   8.408   8.552   2.391
 1112SOL    HW213376   8.383   8.516   2.233
 1113SOL     OW13377   3.515   2.251   0.975
 1113SOL    HW113378   3.533   2.348   0.986
 1113SOL    HW213379   3.602   2.201   0.969
 1114SOL     OW13380   0.242   1.131   0.741
 1114SOL    HW113381   0.276   1.199   0.805
 1114SOL    HW213382   0.206   1.052   0.791
 1115SOL     OW13383   1.904   0.575   1.103
 1115SOL    HW113384   1.859   0.656   1.067
 1115SOL    HW213385   1.876   0.560   1.198
 1116SOL     OW13386   2.857   7.914   1.293
 1116SOL    HW113387   2.758   7.907   1.295
 1116SOL    HW213388   2.884   7.996   1.243
 1117SOL     OW13389   0.888   3.123   1.812
 1117SOL    HW113390   0.905   3.160   1.903
 1117SOL    HW213391   0.940   3.038   1.800
 1118SOL     OW13392   8.871   4.794   0.505
 1118SOL    HW113393   8.900   4.824   0.414
 1118SOL    HW213394   8.857   4.874   0.564
 1119SOL     OW13395   3.335   8.498   1.925
 1119SOL    HW113396   3.362   8.577   1.980
 1119SOL    HW213397   3.408   8.429   1.928
 1120SOL     OW13398   0.011   1.552   1.507
 1120SOL    HW113399   0.019   1.591   1.416
 1120SOL    HW213400   9.916   1.561   1.539
 1121SOL     OW13401   1.638   8.929   1.379
 1121SOL    HW113402   1.540   8.944   1.391
 1121SOL    HW213403   1.666   8.850   1.434
 1122SOL     OW13404   4.062   2.670   0.795
 1122SOL    HW113405   4.127   2.727   0.745
 1122SOL    HW213406   4.112   2.597   0.843
 1123SOL     OW13407   4.010   3.269   1.387
 1123SOL    HW113408   3.960   3.184   1.402
 1123SOL    HW213409   4.106   3.255   1.411
 1124SOL     OW13410   3.332   8.988   0.840
 1124SOL    HW113411   3.310   8.950   0.751
 1124SOL    HW213412   3.345   9.087   0.832
 1125SOL     OW13413   8.804   1.473   1.009
 1125SOL    HW113414   8.889   1.522   0.992
 1125SOL    HW213415   8.741   1.489   0.933
 1126SOL     OW13416   1.566   0.647   2.259
 1126SOL    HW113417   1.519   0.563   2.235
 1126SOL    HW213418   1.553   0.666   2.357
 1127SOL     OW13419   0.627   6.402   0.908
 1127SOL    HW113420   0.536   6.395   0.948
 1127SOL    HW213421   0.668   6.490   0.932
 1128SOL     OW13422   1.604   6.118   1.776
 1128SOL    HW113423   1.600   6.038   1.836
 1128SOL    HW213424   1.510   6.146   1.754
 1129SOL     OW13425   8.669   8.040   1.002
 1129SOL    HW113426   8.667   7.989   0.916
 1129SOL    HW213427   8.611   8.121   0.994
 1130SOL     OW13428   4.641   3.401   1.634
 1130SOL    HW113429   4.726   3.450   1.614
 1130SOL    HW213430   4.571   3.466   1.663
 1131SOL     OW13431   2.314   0.520   2.246
 1131SOL    HW113432   2.219   0.514   2.213
 1131SOL    HW213433   2.346   0.429   2.271
 1132SOL     OW13434   2.275   9.317   1.134
 1132SOL    HW113435   2.233   9.406   1.150
 1132SOL    HW213436   2.342   9.298   1.206
 1133SOL     OW13437   0.495   0.517   0.523
 1133SOL    HW113438   0.502   0.441   0.458
 1133SOL    HW213439   0.584   0.562   0.530
 1134SOL     OW13440   1.561   7.098   2.236
 1134SOL    HW113441   1.465   7.116   2.216
 1134SOL    HW213442   1.603   7.181   2.274
 1135SOL     OW13443   1.987   6.581   1.038
 1135SOL    HW113444   1.969   6.666   0.989
 1135SOL    HW213445   1.992   6.600   1.136
 1136SOL     OW13446   9.032   3.277   1.782
 1136SOL    HW113447   9.022   3.194   1.838
 1136SOL    HW213448   8.991   3.262   1.692
 1137SOL     OW13449   8.978   4.709   1.361
 1137SOL    HW113450   9.009   4.799   1.329
 1137SOL    HW213451   8.977   4.708   1.461
 1138SOL     OW13452   9.287   3.379   1.792
 1138SOL    HW113453   9.193   3.346   1.790
 1138SOL    HW213454   9.343   3.317   1.847
 1139SOL     OW13455   1.404   2.147   0.971
 1139SOL    HW113456   1.361   2.237   0.974
 1139SOL    HW213457   1.387   2.105   0.882
 1140SOL     OW13458   2.610   8.695   0.821
 1140SOL    HW113459   2.549   8.759   0.774
 1140SOL    HW213460   2.556   8.620   0.859
 1141SOL     OW13461   8.132   9.459   1.043
 1141SOL    HW113462   8.168   9.447   1.136
 1141SOL    HW213463   8.202   9.433   0.977
 1142SOL     OW13464   9.803   9.389   2.129
 1142SOL    HW113465   9.709   9.396   2.097
 1142SOL    HW213466   9.851   9.476   2.111
 1143SOL     OW13467   1.950   3.754   2.083
 1143SOL    HW113468   2.039   3.799   2.081
 1143SOL    HW213469   1.919   3.747   2.178
 1144SOL     OW13470   1.764   1.658   1.159
 1144SOL    HW113471   1.706   1.619   1.230
 1144SOL    HW213472   1.790   1.751   1.184
 1145SOL     OW13473   9.646   9.215   1.521
 1145SOL    HW113474   9.640   9.134   1.464
 1145SOL    HW213475   9.583   9.206   1.598
 1146SOL     OW13476   2.817   9.321   1.862
 1146SOL    HW113477   2.783   9.228   1.877
 1146SOL    HW213478   2.902   9.333   1.914
 1147SOL     OW13479   1.174   6.594   1.460
 1147SOL    HW113480   1.178   6.672   1.522
 1147SOL    HW213481   1.263   6.584   1.414
 1148SOL     OW13482   2.304   3.145   0.618
 1148SOL    HW113483   2.300   3.076   0.690
 1148SOL    HW213484   2.232   3.213   0.633
 1149SOL     OW13485   0.614   1.030   1.258
 1149SOL    HW113486   0.620   1.066   1.165
 1149SOL    HW213487   0.705   1.026   1.299
 1150SOL     OW13488   9.134   1.008   2.215
 1150SOL    HW113489   9.044   0.976   2.245
 1150SOL    HW213490   9.174   1.066   2.286
 1151SOL     OW13491   3.249   2.642   2.020
 1151SOL    HW113492   3.333   2.657   2.071
 1151SOL    HW213493   3.251   2.552   1.976
 1152SOL     OW13494   8.207   2.202   1.868
 1152SOL    HW113495   8.225   2.295   1.900
 1152SOL    HW213496   8.228   2.137   1.941
 1153SOL     OW13497   2.262   3.407   1.384
 1153SOL    HW113498   2.264   3.504   1.410
 1153SOL    HW213499   2.298   3.397   1.291
 1154SOL     OW13500   0.627   7.817   0.933
 1154SOL    HW113501   0.588   7.757   1.003
 1154SOL    HW213502   0.679   7.762   0.868
 1155SOL     OW13503   2.952   0.203   0.800
 1155SOL    HW113504   2.857   0.198   0.769
 1155SOL    HW213505   3.012   0.221   0.722
 1156SOL     OW13506   9.030   5.006   1.556
 1156SOL    HW113507   9.057   5.095   1.592
 1156SOL    HW213508   9.046   5.003   1.458
 1157SOL     OW13509   9.603   7.316   0.997
 1157SOL    HW113510   9.692   7.318   0.951
 1157SOL    HW213511   9.615   7.301   1.095
 1158SOL     OW13512   1.519   3.093   1.236
 1158SOL    HW113513   1.573   3.061   1.313
 1158SOL    HW213514   1.452   3.023   1.212
 1159SOL     OW13515   9.748   8.132   1.196
 1159SOL    HW113516   9.815   8.078   1.246
 1159SOL    HW213517   9.719   8.081   1.114
 1160SOL     OW13518   3.795   8.466   1.417
 1160SOL    HW113519   3.770   8.374   1.445
 1160SOL    HW213520   3.847   8.511   1.490
 1161SOL     OW13521   4.038   2.806   2.100
 1161SOL    HW113522   4.050   2.854   2.013
 1161SOL    HW213523   3.998   2.716   2.083
 1162SOL     OW13524   0.178   4.735   1.704
 1162SOL    HW113525   0.140   4.786   1.781
 1162SOL    HW213526   0.262   4.688   1.732
 1163SOL     OW13527   1.331   0.536   1.530
 1163SOL    HW113528   1.235   0.558   1.544
 1163SOL    HW213529   1.388   0.606   1.574
 1164SOL     OW13530   1.528   8.431   0.732
 1164SOL    HW113531   1.503   8.506   0.672
 1164SOL    HW213532   1.616   8.450   0.776
 1165SOL     OW13533   1.518   8.355   1.980
 1165SOL    HW113534   1.454   8.407   1.923
 1165SOL    HW213535   1.547   8.273   1.930
 1166SOL     OW13536   9.865   2.756   2.203
 1166SOL    HW113537   9.887   2.681   2.141
 1166SOL    HW213538   9.780   2.735   2.252
 1167SOL     OW13539   0.772   3.050   1.132
 1167SOL    HW113540   0.691   3.070   1.077
 1167SOL    HW213541   0.745   3.038   1.227
 1168SOL     OW13542   9.101   9.738   2.310
 1168SOL    HW113543   9.178   9.796   2.283
 1168SOL    HW213544   9.016   9.780   2.279
 1169SOL     OW13545   1.309   1.976   1.590
 1169SOL    HW113546   1.251   1.906   1.631
 1169SOL    HW213547   1.358   1.937   1.512
 1170SOL     OW13548   2.375   1.251   1.716
 1170SOL    HW113549   2.377   1.200   1.630
 1170SOL    HW213550   2.295   1.224   1.769
 1171SOL     OW13551   0.112   5.781   1.843
 1171SOL    HW113552   0.174   5.726   1.786
 1171SOL    HW213553   0.019   5.775   1.806
 1172SOL     OW13554   2.706   9.916   2.172
 1172SOL    HW113555   2.642   9.873   2.109
 1172SOL    HW213556   2.684   0.013   2.180
 1173SOL     OW13557   9.842   2.826   1.074
 1173SOL    HW113558   9.808   2.802   1.165
 1173SOL    HW213559   9.936   2.859   1.081
 1174SOL     OW13560   1.311   9.664   1.565
 1174SOL    HW113561   1.222   9.684   1.524
 1174SOL    HW213562   1.323   9.565   1.570
 1175SOL     OW13563   0.809   4.971   1.415
 1175SOL    HW113564   0.898   4.987   1.373
 1175SOL    HW213565   0.822   4.935   1.507
 1176SOL     OW13566   9.528   3.004   1.368
 1176SOL    HW113567   9.592   2.986   1.443
 1176SOL    HW213568   9.521   2.923   1.310
 1177SOL     OW13569   8.714   9.082   2.133
 1177SOL    HW113570   8.632   9.106   2.081
 1177SOL    HW213571   8.747   8.993   2.103
 1178SOL     OW13572   9.884   5.967   2.251
 1178SOL    HW113573   9.953   5.919   2.197
 1178SOL    HW213574   9.889   5.938   2.346
 1179SOL     OW13575   4.429   1.512   1.018
 1179SOL    HW113576   4.473   1.435   1.065
 1179SOL    HW213577   4.336   1.486   0.994
 1180SOL     OW13578   1.356   5.006   0.600
 1180SOL    HW113579   1.450   4.988   0.628
 1180SOL    HW213580   1.331   5.100   0.626
 1181SOL     OW13581   4.560   3.916   1.946
 1181SOL    HW113582   4.589   3.846   2.012
 1181SOL    HW213583   4.468   3.947   1.969
 1182SOL     OW13584   8.785   2.535   0.944
 1182SOL    HW113585   8.869   2.580   0.975
 1182SOL    HW213586   8.731   2.509   1.024
 1183SOL     OW13587   2.195   6.541   2.270
 1183SOL    HW113588   2.148   6.543   2.358
 1183SOL    HW213589   2.140   6.488   2.204
 1184SOL     OW13590   9.358   8.160   1.023
 1184SOL    HW113591   9.308   8.169   1.109
 1184SOL    HW213592   9.365   8.063   1.000
 1185SOL     OW13593   1.521   0.224   0.534
 1185SOL    HW113594   1.524   0.125   0.517
 1185SOL    HW213595   1.583   0.246   0.610
 1186SOL     OW13596   4.150   4.275   0.457
 1186SOL    HW113597   4.095   4.241   0.533
 1186SOL    HW213598   4.140   4.213   0.379
 1187SOL     OW13599   0.444   4.176   1.036
 1187SOL    HW113600   0.400   4.129   0.960
 1187SOL    HW213601   0.414   4.136   1.122
 1188SOL     OW13602   8.630   0.802   0.405
 1188SOL    HW113603   8.576   0.820   0.323
 1188SOL    HW213604   8.575   0.820   0.486
 1189SOL     OW13605   1.756   0.266   1.735
 1189SOL    HW113606   1.837   0.212   1.756
 1189SOL    HW213607   1.763   0.356   1.776
 1190SOL     OW13608   0.895   6.912   0.887
 1190SOL    HW113609   0.988   6.884   0.911
 1190SOL    HW213610   0.863   6.981   0.952
 1191SOL     OW13611   1.579   0.896   2.127
 1191SOL    HW113612   1.583   0.805   2.169
 1191SOL    HW213613   1.526   0.957   2.186
 1192SOL     OW13614   0.999   9.580   0.455
 1192SOL    HW113615   1.067   9.633   0.404
 1192SOL    HW213616   1.041   9.544   0.538
 1193SOL     OW13617   2.783   1.460   0.782
 1193SOL    HW113618   2.813   1.463   0.687
 1193SOL    HW213619   2.847   1.405   0.835
 1194SOL     OW13620   4.247   9.250   0.761
 1194SOL    HW113621   4.241   9.322   0.830
 1194SOL    HW213622   4.321   9.187   0.785
 1195SOL     OW13623   0.454   4.410   1.209
 1195SOL    HW113624   0.370   4.454   1.242
 1195SOL    HW213625   0.430   4.339   1.143
 1196SOL     OW13626   1.915   5.260   0.324
 1196SOL    HW113627   1.925   5.184   0.259
 1196SOL    HW213628   1.820   5.290   0.326
 1197SOL     OW13629   8.925   0.246   1.657
 1197SOL    HW113630   9.017   0.268   1.689
 1197SOL    HW213631   8.859   0.262   1.730
 1198SOL     OW13632   1.506   0.130   1.738
 1198SOL    HW113633   1.597   0.172   1.741
 1198SOL    HW213634   1.511   0.041   1.694
 1199SOL     OW13635   8.369   0.277   2.162
 1199SOL    HW113636   8.439   0.258   2.230
 1199SOL    HW213637   8.329   0.367   2.179
 1200SOL     OW13638   2.444   4.267   1.089
 1200SOL    HW113639   2.482   4.359   1.081
 1200SOL    HW213640   2.498   4.214   1.154
 1201SOL     OW13641   0.418   6.871   0.539
 1201SOL    HW113642   0.483   6.800   0.567
 1201SOL    HW213643   0.326   6.833   0.536
 1202SOL     OW13644   2.134   9.457   0.788
 1202SOL    HW113645   2.205   9.389   0.808
 1202SOL    HW213646   2.067   9.458   0.862
 1203SOL     OW13647   3.776   4.053   0.959
 1203SOL    HW113648   3.862   4.012   0.990
 1203SOL    HW213649   3.796   4.137   0.909
 1204SOL     OW13650   0.796   3.449   1.012
 1204SOL    HW113651   0.869   3.515   0.993
 1204SOL    HW213652   0.807   3.412   1.104
 1205SOL     OW13653   0.722   7.313   0.920
 1205SOL    HW113654   0.687   7.322   0.826
 1205SOL    HW213655   0.781   7.391   0.941
 1206SOL     OW13656   9.718   4.959   0.406
 1206SOL    HW113657   9.742   4.885   0.469
 1206SOL    HW213658   9.696   4.921   0.316
 1207SOL     OW13659   9.500   5.368   2.087
 1207SOL    HW113660   9.550   5.293   2.131
 1207SOL    HW213661   9.402   5.348   2.090
 1208SOL     OW13662   0.644   4.254   1.636
 1208SOL    HW113663   0.580   4.202   1.692
 1208SOL    HW213664   0.738   4.228   1.660
 1209SOL     OW13665   9.558   6.993   1.287
 1209SOL    HW113666   9.526   7.013   1.195
 1209SOL    HW213667   9.514   6.911   1.321
 1210SOL     OW13668   9.004   8.706   2.225
 1210SOL    HW113669   8.926   8.757   2.190
 1210SOL    HW213670   9.002   8.612   2.190
 1211SOL     OW13671   1.752   6.069   2.082
 1211SOL    HW113672   1.838   6.022   2.064
 1211SOL    HW213673   1.681   6.002   2.104
 1212SOL     OW13674   7.183   9.385   0.804
 1212SOL    HW113675   7.208   9.326   0.881
 1212SOL    HW213676   7.187   9.332   0.719
 1213SOL     OW13677   8.307   2.447   1.964
 1213SOL    HW113678   8.292   2.510   2.041
 1213SOL    HW213679   8.350   2.497   1.889
 1214SOL     OW13680   1.202   9.007   2.254
 1214SOL    HW113681   1.142   9.029   2.177
 1214SOL    HW213682   1.272   9.079   2.263
 1215SOL     OW13683   1.156   9.385   0.628
 1215SOL    HW113684   1.178   9.329   0.708
 1215SOL    HW213685   1.082   9.343   0.577
 1216SOL     OW13686   0.757   5.453   0.595
 1216SOL    HW113687   0.778   5.543   0.555
 1216SOL    HW213688   0.663   5.454   0.630
 1217SOL     OW13689   9.598   8.992   1.351
 1217SOL    HW113690   9.499   9.006   1.349
 1217SOL    HW213691   9.618   8.897   1.376
 1218SOL     OW13692   8.923   0.056   0.641
 1218SOL    HW113693   8.831   0.023   0.665
 1218SOL    HW213694   8.940   0.037   0.545
 1219SOL     OW13695   7.783   9.205   1.840
 1219SOL    HW113696   7.780   9.112   1.804
 1219SOL    HW213697   7.745   9.207   1.933
 1220SOL     OW13698   9.823   0.981   1.648
 1220SOL    HW113699   9.863   1.020   1.731
 1220SOL    HW213700   9.881   1.003   1.569
 1221SOL     OW13701   0.657   0.226   0.894
 1221SOL    HW113702   0.641   0.313   0.942
 1221SOL    HW213703   0.699   0.245   0.805
 1222SOL     OW13704   4.580   2.993   1.829
 1222SOL    HW113705   4.582   2.969   1.732
 1222SOL    HW213706   4.512   2.937   1.876
 1223SOL     OW13707   1.688   1.789   0.923
 1223SOL    HW113708   1.697   1.886   0.944
 1223SOL    HW213709   1.708   1.735   1.005
 1224SOL     OW13710   1.327   2.019   2.204
 1224SOL    HW113711   1.427   2.021   2.196
 1224SOL    HW213712   1.287   2.063   2.124
 1225SOL     OW13713   9.010   2.550   1.388
 1225SOL    HW113714   8.966   2.622   1.333
 1225SOL    HW213715   9.034   2.473   1.328
 1226SOL     OW13716   3.969   8.301   0.574
 1226SOL    HW113717   3.945   8.233   0.643
 1226SOL    HW213718   4.013   8.379   0.618
 1227SOL     OW13719   2.580   1.099   1.828
 1227SOL    HW113720   2.524   1.168   1.783
 1227SOL    HW213721   2.537   1.010   1.818
 1228SOL     OW13722   8.649   3.947   1.831
 1228SOL    HW113723   8.673   3.901   1.745
 1228SOL    HW213724   8.580   3.893   1.878
 1229SOL     OW13725   9.129   3.979   2.024
 1229SOL    HW113726   9.175   3.973   2.112
 1229SOL    HW213727   9.138   3.891   1.976
 1230SOL     OW13728   9.889   9.510   1.809
 1230SOL    HW113729   9.907   9.544   1.901
 1230SOL    HW213730   9.792   9.523   1.786
 1231SOL     OW13731   9.092   2.745   2.193
 1231SOL    HW113732   9.172   2.697   2.158
 1231SOL    HW213733   9.010   2.691   2.177
 1232SOL     OW13734   0.785   1.413   1.147
 1232SOL    HW113735   0.735   1.441   1.229
 1232SOL    HW213736   0.882   1.436   1.158
 1233SOL     OW13737   9.087   0.361   0.342
 1233SOL    HW113738   9.092   0.460   0.353
 1233SOL    HW213739   9.110   0.337   0.247
 1234SOL     OW13740   1.121   5.623   0.750
 1234SOL    HW113741   1.057   5.552   0.779
 1234SOL    HW213742   1.113   5.637   0.651
 1235SOL     OW13743   7.210   0.735   1.133
 1235SOL    HW113744   7.270   0.664   1.170
 1235SOL    HW213745   7.119   0.697   1.118
 1236SOL     OW13746   0.700   4.933   0.434
 1236SOL    HW113747   0.708   5.025   0.472
 1236SOL    HW213748   0.610   4.895   0.456
 1237SOL     OW13749   2.447   9.350   1.385
 1237SOL    HW113750   2.367   9.406   1.407
 1237SOL    HW213751   2.530   9.404   1.396
 1238SOL     OW13752   3.201   1.848   1.993
 1238SOL    HW113753   3.114   1.872   1.949
 1238SOL    HW213754   3.184   1.825   2.089
 1239SOL     OW13755   9.748   4.510   0.979
 1239SOL    HW113756   9.660   4.541   0.942
 1239SOL    HW213757   9.798   4.589   1.016
 1240SOL     OW13758   4.516   2.068   1.453
 1240SOL    HW113759   4.546   1.973   1.453
 1240SOL    HW213760   4.447   2.082   1.524
 1241SOL     OW13761   1.683   6.813   1.232
 1241SOL    HW113762   1.584   6.818   1.218
 1241SOL    HW213763   1.703   6.748   1.305
 1242SOL     OW13764   3.633   8.569   0.678
 1242SOL    HW113765   3.628   8.525   0.768
 1242SOL    HW213766   3.655   8.666   0.690
 1243SOL     OW13767   1.897   5.479   1.234
 1243SOL    HW113768   1.826   5.507   1.170
 1243SOL    HW213769   1.905   5.380   1.233
 1244SOL     OW13770   8.371   7.407   2.065
 1244SOL    HW113771   8.457   7.434   2.021
 1244SOL    HW213772   8.308   7.372   1.996
 1245SOL     OW13773   1.496   5.249   1.995
 1245SOL    HW113774   1.516   5.155   1.968
 1245SOL    HW213775   1.408   5.252   2.043
 1246SOL     OW13776   1.393   4.170   1.651
 1246SOL    HW113777   1.346   4.129   1.729
 1246SOL    HW213778   1.388   4.270   1.658
 1247SOL     OW13779   2.371   0.695   1.039
 1247SOL    HW113780   2.367   0.747   0.953
 1247SOL    HW213781   2.465   0.667   1.057
 1248SOL     OW13782   9.938   1.106   0.948
 1248SOL    HW113783   9.916   1.097   1.045
 1248SOL    HW213784   0.007   1.038   0.923
 1249SOL     OW13785   1.033   5.949   1.596
 1249SOL    HW113786   1.123   5.925   1.560
 1249SOL    HW213787   0.962   5.912   1.535
 1250SOL     OW13788   1.884   8.496   1.480
 1250SOL    HW113789   1.814   8.508   1.410
 1250SOL    HW213790   1.947   8.424   1.451
 1251SOL     OW13791   2.777   2.869   0.876
 1251SOL    HW113792   2.715   2.841   0.803
 1251SOL    HW213793   2.783   2.797   0.945
 1252SOL     OW13794   0.487   8.886   1.719
 1252SOL    HW113795   0.398   8.930   1.732
 1252SOL    HW213796   0.516   8.895   1.624
 1253SOL     OW13797   9.889   1.040   1.206
 1253SOL    HW113798   9.798   1.011   1.236
 1253SOL    HW213799   9.947   1.055   1.286
 1254SOL     OW13800   9.191   6.585   2.038
 1254SOL    HW113801   9.203   6.550   1.945
 1254SOL    HW213802   9.264   6.650   2.058
 1255SOL     OW13803   3.683   9.578   2.015
 1255SOL    HW113804   3.652   9.668   1.984
 1255SOL    HW213805   3.611   9.510   2.000
 1256SOL     OW13806   1.346   5.538   0.890
 1256SOL    HW113807   1.274   5.589   0.845
 1256SOL    HW213808   1.404   5.601   0.942
 1257SOL     OW13809   3.220   3.223   1.975
 1257SOL    HW113810   3.154   3.150   1.955
 1257SOL    HW213811   3.278   3.195   2.051
 1258SOL     OW13812   8.681   7.905   0.762
 1258SOL    HW113813   8.596   7.885   0.714
 1258SOL    HW213814   8.717   7.820   0.802
 1259SOL     OW13815   0.628   7.799   1.892
 1259SOL    HW113816   0.695   7.737   1.851
 1259SOL    HW213817   0.616   7.778   1.988
 1260SOL     OW13818   9.158   4.410   2.108
 1260SOL    HW113819   9.093   4.343   2.073
 1260SOL    HW213820   9.184   4.472   2.034
 1261SOL     OW13821   1.672   2.069   0.990
 1261SOL    HW113822   1.576   2.094   0.973
 1261SOL    HW213823   1.727   2.152   0.993
 1262SOL     OW13824   0.969   3.585   0.527
 1262SOL    HW113825   0.874   3.602   0.500
 1262SOL    HW213826   0.971   3.514   0.598
 1263SOL     OW13827   1.641   9.356   1.885
 1263SOL    HW113828   1.543   9.338   1.872
 1263SOL    HW213829   1.693   9.308   1.814
 1264SOL     OW13830   7.954   9.118   1.581
 1264SOL    HW113831   7.938   9.112   1.483
 1264SOL    HW213832   7.882   9.067   1.630
 1265SOL     OW13833   9.638   0.963   1.282
 1265SOL    HW113834   9.602   1.047   1.240
 1265SOL    HW213835   9.612   0.961   1.378
 1266SOL     OW13836   0.930   4.783   1.999
 1266SOL    HW113837   0.917   4.881   2.016
 1266SOL    HW213838   0.992   4.771   1.921
 1267SOL     OW13839   3.840   8.705   1.062
 1267SOL    HW113840   3.929   8.661   1.074
 1267SOL    HW213841   3.847   8.773   0.988
 1268SOL     OW13842   3.747   4.720   2.209
 1268SOL    HW113843   3.842   4.736   2.181
 1268SOL    HW213844   3.716   4.633   2.172
 1269SOL     OW13845   0.360   7.681   2.172
 1269SOL    HW113846   0.310   7.605   2.130
 1269SOL    HW213847   0.303   7.762   2.172
 1270SOL     OW13848   1.705   8.514   1.279
 1270SOL    HW113849   1.632   8.458   1.240
 1270SOL    HW213850   1.747   8.569   1.207
 1271SOL     OW13851   1.600   3.539   1.450
 1271SOL    HW113852   1.575   3.472   1.380
 1271SOL    HW213853   1.700   3.549   1.453
 1272SOL     OW13854   8.777   9.512   1.109
 1272SOL    HW113855   8.728   9.533   1.194
 1272SOL    HW213856   8.774   9.592   1.048
 1273SOL     OW13857   9.220   4.590   1.905
 1273SOL    HW113858   9.122   4.610   1.908
 1273SOL    HW213859   9.257   4.618   1.816
 1274SOL     OW13860   9.428   9.277   0.778
 1274SOL    HW113861   9.501   9.259   0.712
 1274SOL    HW213862   9.434   9.212   0.854
 1275SOL     OW13863   0.543   8.045   0.798
 1275SOL    HW113864   0.628   8.079   0.758
 1275SOL    HW213865   0.561   7.958   0.845
 1276SOL     OW13866   8.563   1.812   0.806
 1276SOL    HW113867   8.601   1.860   0.885
 1276SOL    HW213868   8.464   1.827   0.802
 1277SOL     OW13869   0.265   7.459   0.880
 1277SOL    HW113870   0.363   7.441   0.873
 1277SOL    HW213871   0.227   7.407   0.956
 1278SOL     OW13872   2.190   6.185   2.042
 1278SOL    HW113873   2.222   6.130   1.965
 1278SOL    HW213874   2.256   6.259   2.059
 1279SOL     OW13875   0.530   4.707   1.099
 1279SOL    HW113876   0.481   4.776   1.153
 1279SOL    HW213877   0.598   4.662   1.157
 1280SOL     OW13878   9.412   2.741   1.618
 1280SOL    HW113879   9.374   2.678   1.551
 1280SOL    HW213880   9.509   2.757   1.598
 1281SOL     OW13881   8.468   2.155   1.762
 1281SOL    HW113882   8.489   2.147   1.664
 1281SOL    HW213883   8.370   2.170   1.773
 1282SOL     OW13884   9.275   3.389   0.616
 1282SOL    HW113885   9.275   3.488   0.598
 1282SOL    HW213886   9.191   3.364   0.664
 1283SOL     OW13887   4.018   8.558   0.700
 1283SOL    HW113888   3.979   8.650   0.694
 1283SOL    HW213889   3.969   8.506   0.770
 1284SOL     OW13890   0.359   9.843   0.433
 1284SOL    HW113891   0.389   9.854   0.338
 1284SOL    HW213892   0.437   9.822   0.491
 1285SOL     OW13893   2.948   3.744   1.228
 1285SOL    HW113894   2.900   3.672   1.278
 1285SOL    HW213895   2.932   3.732   1.130
 1286SOL     OW13896   0.938   8.755   1.300
 1286SOL    HW113897   0.943   8.854   1.312
 1286SOL    HW213898   0.842   8.726   1.308
 1287SOL     OW13899   0.953   6.027   1.839
 1287SOL    HW113900   0.868   6.079   1.845
 1287SOL    HW213901   0.975   6.010   1.743
 1288SOL     OW13902   9.927   1.579   1.027
 1288SOL    HW113903   9.906   1.648   0.958
 1288SOL    HW213904   9.969   1.500   0.982
 1289SOL     OW13905   0.726   7.571   1.312
 1289SOL    HW113906   0.724   7.549   1.410
 1289SOL    HW213907   0.809   7.534   1.271
 1290SOL     OW13908   8.434   2.587   1.769
 1290SOL    HW113909   8.520   2.635   1.786
 1290SOL    HW213910   8.410   2.595   1.672
 1291SOL     OW13911   9.725   1.212   0.566
 1291SOL    HW113912   9.667   1.143   0.521
 1291SOL    HW213913   9.811   1.170   0.593
 1292SOL     OW13914   3.064   0.715   0.475
 1292SOL    HW113915   3.112   0.803   0.477
 1292SOL    HW213916   2.970   0.728   0.508
 1293SOL     OW13917   1.704   8.728   1.555
 1293SOL    HW113918   1.629   8.663   1.571
 1293SOL    HW213919   1.788   8.677   1.536
 1294SOL     OW13920   2.672   4.438   1.442
 1294SOL    HW113921   2.644   4.502   1.515
 1294SOL    HW213922   2.649   4.345   1.470
 1295SOL     OW13923   0.172   7.191   1.790
 1295SOL    HW113924   0.240   7.263   1.802
 1295SOL    HW213925   0.134   7.197   1.698
 1296SOL     OW13926   9.029   1.636   0.926
 1296SOL    HW113927   9.097   1.635   0.853
 1296SOL    HW213928   8.988   1.727   0.933
 1297SOL     OW13929   3.515   4.519   1.812
 1297SOL    HW113930   3.415   4.522   1.800
 1297SOL    HW213931   3.536   4.519   1.910
 1298SOL     OW13932   1.799   1.931   1.185
 1298SOL    HW113933   1.748   1.983   1.117
 1298SOL    HW213934   1.774   1.962   1.277
 1299SOL     OW13935   2.668   2.175   1.662
 1299SOL    HW113936   2.616   2.094   1.689
 1299SOL    HW213937   2.766   2.160   1.679
 1300SOL     OW13938   9.890   2.558   2.018
 1300SOL    HW113939   9.821   2.486   2.029
 1300SOL    HW213940   9.976   2.517   1.988
 1301SOL     OW13941   0.118   2.864   0.759
 1301SOL    HW113942   0.114   2.775   0.805
 1301SOL    HW213943   0.077   2.933   0.819
 1302SOL     OW13944   2.684   5.884   0.443
 1302SOL    HW113945   2.596   5.901   0.398
 1302SOL    HW213946   2.738   5.968   0.443
 1303SOL     OW13947   3.847   2.973   0.610
 1303SOL    HW113948   3.879   2.954   0.703
 1303SOL    HW213949   3.872   3.066   0.584
 1304SOL     OW13950   2.905   3.737   0.960
 1304SOL    HW113951   2.856   3.823   0.942
 1304SOL    HW213952   2.856   3.661   0.917
 1305SOL     OW13953   3.656   9.582   0.436
 1305SOL    HW113954   3.625   9.511   0.373
 1305SOL    HW213955   3.677   9.666   0.386
 1306SOL     OW13956   3.130   1.882   0.758
 1306SOL    HW113957   3.170   1.962   0.713
 1306SOL    HW213958   3.187   1.802   0.742
 1307SOL     OW13959   0.866   4.905   1.681
 1307SOL    HW113960   0.939   4.842   1.706
 1307SOL    HW213961   0.902   4.999   1.681
 1308SOL     OW13962   9.295   1.285   1.165
 1308SOL    HW113963   9.283   1.381   1.139
 1308SOL    HW213964   9.218   1.255   1.221
 1309SOL     OW13965   2.683   1.192   0.871
 1309SOL    HW113966   2.645   1.278   0.839
 1309SOL    HW213967   2.621   1.150   0.937
 1310SOL     OW13968   8.958   8.809   0.427
 1310SOL    HW113969   9.035   8.827   0.366
 1310SOL    HW213970   8.983   8.736   0.491
 1311SOL     OW13971   2.168   1.085   1.008
 1311SOL    HW113972   2.214   1.101   0.921
 1311SOL    HW213973   2.226   1.030   1.067
 1312SOL     OW13974   1.666   8.096   1.500
 1312SOL    HW113975   1.680   8.181   1.550
 1312SOL    HW213976   1.647   8.022   1.565
 1313SOL     OW13977   2.867   9.039   1.326
 1313SOL    HW113978   2.954   9.060   1.370
 1313SOL    HW213979   2.792   9.068   1.385
 1314SOL     OW13980   4.230   2.463   0.904
 1314SOL    HW113981   4.276   2.374   0.907
 1314SOL    HW213982   4.242   2.509   0.992
 1315SOL     OW13983   1.674   7.159   1.558
 1315SOL    HW113984   1.712   7.229   1.618
 1315SOL    HW213985   1.633   7.203   1.478
 1316SOL     OW13986   2.962   2.242   1.980
 1316SOL    HW113987   2.922   2.334   1.978
 1316SOL    HW213988   3.052   2.246   2.025
 1317SOL     OW13989   3.062   3.058   1.559
 1317SOL    HW113990   3.102   3.044   1.468
 1317SOL    HW213991   3.079   2.976   1.615
 1318SOL     OW13992   2.204   7.853   0.389
 1318SOL    HW113993   2.270   7.784   0.420
 1318SOL    HW213994   2.223   7.877   0.294
 1319SOL     OW13995   2.466   3.322   0.463
 1319SOL    HW113996   2.409   3.263   0.521
 1319SOL    HW213997   2.562   3.306   0.483
 1320SOL     OW13998   0.685   5.428   1.940
 1320SOL    HW113999   0.667   5.414   2.038
 1320SOL    HW214000   0.766   5.375   1.913
 1321SOL     OW14001   2.356   1.077   1.506
 1321SOL    HW114002   2.404   0.991   1.486
 1321SOL    HW214003   2.359   1.136   1.425
 1322SOL     OW14004   0.500   9.784   1.594
 1322SOL    HW114005   0.408   9.819   1.576
 1322SOL    HW214006   0.558   9.857   1.630
 1323SOL     OW14007   1.885   5.136   2.158
 1323SOL    HW114008   1.917   5.049   2.121
 1323SOL    HW214009   1.944   5.210   2.126
 1324SOL     OW14010   9.285   8.359   2.138
 1324SOL    HW114011   9.352   8.429   2.164
 1324SOL    HW214012   9.304   8.275   2.189
 1325SOL     OW14013   2.459   5.256   0.604
 1325SOL    HW114014   2.471   5.225   0.699
 1325SOL    HW214015   2.422   5.181   0.549
 1326SOL     OW14016   9.138   7.313   2.353
 1326SOL    HW114017   9.086   7.229   2.339
 1326SOL    HW214018   9.206   7.299   2.425
 1327SOL     OW14019   9.315   0.117   2.158
 1327SOL    HW114020   9.344   0.117   2.063
 1327SOL    HW214021   9.329   0.026   2.197
 1328SOL     OW14022   1.478   7.390   0.628
 1328SOL    HW114023   1.558   7.446   0.604
 1328SOL    HW214024   1.394   7.438   0.602
 1329SOL     OW14025   2.997   3.291   0.624
 1329SOL    HW114026   2.946   3.270   0.708
 1329SOL    HW214027   3.094   3.301   0.646
 1330SOL     OW14028   7.431   9.617   2.147
 1330SOL    HW114029   7.376   9.611   2.064
 1330SOL    HW214030   7.469   9.709   2.156
 1331SOL     OW14031   2.412   4.391   2.281
 1331SOL    HW114032   2.408   4.346   2.370
 1331SOL    HW214033   2.469   4.337   2.219
 1332SOL     OW14034   1.633   7.492   1.199
 1332SOL    HW114035   1.692   7.456   1.127
 1332SOL    HW214036   1.667   7.582   1.229
 1333SOL     OW14037   0.315   2.709   1.041
 1333SOL    HW114038   0.414   2.700   1.029
 1333SOL    HW214039   0.268   2.663   0.966
 1334SOL     OW14040   9.937   6.554   1.132
 1334SOL    HW114041   9.938   6.646   1.170
 1334SOL    HW214042   9.843   6.519   1.133
 1335SOL     OW14043   3.630   4.303   0.604
 1335SOL    HW114044   3.641   4.384   0.547
 1335SOL    HW214045   3.601   4.226   0.547
 1336SOL     OW14046   3.219   2.107   0.629
 1336SOL    HW114047   3.292   2.165   0.666
 1336SOL    HW214048   3.147   2.166   0.590
 1337SOL     OW14049   0.164   7.313   1.082
 1337SOL    HW114050   0.076   7.309   1.128
 1337SOL    HW214051   0.190   7.222   1.050
 1338SOL     OW14052   0.185   8.426   0.418
 1338SOL    HW114053   0.177   8.362   0.341
 1338SOL    HW214054   0.103   8.421   0.474
 1339SOL     OW14055   9.171   9.213   0.712
 1339SOL    HW114056   9.175   9.182   0.617
 1339SOL    HW214057   9.262   9.245   0.740
 1340SOL     OW14058   1.635   7.160   0.988
 1340SOL    HW114059   1.697   7.082   1.001
 1340SOL    HW214060   1.686   7.245   0.995
 1341SOL     OW14061   9.500   2.160   1.952
 1341SOL    HW114062   9.560   2.080   1.956
 1341SOL    HW214063   9.469   2.172   1.858
 1342SOL     OW14064   3.740   8.897   1.590
 1342SOL    HW114065   3.828   8.908   1.543
 1342SOL    HW214066   3.668   8.886   1.522
 1343SOL     OW14067   4.075   9.374   2.155
 1343SOL    HW114068   3.981   9.361   2.124
 1343SOL    HW214069   4.128   9.291   2.134
 1344SOL     OW14070   2.739   0.800   1.403
 1344SOL    HW114071   2.758   0.872   1.335
 1344SOL    HW214072   2.809   0.802   1.474
 1345SOL     OW14073   8.474   7.093   0.309
 1345SOL    HW114074   8.412   7.088   0.231
 1345SOL    HW214075   8.435   7.151   0.380
 1346SOL     OW14076   9.147   0.427   1.329
 1346SOL    HW114077   9.070   0.365   1.343
 1346SOL    HW214078   9.116   0.507   1.277
 1347SOL     OW14079   8.968   7.404   0.895
 1347SOL    HW114080   8.972   7.492   0.941
 1347SOL    HW214081   9.022   7.408   0.811
 1348SOL     OW14082   8.826   2.232   0.378
 1348SOL    HW114083   8.810   2.212   0.475
 1348SOL    HW214084   8.753   2.293   0.345
 1349SOL     OW14085   8.929   1.896   0.893
 1349SOL    HW114086   8.890   1.889   0.801
 1349SOL    HW214087   8.872   1.957   0.948
 1350SOL     OW14088   0.959   2.126   1.623
 1350SOL    HW114089   1.042   2.142   1.570
 1350SOL    HW214090   0.983   2.089   1.712
 1351SOL     OW14091   7.859   9.417   1.687
 1351SOL    HW114092   7.819   9.494   1.737
 1351SOL    HW214093   7.835   9.332   1.733
 1352SOL     OW14094   3.713   3.645   0.988
 1352SOL    HW114095   3.727   3.707   0.911
 1352SOL    HW214096   3.627   3.596   0.976
 1353SOL     OW14097   9.922   3.508   1.249
 1353SOL    HW114098   9.881   3.569   1.316
 1353SOL    HW214099   9.886   3.529   1.158
 1354SOL     OW14100   3.282   1.658   0.706
 1354SOL    HW114101   3.359   1.711   0.671
 1354SOL    HW214102   3.295   1.561   0.684
 1355SOL     OW14103   2.928   9.380   0.738
 1355SOL    HW114104   2.936   9.321   0.659
 1355SOL    HW214105   2.837   9.422   0.740
 1356SOL     OW14106   2.619   0.595   1.104
 1356SOL    HW114107   2.590   0.537   1.180
 1356SOL    HW214108   2.633   0.538   1.023
 1357SOL     OW14109   0.423   8.938   0.767
 1357SOL    HW114110   0.511   8.948   0.719
 1357SOL    HW214111   0.359   8.889   0.708
 1358SOL     OW14112   2.840   4.835   1.441
 1358SOL    HW114113   2.864   4.794   1.529
 1358SOL    HW214114   2.763   4.897   1.453
 1359SOL     OW14115   2.085   5.423   1.687
 1359SOL    HW114116   2.038   5.342   1.721
 1359SOL    HW214117   2.177   5.398   1.655
 1360SOL     OW14118   0.271   7.005   1.961
 1360SOL    HW114119   0.355   7.052   1.990
 1360SOL    HW214120   0.217   7.066   1.903
 1361SOL     OW14121   3.139   4.391   0.793
 1361SOL    HW114122   3.213   4.454   0.769
 1361SOL    HW214123   3.135   4.317   0.726
 1362SOL     OW14124   0.110   4.675   2.118
 1362SOL    HW114125   0.174   4.615   2.070
 1362SOL    HW214126   0.041   4.619   2.164
 1363SOL     OW14127   2.662   9.472   0.718
 1363SOL    HW114128   2.626   9.531   0.790
 1363SOL    HW214129   2.594   9.403   0.694
 1364SOL     OW14130   2.117   1.708   0.384
 1364SOL    HW114131   2.080   1.698   0.292
 1364SOL    HW214132   2.205   1.659   0.389
 1365SOL     OW14133   9.412   8.854   0.978
 1365SOL    HW114134   9.415   8.953   0.990
 1365SOL    HW214135   9.504   8.817   0.993
 1366SOL     OW14136   2.014   1.909   1.016
 1366SOL    HW114137   1.943   1.914   1.086
 1366SOL    HW214138   2.022   1.998   0.971
 1367SOL     OW14139   9.484   6.477   1.826
 1367SOL    HW114140   9.494   6.424   1.910
 1367SOL    HW214141   9.387   6.487   1.804
 1368SOL     OW14142   1.034   5.438   1.407
 1368SOL    HW114143   1.022   5.391   1.319
 1368SOL    HW214144   0.954   5.422   1.464
 1369SOL     OW14145   0.461   6.318   1.256
 1369SOL    HW114146   0.544   6.373   1.247
 1369SOL    HW214147   0.423   6.332   1.348
 1370SOL     OW14148   0.093   3.571   1.665
 1370SOL    HW114149   0.068   3.487   1.712
 1370SOL    HW214150   0.189   3.566   1.636
 1371SOL     OW14151   9.648   8.726   1.454
 1371SOL    HW114152   9.694   8.788   1.519
 1371SOL    HW214153   9.717   8.679   1.399
 1372SOL     OW14154   0.097   8.397   1.790
 1372SOL    HW114155   9.999   8.385   1.777
 1372SOL    HW214156   0.131   8.328   1.854
 1373SOL     OW14157   3.198   2.980   0.659
 1373SOL    HW114158   3.175   3.020   0.571
 1373SOL    HW214159   3.119   2.987   0.720
 1374SOL     OW14160   0.717   2.639   2.276
 1374SOL    HW114161   0.674   2.729   2.282
 1374SOL    HW214162   0.727   2.600   2.368
 1375SOL     OW14163   3.380   2.663   0.912
 1375SOL    HW114164   3.343   2.618   0.830
 1375SOL    HW214165   3.463   2.616   0.942
 1376SOL     OW14166   9.932   5.165   1.315
 1376SOL    HW114167   9.861   5.152   1.385
 1376SOL    HW214168   9.893   5.150   1.225
 1377SOL     OW14169   2.133   4.096   0.393
 1377SOL    HW114170   2.213   4.151   0.417
 1377SOL    HW214171   2.051   4.140   0.430
 1378SOL     OW14172   2.401   1.471   1.038
 1378SOL    HW114173   2.327   1.417   1.078
 1378SOL    HW214174   2.389   1.567   1.061
 1379SOL     OW14175   2.134   9.295   1.547
 1379SOL    HW114176   2.098   9.250   1.466
 1379SOL    HW214177   2.182   9.378   1.521
 1380SOL     OW14178   9.652   1.656   0.663
 1380SOL    HW114179   9.712   1.584   0.628
 1380SOL    HW214180   9.618   1.711   0.586
 1381SOL     OW14181   0.956   2.559   0.759
 1381SOL    HW114182   0.863   2.532   0.735
 1381SOL    HW214183   1.010   2.477   0.779
 1382SOL     OW14184   9.584   4.819   0.783
 1382SOL    HW114185   9.507   4.876   0.755
 1382SOL    HW214186   9.550   4.735   0.826
 1383SOL     OW14187   1.849   4.582   0.689
 1383SOL    HW114188   1.913   4.658   0.700
 1383SOL    HW214189   1.893   4.497   0.717
 1384SOL     OW14190   3.690   3.390   0.588
 1384SOL    HW114191   3.676   3.355   0.680
 1384SOL    HW214192   3.671   3.488   0.586
 1385SOL     OW14193   1.555   6.219   1.495
 1385SOL    HW114194   1.483   6.225   1.565
 1385SOL    HW214195   1.608   6.136   1.509
 1386SOL     OW14196   9.643   7.320   1.610
 1386SOL    HW114197   9.544   7.314   1.602
 1386SOL    HW214198   9.669   7.412   1.639
 1387SOL     OW14199   2.201   4.589   1.093
 1387SOL    HW114200   2.117   4.612   1.143
 1387SOL    HW214201   2.197   4.494   1.063
 1388SOL     OW14202   9.297   7.716   2.076
 1388SOL    HW114203   9.335   7.758   2.158
 1388SOL    HW214204   9.314   7.775   1.997
 1389SOL     OW14205   0.275   4.597   1.342
 1389SOL    HW114206   0.195   4.638   1.387
 1389SOL    HW214207   0.358   4.625   1.391
 1390SOL     OW14208   1.538   7.299   1.366
 1390SOL    HW114209   1.510   7.223   1.307
 1390SOL    HW214210   1.578   7.372   1.310
 1391SOL     OW14211   3.525   8.320   2.046
 1391SOL    HW114212   3.514   8.229   2.005
 1391SOL    HW214213   3.622   8.344   2.045
 1392SOL     OW14214   7.929   7.970   1.658
 1392SOL    HW114215   7.943   8.068   1.671
 1392SOL    HW214216   7.959   7.945   1.566
 1393SOL     OW14217   9.268   5.440   0.809
 1393SOL    HW114218   9.321   5.377   0.866
 1393SOL    HW214219   9.269   5.531   0.850
 1394SOL     OW14220   2.597   4.491   1.059
 1394SOL    HW114221   2.565   4.566   1.001
 1394SOL    HW214222   2.636   4.528   1.143
 1395SOL     OW14223   5.164   3.144   1.630
 1395SOL    HW114224   5.103   3.212   1.589
 1395SOL    HW214225   5.189   3.076   1.562
 1396SOL     OW14226   8.913   9.897   2.187
 1396SOL    HW114227   8.826   9.919   2.143
 1396SOL    HW214228   8.962   9.982   2.208
 1397SOL     OW14229   9.347   6.464   0.667
 1397SOL    HW114230   9.383   6.544   0.620
 1397SOL    HW214231   9.362   6.382   0.611
 1398SOL     OW14232   9.292   3.109   1.460
 1398SOL    HW114233   9.378   3.075   1.424
 1398SOL    HW214234   9.299   3.207   1.477
 1399SOL     OW14235   3.535   2.240   0.371
 1399SOL    HW114236   3.580   2.284   0.448
 1399SOL    HW214237   3.511   2.308   0.303
 1400SOL     OW14238   0.711   7.829   1.422
 1400SOL    HW114239   0.706   7.910   1.364
 1400SOL    HW214240   0.722   7.748   1.365
 1401SOL     OW14241   1.604   4.972   0.696
 1401SOL    HW114242   1.616   4.892   0.754
 1401SOL    HW214243   1.673   5.041   0.720
 1402SOL     OW14244   9.350   6.892   1.776
 1402SOL    HW114245   9.305   6.911   1.688
 1402SOL    HW214246   9.428   6.954   1.787
 1403SOL     OW14247   8.257   8.760   1.416
 1403SOL    HW114248   8.324   8.688   1.395
 1403SOL    HW214249   8.256   8.777   1.515
 1404SOL     OW14250   8.490   8.846   0.469
 1404SOL    HW114251   8.414   8.862   0.406
 1404SOL    HW214252   8.455   8.818   0.559
 1405SOL     OW14253   9.303   1.780   1.164
 1405SOL    HW114254   9.286   1.685   1.138
 1405SOL    HW214255   9.222   1.816   1.211
 1406SOL     OW14256   1.706   3.113   1.040
 1406SOL    HW114257   1.783   3.157   1.088
 1406SOL    HW214258   1.631   3.099   1.104
 1407SOL     OW14259   4.314   4.538   1.105
 1407SOL    HW114260   4.337   4.626   1.145
 1407SOL    HW214261   4.389   4.473   1.122
 1408SOL     OW14262   2.296   5.714   1.499
 1408SOL    HW114263   2.214   5.666   1.469
 1408SOL    HW214264   2.300   5.804   1.455
 1409SOL     OW14265   9.357   0.522   0.918
 1409SOL    HW114266   9.358   0.529   1.017
 1409SOL    HW214267   9.263   0.511   0.886
 1410SOL     OW14268   0.037   9.172   1.522
 1410SOL    HW114269   0.031   9.072   1.519
 1410SOL    HW214270   0.004   9.210   1.436
 1411SOL     OW14271   4.088   9.643   0.702
 1411SOL    HW114272   4.060   9.559   0.657
 1411SOL    HW214273   4.061   9.640   0.798
 1412SOL     OW14274   2.128   6.856   1.163
 1412SOL    HW114275   2.100   6.775   1.214
 1412SOL    HW214276   2.080   6.936   1.199
 1413SOL     OW14277   9.863   7.310   0.910
 1413SOL    HW114278   9.925   7.359   0.848
 1413SOL    HW214279   9.847   7.218   0.874
 1414SOL     OW14280   1.058   2.374   2.038
 1414SOL    HW114281   1.052   2.382   2.137
 1414SOL    HW214282   1.106   2.453   2.000
 1415SOL     OW14283   9.773   9.045   1.836
 1415SOL    HW114284   9.819   8.980   1.895
 1415SOL    HW214285   9.835   9.120   1.813
 1416SOL     OW14286   3.100   5.505   0.484
 1416SOL    HW114287   3.041   5.516   0.404
 1416SOL    HW214288   3.063   5.560   0.560
 1417SOL     OW14289   0.475   8.343   1.199
 1417SOL    HW114290   0.509   8.255   1.168
 1417SOL    HW214291   0.397   8.370   1.143
 1418SOL     OW14292   1.253   7.896   1.096
 1418SOL    HW114293   1.351   7.885   1.110
 1418SOL    HW214294   1.236   7.975   1.037
 1419SOL     OW14295   8.380   9.781   2.006
 1419SOL    HW114296   8.426   9.842   2.070
 1419SOL    HW214297   8.442   9.761   1.930
 1420SOL     OW14298   9.960   5.512   1.622
 1420SOL    HW114299   0.048   5.514   1.576
 1420SOL    HW214300   9.903   5.587   1.589
 1421SOL     OW14301   2.432   6.332   1.440
 1421SOL    HW114302   2.434   6.301   1.345
 1421SOL    HW214303   2.417   6.431   1.442
 1422SOL     OW14304   1.719   6.803   0.714
 1422SOL    HW114305   1.629   6.844   0.730
 1422SOL    HW214306   1.708   6.716   0.666
 1423SOL     OW14307   9.261   1.532   1.050
 1423SOL    HW114308   9.174   1.559   1.008
 1423SOL    HW214309   9.336   1.551   0.986
 1424SOL     OW14310   1.699   8.337   1.628
 1424SOL    HW114311   1.782   8.376   1.590
 1424SOL    HW214312   1.624   8.404   1.621
 1425SOL     OW14313   9.057   3.486   1.495
 1425SOL    HW114314   9.013   3.399   1.471
 1425SOL    HW214315   9.071   3.540   1.412
 1426SOL     OW14316   4.526   1.718   1.191
 1426SOL    HW114317   4.529   1.788   1.120
 1426SOL    HW214318   4.485   1.634   1.153
 1427SOL     OW14319   0.711   3.872   1.436
 1427SOL    HW114320   0.706   3.838   1.342
 1427SOL    HW214321   0.654   3.954   1.444
 1428SOL     OW14322   1.176   0.605   2.081
 1428SOL    HW114323   1.273   0.612   2.056
 1428SOL    HW214324   1.138   0.521   2.041
 1429SOL     OW14325   0.091   3.092   1.724
 1429SOL    HW114326   0.049   3.180   1.744
 1429SOL    HW214327   0.184   3.090   1.762
 1430SOL     OW14328   0.476   3.807   2.227
 1430SOL    HW114329   0.567   3.844   2.209
 1430SOL    HW214330   0.428   3.796   2.140
 1431SOL     OW14331   9.120   5.272   1.660
 1431SOL    HW114332   9.083   5.349   1.607
 1431SOL    HW214333   9.214   5.255   1.630
 1432SOL     OW14334   2.464   6.035   0.378
 1432SOL    HW114335   2.538   6.101   0.395
 1432SOL    HW214336   2.402   6.034   0.457
 1433SOL     OW14337   2.344   1.306   2.168
 1433SOL    HW114338   2.434   1.297   2.126
 1433SOL    HW214339   2.314   1.218   2.203
 1434SOL     OW14340   2.701   7.855   0.940
 1434SOL    HW114341   2.683   7.874   0.844
 1434SOL    HW214342   2.624   7.886   0.995
 1435SOL     OW14343   0.021   6.958   0.556
 1435SOL    HW114344   9.952   6.902   0.509
 1435SOL    HW214345   9.994   7.054   0.552
 1436SOL     OW14346   0.985   0.806   2.084
 1436SOL    HW114347   1.033   0.888   2.053
 1436SOL    HW214348   1.050   0.730   2.093
 1437SOL     OW14349   1.239   8.602   1.003
 1437SOL    HW114350   1.159   8.626   0.948
 1437SOL    HW214351   1.210   8.585   1.097
 1438SOL     OW14352   3.915   1.474   1.382
 1438SOL    HW114353   3.835   1.450   1.326
 1438SOL    HW214354   3.887   1.532   1.458
 1439SOL     OW14355   0.183   8.305   1.549
 1439SOL    HW114356   0.166   8.331   1.644
 1439SOL    HW214357   0.281   8.310   1.530
 1440SOL     OW14358   9.971   2.909   0.532
 1440SOL    HW114359   9.920   2.994   0.543
 1440SOL    HW214360   0.027   2.892   0.614
 1441SOL     OW14361   9.810   3.130   0.557
 1441SOL    HW114362   9.858   3.196   0.499
 1441SOL    HW214363   9.722   3.108   0.515
 1442SOL     OW14364   3.757   2.431   1.314
 1442SOL    HW114365   3.755   2.333   1.292
 1442SOL    HW214366   3.705   2.446   1.399
 1443SOL     OW14367   3.013   9.990   1.235
 1443SOL    HW114368   3.045   9.991   1.140
 1443SOL    HW214369   2.939   9.924   1.245
 1444SOL     OW14370   9.222   5.707   0.887
 1444SOL    HW114371   9.215   5.764   0.969
 1444SOL    HW214372   9.138   5.714   0.834
 1445SOL     OW14373   1.261   2.363   1.298
 1445SOL    HW114374   1.202   2.391   1.222
 1445SOL    HW214375   1.354   2.350   1.265
 1446SOL     OW14376   9.020   4.747   1.630
 1446SOL    HW114377   9.116   4.718   1.637
 1446SOL    HW214378   9.016   4.846   1.614
 1447SOL     OW14379   2.184   1.509   1.856
 1447SOL    HW114380   2.159   1.596   1.897
 1447SOL    HW214381   2.274   1.517   1.812
 1448SOL     OW14382   2.439   9.288   1.661
 1448SOL    HW114383   2.444   9.291   1.561
 1448SOL    HW214384   2.388   9.206   1.689
 1449SOL     OW14385   1.069   9.949   1.634
 1449SOL    HW114386   1.051   0.027   1.573
 1449SOL    HW214387   1.139   9.975   1.700
 1450SOL     OW14388   9.191   3.422   0.964
 1450SOL    HW114389   9.187   3.509   0.915
 1450SOL    HW214390   9.285   3.404   0.994
 1451SOL     OW14391   2.802   7.382   2.086
 1451SOL    HW114392   2.806   7.282   2.084
 1451SOL    HW214393   2.890   7.419   2.058
 1452SOL     OW14394   2.000   0.352   0.711
 1452SOL    HW114395   2.092   0.369   0.747
 1452SOL    HW214396   1.983   0.413   0.633
 1453SOL     OW14397   9.692   7.944   1.646
 1453SOL    HW114398   9.692   7.934   1.746
 1453SOL    HW214399   9.766   7.890   1.607
 1454SOL     OW14400   2.444   2.581   2.063
 1454SOL    HW114401   2.409   2.659   2.013
 1454SOL    HW214402   2.505   2.612   2.136
 1455SOL     OW14403   2.667   9.245   0.447
 1455SOL    HW114404   2.607   9.263   0.525
 1455SOL    HW214405   2.641   9.305   0.371
 1456SOL     OW14406   8.905   1.218   2.000
 1456SOL    HW114407   8.887   1.215   2.099
 1456SOL    HW214408   9.004   1.218   1.985
 1457SOL     OW14409   3.082   9.537   1.173
 1457SOL    HW114410   3.035   9.486   1.244
 1457SOL    HW214411   3.016   9.566   1.103
 1458SOL     OW14412   0.253   9.455   2.053
 1458SOL    HW114413   0.229   9.454   1.956
 1458SOL    HW214414   0.224   9.542   2.093
 1459SOL     OW14415   9.568   0.944   1.544
 1459SOL    HW114416   9.544   0.847   1.555
 1459SOL    HW214417   9.656   0.961   1.589
 1460SOL     OW14418   0.495   1.359   2.274
 1460SOL    HW114419   0.486   1.370   2.373
 1460SOL    HW214420   0.535   1.269   2.254
 1461SOL     OW14421   9.797   4.991   2.103
 1461SOL    HW114422   9.740   5.070   2.126
 1461SOL    HW214423   9.798   4.978   2.003
 1462SOL     OW14424   0.552   9.896   2.150
 1462SOL    HW114425   0.491   9.883   2.072
 1462SOL    HW214426   0.588   9.808   2.180
 1463SOL     OW14427   3.348   2.517   0.679
 1463SOL    HW114428   3.427   2.564   0.638
 1463SOL    HW214429   3.372   2.421   0.695
 1464SOL     OW14430   8.053   8.502   1.159
 1464SOL    HW114431   7.980   8.445   1.197
 1464SOL    HW214432   8.140   8.479   1.203
 1465SOL     OW14433   2.992   5.741   1.617
 1465SOL    HW114434   3.039   5.811   1.672
 1465SOL    HW214435   2.997   5.653   1.664
 1466SOL     OW14436   1.598   1.538   1.627
 1466SOL    HW114437   1.668   1.511   1.692
 1466SOL    HW214438   1.530   1.465   1.619
 1467SOL     OW14439   3.791   2.912   1.212
 1467SOL    HW114440   3.762   2.818   1.194
 1467SOL    HW214441   3.783   2.967   1.129
 1468SOL     OW14442   0.220   2.208   0.969
 1468SOL    HW114443   0.200   2.137   1.036
 1468SOL    HW214444   0.223   2.297   1.015
 1469SOL     OW14445   4.006   9.581   0.957
 1469SOL    HW114446   3.953   9.647   1.011
 1469SOL    HW214447   3.945   9.509   0.923
 1470SOL     OW14448   4.123   0.239   0.433
 1470SOL    HW114449   4.154   0.310   0.495
 1470SOL    HW214450   4.069   0.281   0.359
 1471SOL     OW14451   2.533   1.865   1.362
 1471SOL    HW114452   2.507   1.830   1.452
 1471SOL    HW214453   2.452   1.899   1.315
 1472SOL     OW14454   0.039   7.584   0.511
 1472SOL    HW114455   9.942   7.602   0.527
 1472SOL    HW214456   0.056   7.575   0.413
 1473SOL     OW14457   2.690   3.737   0.323
 1473SOL    HW114458   2.744   3.674   0.267
 1473SOL    HW214459   2.608   3.691   0.355
 1474SOL     OW14460   0.485   7.133   0.522
 1474SOL    HW114461   0.456   7.038   0.534
 1474SOL    HW214462   0.409   7.187   0.487
 1475SOL     OW14463   7.584   0.422   1.851
 1475SOL    HW114464   7.630   0.474   1.779
 1475SOL    HW214465   7.485   0.430   1.839
 1476SOL     OW14466   8.523   9.028   1.246
 1476SOL    HW114467   8.615   8.990   1.254
 1476SOL    HW214468   8.464   8.961   1.200
 1477SOL     OW14469   9.863   8.233   0.754
 1477SOL    HW114470   9.893   8.283   0.836
 1477SOL    HW214471   9.914   8.147   0.747
 1478SOL     OW14472   0.000   6.903   1.844
 1478SOL    HW114473   0.088   6.891   1.890
 1478SOL    HW214474   9.958   6.814   1.830
 1479SOL     OW14475   1.741   4.568   1.369
 1479SOL    HW114476   1.796   4.519   1.301
 1479SOL    HW214477   1.766   4.665   1.369
 1480SOL     OW14478   8.255   9.018   1.972
 1480SOL    HW114479   8.171   9.029   2.025
 1480SOL    HW214480   8.238   9.040   1.876
 1481SOL     OW14481   2.212   7.493   2.223
 1481SOL    HW114482   2.204   7.426   2.149
 1481SOL    HW214483   2.304   7.489   2.261
 1482SOL     OW14484   9.933   7.965   1.311
 1482SOL    HW114485   9.960   7.874   1.281
 1482SOL    HW214486   0.013   8.014   1.345
 1483SOL     OW14487   8.252   8.006   1.595
 1483SOL    HW114488   8.177   7.971   1.540
 1483SOL    HW214489   8.312   8.063   1.538
 1484SOL     OW14490   7.749   0.678   1.336
 1484SOL    HW114491   7.773   0.761   1.386
 1484SOL    HW214492   7.674   0.632   1.382
 1485SOL     OW14493   9.537   0.124   1.468
 1485SOL    HW114494   9.472   0.181   1.418
 1485SOL    HW214495   9.592   0.072   1.403
 1486SOL     OW14496   4.496   2.836   2.263
 1486SOL    HW114497   4.512   2.934   2.280
 1486SOL    HW214498   4.571   2.783   2.302
 1487SOL     OW14499   8.179   7.915   2.065
 1487SOL    HW114500   8.197   7.820   2.092
 1487SOL    HW214501   8.088   7.942   2.097
 1488SOL     OW14502   2.169   7.512   0.610
 1488SOL    HW114503   2.128   7.423   0.630
 1488SOL    HW214504   2.102   7.570   0.565
 1489SOL     OW14505   1.993   7.715   2.019
 1489SOL    HW114506   2.020   7.639   1.959
 1489SOL    HW214507   1.966   7.679   2.108
 1490SOL     OW14508   0.199   3.840   1.237
 1490SOL    HW114509   0.280   3.794   1.273
 1490SOL    HW214510   0.188   3.817   1.140
 1491SOL     OW14511   1.408   4.300   1.270
 1491SOL    HW114512   1.427   4.389   1.311
 1491SOL    HW214513   1.387   4.312   1.172
 1492SOL     OW14514   1.237   9.632   0.724
 1492SOL    HW114515   1.199   9.542   0.702
 1492SOL    HW214516   1.200   9.663   0.812
 1493SOL     OW14517   3.574   4.123   2.077
 1493SOL    HW114518   3.657   4.179   2.083
 1493SOL    HW214519   3.540   4.105   2.169
 1494SOL     OW14520   1.142   4.537   2.135
 1494SOL    HW114521   1.190   4.622   2.114
 1494SOL    HW214522   1.054   4.558   2.177
 1495SOL     OW14523   2.533   6.096   0.981
 1495SOL    HW114524   2.594   6.142   0.917
 1495SOL    HW214525   2.478   6.028   0.932
 1496SOL     OW14526   0.284   4.504   1.988
 1496SOL    HW114527   0.354   4.487   2.057
 1496SOL    HW214528   0.326   4.544   1.906
 1497SOL     OW14529   2.096   8.758   1.109
 1497SOL    HW114530   2.160   8.694   1.151
 1497SOL    HW214531   2.115   8.851   1.143
 1498SOL     OW14532   9.904   7.287   1.179
 1498SOL    HW114533   9.892   7.297   1.080
 1498SOL    HW214534   9.815   7.280   1.223
 1499SOL     OW14535   3.333   9.686   1.379
 1499SOL    HW114536   3.302   9.618   1.445
 1499SOL    HW214537   3.324   9.648   1.286
 1500SOL     OW14538   3.448   0.106   0.748
 1500SOL    HW114539   3.394   0.184   0.716
 1500SOL    HW214540   3.416   0.023   0.704
 1501SOL     OW14541   8.847   8.131   1.821
 1501SOL    HW114542   8.933   8.115   1.870
 1501SOL    HW214543   8.788   8.191   1.875
 1502SOL     OW14544   9.021   8.044   2.224
 1502SOL    HW114545   8.953   7.976   2.198
 1502SOL    HW214546   9.070   8.014   2.306
 1503SOL     OW14547   1.514   5.696   1.042
 1503SOL    HW114548   1.550   5.776   0.993
 1503SOL    HW214549   1.500   5.720   1.138
 1504SOL     OW14550   0.020   6.180   0.856
 1504SOL    HW114551   9.927   6.183   0.818
 1504SOL    HW214552   0.036   6.091   0.897
 1505SOL     OW14553   3.486   9.395   1.969
 1505SOL    HW114554   3.471   9.297   1.979
 1505SOL    HW214555   3.410   9.445   2.011
 1506SOL     OW14556   8.472   7.655   0.911
 1506SOL    HW114557   8.473   7.556   0.894
 1506SOL    HW214558   8.449   7.703   0.826
 1507SOL     OW14559   4.506   4.244   0.893
 1507SOL    HW114560   4.421   4.260   0.844
 1507SOL    HW214561   4.502   4.155   0.939
 1508SOL     OW14562   9.302   2.872   0.435
 1508SOL    HW114563   9.369   2.807   0.468
 1508SOL    HW214564   9.336   2.965   0.448
 1509SOL     OW14565   2.473   4.764   1.461
 1509SOL    HW114566   2.519   4.703   1.526
 1509SOL    HW214567   2.520   4.852   1.459
 1510SOL     OW14568   1.881   3.698   0.996
 1510SOL    HW114569   1.808   3.726   0.933
 1510SOL    HW214570   1.886   3.598   1.000
 1511SOL     OW14571   0.715   1.976   0.627
 1511SOL    HW114572   0.745   2.007   0.537
 1511SOL    HW214573   0.718   2.053   0.692
 1512SOL     OW14574   0.242   1.131   1.192
 1512SOL    HW114575   0.167   1.194   1.215
 1512SOL    HW214576   0.290   1.105   1.276
 1513SOL     OW14577   4.105   9.918   0.729
 1513SOL    HW114578   4.108   9.819   0.717
 1513SOL    HW214579   4.056   9.960   0.652
 1514SOL     OW14580   9.744   6.237   1.259
 1514SOL    HW114581   9.716   6.299   1.186
 1514SOL    HW214582   9.831   6.195   1.235
 1515SOL     OW14583   2.904   0.998   2.163
 1515SOL    HW114584   2.893   0.933   2.088
 1515SOL    HW214585   3.001   1.001   2.190
 1516SOL     OW14586   1.106   5.668   0.479
 1516SOL    HW114587   1.177   5.734   0.453
 1516SOL    HW214588   1.090   5.605   0.403
 1517SOL     OW14589   3.253   4.809   1.865
 1517SOL    HW114590   3.330   4.863   1.831
 1517SOL    HW214591   3.175   4.869   1.881
 1518SOL     OW14592   0.229   5.232   2.135
 1518SOL    HW114593   0.155   5.182   2.180
 1518SOL    HW214594   0.193   5.316   2.096
 1519SOL     OW14595   1.365   2.046   0.727
 1519SOL    HW114596   1.416   2.104   0.664
 1519SOL    HW214597   1.279   2.018   0.685
 1520SOL     OW14598   2.233   4.812   0.921
 1520SOL    HW114599   2.246   4.730   0.976
 1520SOL    HW214600   2.298   4.812   0.845
 1521SOL     OW14601   0.461   3.724   1.784
 1521SOL    HW114602   0.558   3.712   1.761
 1521SOL    HW214603   0.421   3.793   1.723
 1522SOL     OW14604   2.362   0.205   1.592
 1522SOL    HW114605   2.440   0.240   1.645
 1522SOL    HW214606   2.396   0.155   1.513
 1523SOL     OW14607   9.938   5.965   0.562
 1523SOL    HW114608   0.005   5.929   0.496
 1523SOL    HW214609   9.849   5.924   0.544
 1524SOL     OW14610   1.045   9.930   0.662
 1524SOL    HW114611   1.001   9.854   0.709
 1524SOL    HW214612   1.143   9.913   0.656
 1525SOL     OW14613   0.644   8.977   2.149
 1525SOL    HW114614   0.664   8.919   2.228
 1525SOL    HW214615   0.622   8.919   2.070
 1526SOL     OW14616   8.789   9.899   1.340
 1526SOL    HW114617   8.867   9.936   1.289
 1526SOL    HW214618   8.705   9.941   1.307
 1527SOL     OW14619   7.995   0.563   1.315
 1527SOL    HW114620   8.028   0.572   1.221
 1527SOL    HW214621   7.901   0.597   1.321
 1528SOL     OW14622   1.796   2.165   0.415
 1528SOL    HW114623   1.894   2.163   0.436
 1528SOL    HW214624   1.756   2.075   0.431
 1529SOL     OW14625   1.450   8.094   1.333
 1529SOL    HW114626   1.443   8.184   1.290
 1529SOL    HW214627   1.526   8.094   1.399
 1530SOL     OW14628   2.029   9.063   0.769
 1530SOL    HW114629   2.019   9.124   0.690
 1530SOL    HW214630   1.965   8.987   0.760
 1531SOL     OW14631   2.028   2.506   1.661
 1531SOL    HW114632   2.016   2.585   1.721
 1531SOL    HW214633   2.126   2.494   1.642
 1532SOL     OW14634   0.945   4.972   1.031
 1532SOL    HW114635   0.863   5.029   1.020
 1532SOL    HW214636   0.925   4.879   1.002
 1533SOL     OW14637   4.125   1.038   0.764
 1533SOL    HW114638   4.179   1.070   0.843
 1533SOL    HW214639   4.056   1.107   0.741
 1534SOL     OW14640   9.431   9.974   1.673
 1534SOL    HW114641   9.466   0.042   1.609
 1534SOL    HW214642   9.407   9.890   1.624
 1535SOL     OW14643   0.736   8.403   1.652
 1535SOL    HW114644   0.650   8.453   1.638
 1535SOL    HW214645   0.811   8.468   1.662
 1536SOL     OW14646   1.204   7.563   1.325
 1536SOL    HW114647   1.202   7.652   1.370
 1536SOL    HW214648   1.233   7.493   1.390
 1537SOL     OW14649   3.108   9.160   1.843
 1537SOL    HW114650   3.092   9.231   1.912
 1537SOL    HW214651   3.120   9.202   1.753
 1538SOL     OW14652   4.017   3.921   1.024
 1538SOL    HW114653   4.085   3.990   1.051
 1538SOL    HW214654   4.031   3.838   1.077
 1539SOL     OW14655   1.054   0.412   0.896
 1539SOL    HW114656   1.133   0.460   0.858
 1539SOL    HW214657   1.041   0.325   0.849
 1540SOL     OW14658   1.220   6.135   2.213
 1540SOL    HW114659   1.143   6.147   2.276
 1540SOL    HW214660   1.228   6.217   2.155
 1541SOL     OW14661   2.579   1.125   0.439
 1541SOL    HW114662   2.538   1.213   0.463
 1541SOL    HW214663   2.636   1.093   0.515
 1542SOL     OW14664   7.985   8.724   1.404
 1542SOL    HW114665   8.084   8.734   1.417
 1542SOL    HW214666   7.963   8.737   1.307
 1543SOL     OW14667   9.075   3.858   0.998
 1543SOL    HW114668   9.011   3.788   1.030
 1543SOL    HW214669   9.065   3.940   1.055
 1544SOL     OW14670   7.796   8.998   2.264
 1544SOL    HW114671   7.807   8.899   2.266
 1544SOL    HW214672   7.780   9.032   2.357
 1545SOL     OW14673   2.457   7.933   1.753
 1545SOL    HW114674   2.403   7.994   1.812
 1545SOL    HW214675   2.553   7.958   1.759
 1546SOL     OW14676   0.538   6.126   2.210
 1546SOL    HW114677   0.513   6.144   2.305
 1546SOL    HW214678   0.459   6.138   2.152
 1547SOL     OW14679   0.284   9.997   1.211
 1547SOL    HW114680   0.269   0.038   1.121
 1547SOL    HW214681   0.380   0.008   1.237
 1548SOL     OW14682   0.983   2.914   1.349
 1548SOL    HW114683   0.895   2.957   1.369
 1548SOL    HW214684   1.020   2.950   1.263
 1549SOL     OW14685   1.827   6.555   0.577
 1549SOL    HW114686   1.844   6.504   0.661
 1549SOL    HW214687   1.914   6.584   0.537
 1550SOL     OW14688   9.789   5.423   0.473
 1550SOL    HW114689   9.827   5.331   0.466
 1550SOL    HW214690   9.823   5.467   0.556
 1551SOL     OW14691   4.226   2.954   2.246
 1551SOL    HW114692   4.309   2.902   2.264
 1551SOL    HW214693   4.158   2.895   2.203
 1552SOL     OW14694   0.069   4.739   1.458
 1552SOL    HW114695   9.985   4.683   1.460
 1552SOL    HW214696   0.107   4.744   1.550
 1553SOL     OW14697   4.074   3.316   0.745
 1553SOL    HW114698   4.012   3.360   0.810
 1553SOL    HW214699   4.021   3.283   0.667
 1554SOL     OW14700   9.104   8.379   0.966
 1554SOL    HW114701   9.014   8.374   1.009
 1554SOL    HW214702   9.136   8.474   0.968
 1555SOL     OW14703   0.069   6.503   0.531
 1555SOL    HW114704   9.994   6.539   0.476
 1555SOL    HW214705   0.071   6.403   0.524
 1556SOL     OW14706   1.529   1.319   1.244
 1556SOL    HW114707   1.573   1.301   1.156
 1556SOL    HW214708   1.565   1.405   1.282
 1557SOL     OW14709   9.747   0.472   1.694
 1557SOL    HW114710   9.756   0.571   1.701
 1557SOL    HW214711   9.788   0.430   1.775
 1558SOL     OW14712   9.007   6.256   0.739
 1558SOL    HW114713   9.057   6.332   0.779
 1558SOL    HW214714   9.038   6.170   0.780
 1559SOL     OW14715   1.226   6.696   0.544
 1559SOL    HW114716   1.296   6.705   0.473
 1559SOL    HW214717   1.196   6.786   0.574
 1560SOL     OW14718   9.659   1.547   1.092
 1560SOL    HW114719   9.749   1.575   1.059
 1560SOL    HW214720   9.670   1.481   1.166
 1561SOL     OW14721   2.323   7.884   0.833
 1561SOL    HW114722   2.224   7.897   0.822
 1561SOL    HW214723   2.347   7.789   0.811
 1562SOL     OW14724   2.894   4.334   1.318
 1562SOL    HW114725   2.811   4.370   1.361
 1562SOL    HW214726   2.958   4.409   1.303
 1563SOL     OW14727   8.095   0.842   1.825
 1563SOL    HW114728   8.001   0.823   1.794
 1563SOL    HW214729   8.136   0.758   1.860
 1564SOL     OW14730   9.650   5.727   0.649
 1564SOL    HW114731   9.729   5.667   0.666
 1564SOL    HW214732   9.599   5.740   0.734
 1565SOL     OW14733   1.217   6.083   1.875
 1565SOL    HW114734   1.235   6.143   1.953
 1565SOL    HW214735   1.119   6.063   1.870
 1566SOL     OW14736   9.655   6.972   0.603
 1566SOL    HW114737   9.591   7.031   0.553
 1566SOL    HW214738   9.709   6.919   0.538
 1567SOL     OW14739   9.869   6.553   2.173
 1567SOL    HW114740   9.902   6.553   2.267
 1567SOL    HW214741   9.947   6.558   2.110
 1568SOL     OW14742   2.642   0.447   0.876
 1568SOL    HW114743   2.616   0.353   0.899
 1568SOL    HW214744   2.602   0.472   0.788
 1569SOL     OW14745   0.026   8.009   0.746
 1569SOL    HW114746   9.965   7.968   0.678
 1569SOL    HW214747   0.121   8.000   0.716
 1570SOL     OW14748   2.420   8.145   0.800
 1570SOL    HW114749   2.389   8.049   0.806
 1570SOL    HW214750   2.457   8.162   0.708
 1571SOL     OW14751   0.296   9.406   0.580
 1571SOL    HW114752   0.256   9.372   0.666
 1571SOL    HW214753   0.225   9.411   0.510
 1572SOL     OW14754   3.266   4.799   2.141
 1572SOL    HW114755   3.356   4.817   2.181
 1572SOL    HW214756   3.276   4.786   2.042
 1573SOL     OW14757   1.464   8.163   2.180
 1573SOL    HW114758   1.461   8.243   2.120
 1573SOL    HW214759   1.555   8.155   2.221
 1574SOL     OW14760   3.744   0.398   0.938
 1574SOL    HW114761   3.697   0.397   1.026
 1574SOL    HW214762   3.743   0.492   0.902
 1575SOL     OW14763   0.751   4.606   1.892
 1575SOL    HW114764   0.699   4.656   1.823
 1575SOL    HW214765   0.822   4.665   1.930
 1576SOL     OW14766   2.086   7.957   1.665
 1576SOL    HW114767   2.116   8.052   1.652
 1576SOL    HW214768   2.124   7.900   1.592
 1577SOL     OW14769   0.455   4.834   0.526
 1577SOL    HW114770   0.490   4.751   0.570
 1577SOL    HW214771   0.358   4.822   0.504
 1578SOL     OW14772   3.416   1.094   2.259
 1578SOL    HW114773   3.376   1.177   2.220
 1578SOL    HW214774   3.443   1.110   2.354
 1579SOL     OW14775   0.807   0.216   1.643
 1579SOL    HW114776   0.834   0.284   1.711
 1579SOL    HW214777   0.885   0.196   1.583
 1580SOL     OW14778   3.482   4.896   0.524
 1580SOL    HW114779   3.443   4.808   0.498
 1580SOL    HW214780   3.477   4.907   0.623
 1581SOL     OW14781   0.594   1.954   1.199
 1581SOL    HW114782   0.650   1.908   1.268
 1581SOL    HW214783   0.545   1.886   1.145
 1582SOL     OW14784   2.749   2.207   0.513
 1582SOL    HW114785   2.680   2.161   0.459
 1582SOL    HW214786   2.735   2.186   0.610
 1583SOL     OW14787   9.190   7.061   1.128
 1583SOL    HW114788   9.288   7.060   1.107
 1583SOL    HW214789   9.171   6.995   1.200
 1584SOL     OW14790   1.153   7.140   1.436
 1584SOL    HW114791   1.140   7.115   1.532
 1584SOL    HW214792   1.177   7.059   1.383
 1585SOL     OW14793   2.992   9.973   1.763
 1585SOL    HW114794   3.041   9.895   1.725
 1585SOL    HW214795   3.056   0.048   1.778
 1586SOL     OW14796   0.169   8.190   1.954
 1586SOL    HW114797   0.135   8.188   2.048
 1586SOL    HW214798   0.118   8.124   1.899
 1587SOL     OW14799   9.598   2.402   1.053
 1587SOL    HW114800   9.626   2.453   0.972
 1587SOL    HW214801   9.551   2.318   1.025
 1588SOL     OW14802   3.483   3.488   0.960
 1588SOL    HW114803   3.420   3.527   0.893
 1588SOL    HW214804   3.432   3.454   1.038
 1589SOL     OW14805   8.039   9.598   1.352
 1589SOL    HW114806   7.966   9.532   1.371
 1589SOL    HW214807   8.056   9.653   1.433
 1590SOL     OW14808   4.224   4.226   0.845
 1590SOL    HW114809   4.213   4.182   0.934
 1590SOL    HW214810   4.197   4.322   0.852
 1591SOL     OW14811   4.826   3.987   1.289
 1591SOL    HW114812   4.790   4.065   1.340
 1591SOL    HW214813   4.852   4.016   1.197
 1592SOL     OW14814   1.771   2.940   2.245
 1592SOL    HW114815   1.793   3.031   2.209
 1592SOL    HW214816   1.673   2.933   2.260
 1593SOL     OW14817   8.209   7.365   1.849
 1593SOL    HW114818   8.220   7.465   1.849
 1593SOL    HW214819   8.201   7.333   1.755
 1594SOL     OW14820   9.748   0.325   2.228
 1594SOL    HW114821   9.796   0.238   2.238
 1594SOL    HW214822   9.684   0.319   2.151
 1595SOL     OW14823   4.131   1.370   0.579
 1595SOL    HW114824   4.196   1.386   0.504
 1595SOL    HW214825   4.130   1.450   0.639
 1596SOL     OW14826   2.778   5.414   2.152
 1596SOL    HW114827   2.724   5.333   2.177
 1596SOL    HW214828   2.746   5.492   2.206
 1597SOL     OW14829   0.944   4.710   0.941
 1597SOL    HW114830   1.041   4.722   0.919
 1597SOL    HW214831   0.925   4.612   0.951
 1598SOL     OW14832   3.142   5.218   1.364
 1598SOL    HW114833   3.111   5.125   1.342
 1598SOL    HW214834   3.084   5.256   1.435
 1599SOL     OW14835   9.628   3.662   1.660
 1599SOL    HW114836   9.635   3.760   1.646
 1599SOL    HW214837   9.533   3.637   1.677
 1600SOL     OW14838   2.241   5.447   1.259
 1600SOL    HW114839   2.212   5.514   1.190
 1600SOL    HW214840   2.199   5.471   1.347
 1601SOL     OW14841   4.774   3.973   0.520
 1601SOL    HW114842   4.874   3.964   0.514
 1601SOL    HW214843   4.731   3.921   0.446
 1602SOL     OW14844   1.519   4.915   1.502
 1602SOL    HW114845   1.496   4.897   1.597
 1602SOL    HW214846   1.503   5.011   1.481
 1603SOL     OW14847   8.870   1.748   0.434
 1603SOL    HW114848   8.841   1.710   0.346
 1603SOL    HW214849   8.924   1.831   0.418
 1604SOL     OW14850   0.673   1.544   2.157
 1604SOL    HW114851   0.603   1.475   2.178
 1604SOL    HW214852   0.693   1.597   2.239
 1605SOL     OW14853   2.222   6.983   0.932
 1605SOL    HW114854   2.313   7.021   0.948
 1605SOL    HW214855   2.197   6.925   1.009
 1606SOL     OW14856   0.326   5.997   0.927
 1606SOL    HW114857   0.320   6.050   0.842
 1606SOL    HW214858   0.422   5.987   0.953
 1607SOL     OW14859   8.413   0.715   0.644
 1607SOL    HW114860   8.326   0.674   0.615
 1607SOL    HW214861   8.484   0.645   0.643
 1608SOL     OW14862   9.959   5.764   1.300
 1608SOL    HW114863   9.997   5.671   1.294
 1608SOL    HW214864   0.031   5.827   1.330
 1609SOL     OW14865   0.496   0.736   2.013
 1609SOL    HW114866   0.494   0.650   2.064
 1609SOL    HW214867   0.420   0.739   1.948
 1610SOL     OW14868   0.702   5.637   1.459
 1610SOL    HW114869   0.655   5.580   1.527
 1610SOL    HW214870   0.643   5.645   1.378
 1611SOL     OW14871   2.257   3.670   1.447
 1611SOL    HW114872   2.184   3.669   1.516
 1611SOL    HW214873   2.239   3.744   1.382
 1612SOL     OW14874   9.310   3.378   1.521
 1612SOL    HW114875   9.225   3.425   1.498
 1612SOL    HW214876   9.319   3.372   1.620
 1613SOL     OW14877   3.838   4.655   0.828
 1613SOL    HW114878   3.840   4.677   0.731
 1613SOL    HW214879   3.923   4.609   0.854
 1614SOL     OW14880   0.750   6.060   0.776
 1614SOL    HW114881   0.732   6.086   0.681
 1614SOL    HW214882   0.801   6.133   0.822
 1615SOL     OW14883   3.891   0.526   0.407
 1615SOL    HW114884   3.989   0.542   0.392
 1615SOL    HW214885   3.880   0.439   0.456
 1616SOL     OW14886   8.853   3.580   1.656
 1616SOL    HW114887   8.884   3.567   1.751
 1616SOL    HW214888   8.926   3.553   1.593
 1617SOL     OW14889   8.438   7.987   2.122
 1617SOL    HW114890   8.438   8.012   2.218
 1617SOL    HW214891   8.344   7.968   2.093
 1618SOL     OW14892   4.655   2.470   1.456
 1618SOL    HW114893   4.682   2.382   1.497
 1618SOL    HW214894   4.730   2.503   1.398
 1619SOL     OW14895   9.680   1.956   1.954
 1619SOL    HW114896   9.763   1.994   1.915
 1619SOL    HW214897   9.703   1.891   2.026
 1620SOL     OW14898   1.938   2.560   2.072
 1620SOL    HW114899   1.939   2.466   2.105
 1620SOL    HW214900   1.961   2.622   2.148
 1621SOL     OW14901   8.046   1.165   2.141
 1621SOL    HW114902   7.990   1.083   2.154
 1621SOL    HW214903   8.003   1.242   2.188
 1622SOL     OW14904   0.642   4.348   0.938
 1622SOL    HW114905   0.580   4.425   0.923
 1622SOL    HW214906   0.591   4.272   0.978
 1623SOL     OW14907   0.296   7.256   2.291
 1623SOL    HW114908   0.260   7.297   2.375
 1623SOL    HW214909   0.223   7.254   2.222
 1624SOL     OW14910   1.537   3.585   1.055
 1624SOL    HW114911   1.542   3.514   1.126
 1624SOL    HW214912   1.567   3.547   0.968
 1625SOL     OW14913   9.004   7.092   2.276
 1625SOL    HW114914   8.943   7.109   2.199
 1625SOL    HW214915   9.081   7.036   2.245
 1626SOL     OW14916   1.378   7.532   1.109
 1626SOL    HW114917   1.317   7.539   1.188
 1626SOL    HW214918   1.470   7.510   1.139
 1627SOL     OW14919   4.311   4.002   2.022
 1627SOL    HW114920   4.238   3.941   1.992
 1627SOL    HW214921   4.287   4.044   2.110
 1628SOL     OW14922   1.466   8.662   0.587
 1628SOL    HW114923   1.369   8.679   0.569
 1628SOL    HW214924   1.521   8.708   0.517
 1629SOL     OW14925   9.547   5.630   1.518
 1629SOL    HW114926   9.568   5.534   1.532
 1629SOL    HW214927   9.467   5.655   1.573
 1630SOL     OW14928   2.444   8.842   0.651
 1630SOL    HW114929   2.504   8.895   0.591
 1630SOL    HW214930   2.401   8.768   0.599
 1631SOL     OW14931   9.894   6.861   0.967
 1631SOL    HW114932   9.979   6.862   0.914
 1631SOL    HW214933   9.916   6.851   1.064
 1632SOL     OW14934   1.544   7.372   2.066
 1632SOL    HW114935   1.596   7.441   2.117
 1632SOL    HW214936   1.607   7.314   2.014
 1633SOL     OW14937   2.047   9.153   1.319
 1633SOL    HW114938   2.016   9.183   1.229
 1633SOL    HW214939   2.120   9.085   1.309
 1634SOL     OW14940   0.943   3.971   1.537
 1634SOL    HW114941   0.858   3.933   1.499
 1634SOL    HW214942   1.021   3.926   1.493
 1635SOL     OW14943   2.174   6.194   1.269
 1635SOL    HW114944   2.109   6.171   1.196
 1635SOL    HW214945   2.258   6.228   1.229
 1636SOL     OW14946   9.886   5.164   0.480
 1636SOL    HW114947   9.826   5.097   0.437
 1636SOL    HW214948   9.881   5.154   0.580
 1637SOL     OW14949   0.216   7.500   2.004
 1637SOL    HW114950   0.281   7.453   1.945
 1637SOL    HW214951   0.190   7.588   1.963
 1638SOL     OW14952   2.741   7.298   1.045
 1638SOL    HW114953   2.654   7.303   1.093
 1638SOL    HW214954   2.784   7.388   1.043
 1639SOL     OW14955   3.818   8.677   0.354
 1639SOL    HW114956   3.805   8.583   0.385
 1639SOL    HW214957   3.901   8.715   0.394
 1640SOL     OW14958   8.191   0.504   0.600
 1640SOL    HW114959   8.205   0.456   0.513
 1640SOL    HW214960   8.174   0.438   0.672
 1641SOL     OW14961   0.115   4.512   0.488
 1641SOL    HW114962   0.070   4.432   0.448
 1641SOL    HW214963   0.058   4.549   0.562
 1642SOL     OW14964   0.936   6.975   1.813
 1642SOL    HW114965   0.930   6.881   1.780
 1642SOL    HW214966   1.014   7.020   1.771
 1643SOL     OW14967   1.916   5.209   1.206
 1643SOL    HW114968   1.855   5.131   1.193
 1643SOL    HW214969   2.011   5.178   1.204
 1644SOL     OW14970   0.073   4.322   2.008
 1644SOL    HW114971   0.143   4.392   1.994
 1644SOL    HW214972   0.115   4.232   2.001
 1645SOL     OW14973   0.553   5.292   1.399
 1645SOL    HW114974   0.572   5.206   1.351
 1645SOL    HW214975   0.476   5.338   1.355
 1646SOL     OW14976   7.245   9.244   0.581
 1646SOL    HW114977   7.237   9.201   0.491
 1646SOL    HW214978   7.340   9.271   0.597
 1647SOL     OW14979   9.498   6.297   2.037
 1647SOL    HW114980   9.431   6.303   2.110
 1647SOL    HW214981   9.575   6.241   2.066
 1648SOL     OW14982   9.208   5.681   0.506
 1648SOL    HW114983   9.240   5.586   0.503
 1648SOL    HW214984   9.286   5.741   0.521
 1649SOL     OW14985   1.675   2.022   1.413
 1649SOL    HW114986   1.590   1.970   1.409
 1649SOL    HW214987   1.731   1.990   1.489
 1650SOL     OW14988   2.221   3.903   0.730
 1650SOL    HW114989   2.264   3.993   0.721
 1650SOL    HW214990   2.291   3.833   0.742
 1651SOL     OW14991   1.883   1.302   0.859
 1651SOL    HW114992   1.906   1.379   0.918
 1651SOL    HW214993   1.798   1.322   0.809
 1652SOL     OW14994   4.226   3.140   1.105
 1652SOL    HW114995   4.323   3.162   1.119
 1652SOL    HW214996   4.212   3.110   1.011
 1653SOL     OW14997   3.944   2.506   1.114
 1653SOL    HW114998   3.882   2.476   1.186
 1653SOL    HW214999   3.997   2.584   1.147
 1654SOL     OW15000   1.029   6.476   0.829
 1654SOL    HW115001   0.981   6.521   0.753
 1654SOL    HW215002   1.121   6.452   0.800
 1655SOL     OW15003   3.631   3.657   0.619
 1655SOL    HW115004   3.677   3.717   0.685
 1655SOL    HW215005   3.538   3.691   0.604
 1656SOL     OW15006   1.338   5.873   1.743
 1656SOL    HW115007   1.424   5.859   1.792
 1656SOL    HW215008   1.284   5.944   1.790
 1657SOL     OW15009   1.376   5.928   2.123
 1657SOL    HW115010   1.322   5.844   2.134
 1657SOL    HW215011   1.326   6.005   2.164
 1658SOL     OW15012   1.919   2.701   0.847
 1658SOL    HW115013   1.830   2.677   0.808
 1658SOL    HW215014   1.915   2.795   0.881
 1659SOL     OW15015   3.461   9.872   1.220
 1659SOL    HW115016   3.411   9.864   1.134
 1659SOL    HW215017   3.415   9.815   1.289
 1660SOL     OW15018   8.675   1.536   2.033
 1660SOL    HW115019   8.665   1.453   1.977
 1660SOL    HW215020   8.748   1.593   1.995
 1661SOL     OW15021   0.594   5.831   2.040
 1661SOL    HW115022   0.668   5.887   2.079
 1661SOL    HW215023   0.629   5.778   1.963
 1662SOL     OW15024   8.341   9.097   0.779
 1662SOL    HW115025   8.363   9.125   0.686
 1662SOL    HW215026   8.424   9.071   0.827
 1663SOL     OW15027   3.590   2.499   1.530
 1663SOL    HW115028   3.574   2.463   1.622
 1663SOL    HW215029   3.506   2.490   1.475
 1664SOL     OW15030   0.449   9.571   1.763
 1664SOL    HW115031   0.471   9.647   1.702
 1664SOL    HW215032   0.350   9.558   1.766
 1665SOL     OW15033   0.909   1.514   2.015
 1665SOL    HW115034   0.814   1.517   2.046
 1665SOL    HW215035   0.960   1.447   2.069
 1666SOL     OW15036   1.103   5.700   1.326
 1666SOL    HW115037   1.088   5.607   1.360
 1666SOL    HW215038   1.172   5.746   1.382
 1667SOL     OW15039   9.696   0.864   0.901
 1667SOL    HW115040   9.674   0.961   0.909
 1667SOL    HW215041   9.721   0.828   0.991
 1668SOL     OW15042   9.757   6.470   0.820
 1668SOL    HW115043   9.784   6.459   0.724
 1668SOL    HW215044   9.726   6.563   0.836
 1669SOL     OW15045   2.158   8.515   2.088
 1669SOL    HW115046   2.150   8.567   2.173
 1669SOL    HW215047   2.128   8.571   2.012
 1670SOL     OW15048   2.756   4.911   0.897
 1670SOL    HW115049   2.683   4.929   0.963
 1670SOL    HW215050   2.813   4.836   0.931
 1671SOL     OW15051   8.934   0.260   1.384
 1671SOL    HW115052   8.841   0.269   1.350
 1671SOL    HW215053   8.933   0.256   1.484
 1672SOL     OW15054   9.952   6.821   1.232
 1672SOL    HW115055   0.041   6.866   1.238
 1672SOL    HW215056   9.893   6.854   1.306
 1673SOL     OW15057   8.803   0.296   2.179
 1673SOL    HW115058   8.885   0.243   2.200
 1673SOL    HW215059   8.789   0.298   2.080
 1674SOL     OW15060   1.254   1.638   1.094
 1674SOL    HW115061   1.279   1.732   1.070
 1674SOL    HW215062   1.262   1.580   1.013
 1675SOL     OW15063   3.613   1.754   1.925
 1675SOL    HW115064   3.638   1.783   2.017
 1675SOL    HW215065   3.656   1.815   1.858
 1676SOL     OW15066   9.814   7.116   1.650
 1676SOL    HW115067   9.851   7.132   1.741
 1676SOL    HW215068   9.764   7.198   1.620
 1677SOL     OW15069   0.614   3.011   0.404
 1677SOL    HW115070   0.647   2.963   0.323
 1677SOL    HW215071   0.662   2.978   0.485
 1678SOL     OW15072   8.756   1.924   1.831
 1678SOL    HW115073   8.658   1.907   1.836
 1678SOL    HW215074   8.786   1.917   1.735
 1679SOL     OW15075   8.894   2.573   2.086
 1679SOL    HW115076   8.833   2.495   2.098
 1679SOL    HW215077   8.965   2.549   2.019
 1680SOL     OW15078   8.164   0.281   0.390
 1680SOL    HW115079   8.249   0.240   0.423
 1680SOL    HW215080   8.164   0.282   0.290
 1681SOL     OW15081   1.057   6.890   2.044
 1681SOL    HW115082   0.994   6.924   1.974
 1681SOL    HW215083   1.143   6.863   2.001
 1682SOL     OW15084   0.898   5.486   2.270
 1682SOL    HW115085   0.949   5.502   2.354
 1682SOL    HW215086   0.899   5.570   2.214
 1683SOL     OW15087   8.600   1.069   1.478
 1683SOL    HW115088   8.587   1.057   1.576
 1683SOL    HW215089   8.661   1.148   1.462
 1684SOL     OW15090   7.890   8.907   0.904
 1684SOL    HW115091   7.967   8.931   0.845
 1684SOL    HW215092   7.847   8.990   0.939
 1685SOL     OW15093   2.641   6.954   1.297
 1685SOL    HW115094   2.545   6.945   1.269
 1685SOL    HW215095   2.646   7.011   1.379
 1686SOL     OW15096   2.841   1.041   1.730
 1686SOL    HW115097   2.847   1.102   1.650
 1686SOL    HW215098   2.752   1.053   1.774
 1687SOL     OW15099   1.124   6.246   0.581
 1687SOL    HW115100   1.170   6.195   0.509
 1687SOL    HW215101   1.180   6.324   0.609
 1688SOL     OW15102   8.365   8.690   0.973
 1688SOL    HW115103   8.326   8.760   1.033
 1688SOL    HW215104   8.457   8.667   1.004
 1689SOL     OW15105   1.682   2.624   0.733
 1689SOL    HW115106   1.608   2.690   0.722
 1689SOL    HW215107   1.644   2.534   0.753
 1690SOL     OW15108   1.369   8.979   0.522
 1690SOL    HW115109   1.375   8.978   0.622
 1690SOL    HW215110   1.359   9.074   0.491
 1691SOL     OW15111   1.495   6.657   1.920
 1691SOL    HW115112   1.589   6.687   1.936
 1691SOL    HW215113   1.490   6.606   1.834
 1692SOL     OW15114   0.270   0.400   1.434
 1692SOL    HW115115   0.293   0.420   1.339
 1692SOL    HW215116   0.199   0.464   1.465
 1693SOL     OW15117   9.945   4.475   2.202
 1693SOL    HW115118   9.986   4.408   2.140
 1693SOL    HW215119   9.846   4.476   2.191
 1694SOL     OW15120   1.187   5.640   1.738
 1694SOL    HW115121   1.218   5.582   1.663
 1694SOL    HW215122   1.244   5.722   1.743
 1695SOL     OW15123   0.855   1.025   0.842
 1695SOL    HW115124   0.815   0.941   0.877
 1695SOL    HW215125   0.799   1.103   0.872
 1696SOL     OW15126   1.333   1.629   1.352
 1696SOL    HW115127   1.307   1.625   1.256
 1696SOL    HW215128   1.252   1.617   1.409
 1697SOL     OW15129   0.272   0.215   0.378
 1697SOL    HW115130   0.179   0.241   0.352
 1697SOL    HW215131   0.291   0.248   0.471
 1698SOL     OW15132   8.413   8.701   1.807
 1698SOL    HW115133   8.413   8.726   1.903
 1698SOL    HW215134   8.465   8.769   1.755
 1699SOL     OW15135   0.561   2.836   0.784
 1699SOL    HW115136   0.564   2.776   0.865
 1699SOL    HW215137   0.485   2.809   0.725
 1700SOL     OW15138   4.557   2.270   2.041
 1700SOL    HW115139   4.610   2.343   2.085
 1700SOL    HW215140   4.482   2.243   2.101
 1701SOL     OW15141   8.433   1.152   0.489
 1701SOL    HW115142   8.402   1.096   0.567
 1701SOL    HW215143   8.520   1.194   0.511
 1702SOL     OW15144   3.093   9.715   1.667
 1702SOL    HW115145   3.171   9.659   1.640
 1702SOL    HW215146   3.022   9.708   1.597
 1703SOL     OW15147   4.288   1.981   1.077
 1703SOL    HW115148   4.214   1.920   1.106
 1703SOL    HW215149   4.351   1.931   1.017
 1704SOL     OW15150   3.717   9.834   1.316
 1704SOL    HW115151   3.626   9.835   1.275
 1704SOL    HW215152   3.729   9.916   1.372
 1705SOL     OW15153   0.073   6.968   1.581
 1705SOL    HW115154   0.026   7.034   1.523
 1705SOL    HW215155   0.025   6.960   1.669
 1706SOL     OW15156   1.401   8.828   1.012
 1706SOL    HW115157   1.342   8.877   1.076
 1706SOL    HW215158   1.364   8.737   0.995
 1707SOL     OW15159   9.519   3.873   1.017
 1707SOL    HW115160   9.546   3.777   1.013
 1707SOL    HW215161   9.596   3.929   1.046
 1708SOL     OW15162   1.204   9.595   1.832
 1708SOL    HW115163   1.106   9.578   1.819
 1708SOL    HW215164   1.240   9.647   1.755
 1709SOL     OW15165   1.247   3.534   0.509
 1709SOL    HW115166   1.307   3.613   0.503
 1709SOL    HW215167   1.155   3.559   0.478
 1710SOL     OW15168   3.471   2.821   1.287
 1710SOL    HW115169   3.504   2.824   1.381
 1710SOL    HW215170   3.505   2.902   1.238
 1711SOL     OW15171   8.666   6.840   0.588
 1711SOL    HW115172   8.762   6.810   0.591
 1711SOL    HW215173   8.606   6.762   0.599
 1712SOL     OW15174   9.861   9.552   0.551
 1712SOL    HW115175   9.779   9.525   0.500
 1712SOL    HW215176   9.834   9.585   0.641
 1713SOL     OW15177   0.161   6.497   1.300
 1713SOL    HW115178   0.099   6.507   1.221
 1713SOL    HW215179   0.109   6.511   1.384
 1714SOL     OW15180   2.289   2.441   1.627
 1714SOL    HW115181   2.346   2.383   1.568
 1714SOL    HW215182   2.312   2.425   1.722
 1715SOL     OW15183   9.703   4.316   1.166
 1715SOL    HW115184   9.725   4.382   1.095
 1715SOL    HW215185   9.772   4.320   1.239
 1716SOL     OW15186   0.518   8.559   1.589
 1716SOL    HW115187   0.523   8.637   1.528
 1716SOL    HW215188   0.465   8.583   1.670
 1717SOL     OW15189   8.097   8.521   1.637
 1717SOL    HW115190   8.194   8.512   1.616
 1717SOL    HW215191   8.054   8.431   1.640
 1718SOL     OW15192   9.346   3.643   1.725
 1718SOL    HW115193   9.268   3.702   1.746
 1718SOL    HW215194   9.321   3.547   1.739
 1719SOL     OW15195   3.104   3.826   0.359
 1719SOL    HW115196   3.061   3.868   0.279
 1719SOL    HW215197   3.173   3.888   0.396
 1720SOL     OW15198   2.145   4.509   0.695
 1720SOL    HW115199   2.237   4.494   0.732
 1720SOL    HW215200   2.121   4.606   0.704
 1721SOL     OW15201   2.003   5.969   2.016
 1721SOL    HW115202   2.057   5.898   2.060
 1721SOL    HW215203   2.050   6.057   2.024
 1722SOL     OW15204   9.330   8.847   2.017
 1722SOL    HW115205   9.314   8.946   2.016
 1722SOL    HW215206   9.413   8.826   1.965
 1723SOL     OW15207   2.757   6.080   1.687
 1723SOL    HW115208   2.681   6.040   1.737
 1723SOL    HW215209   2.780   6.022   1.609
 1724SOL     OW15210   2.665   6.603   1.555
 1724SOL    HW115211   2.659   6.648   1.644
 1724SOL    HW215212   2.681   6.505   1.568
 1725SOL     OW15213   2.853   8.633   1.454
 1725SOL    HW115214   2.930   8.674   1.503
 1725SOL    HW215215   2.829   8.690   1.375
 1726SOL     OW15216   2.126   5.579   1.906
 1726SOL    HW115217   2.044   5.636   1.915
 1726SOL    HW215218   2.117   5.519   1.826
 1727SOL     OW15219   0.042   7.416   0.727
 1727SOL    HW115220   0.126   7.429   0.779
 1727SOL    HW215221   0.040   7.482   0.651
 1728SOL     OW15222   3.935   1.107   1.561
 1728SOL    HW115223   4.004   1.162   1.514
 1728SOL    HW215224   3.979   1.028   1.605
 1729SOL     OW15225   2.418   2.753   0.939
 1729SOL    HW115226   2.457   2.780   1.028
 1729SOL    HW215227   2.411   2.654   0.934
 1730SOL     OW15228   4.701   2.232   1.571
 1730SOL    HW115229   4.702   2.205   1.667
 1730SOL    HW215230   4.644   2.169   1.519
 1731SOL     OW15231   9.466   4.051   1.817
 1731SOL    HW115232   9.468   3.988   1.895
 1731SOL    HW215233   9.370   4.071   1.794
 1732SOL     OW15234   8.211   8.097   1.850
 1732SOL    HW115235   8.199   8.026   1.920
 1732SOL    HW215236   8.246   8.056   1.766
 1733SOL     OW15237   0.577   4.113   1.408
 1733SOL    HW115238   0.633   4.146   1.332
 1733SOL    HW215239   0.591   4.171   1.488
 1734SOL     OW15240   7.712   0.335   2.270
 1734SOL    HW115241   7.687   0.359   2.364
 1734SOL    HW215242   7.662   0.253   2.243
 1735SOL     OW15243   0.139   3.806   0.967
 1735SOL    HW115244   0.058   3.827   0.912
 1735SOL    HW215245   0.182   3.723   0.932
 1736SOL     OW15246   1.184   9.154   1.815
 1736SOL    HW115247   1.241   9.234   1.833
 1736SOL    HW215248   1.241   9.077   1.788
 1737SOL     OW15249   0.027   2.678   1.444
 1737SOL    HW115250   0.030   2.732   1.528
 1737SOL    HW215251   0.111   2.694   1.391
 1738SOL     OW15252   4.262   0.787   1.587
 1738SOL    HW115253   4.277   0.727   1.508
 1738SOL    HW215254   4.267   0.733   1.671
 1739SOL     OW15255   1.581   3.474   0.804
 1739SOL    HW115256   1.591   3.375   0.806
 1739SOL    HW215257   1.628   3.512   0.724
 1740SOL     OW15258   2.470   0.820   1.488
 1740SOL    HW115259   2.565   0.814   1.457
 1740SOL    HW215260   2.419   0.741   1.453
 1741SOL     OW15261   4.105   9.655   1.283
 1741SOL    HW115262   4.017   9.645   1.329
 1741SOL    HW215263   4.133   9.567   1.245
 1742SOL     OW15264   2.384   2.850   1.972
 1742SOL    HW115265   2.457   2.918   1.976
 1742SOL    HW215266   2.310   2.876   2.034
 1743SOL     OW15267   9.982   3.065   0.911
 1743SOL    HW115268   9.914   3.127   0.951
 1743SOL    HW215269   0.024   3.010   0.983
 1744SOL     OW15270   1.953   7.207   2.111
 1744SOL    HW115271   1.953   7.109   2.130
 1744SOL    HW215272   1.938   7.258   2.196
 1745SOL     OW15273   9.125   2.104   0.585
 1745SOL    HW115274   9.136   2.105   0.685
 1745SOL    HW215275   9.113   2.198   0.552
 1746SOL     OW15276   9.462   7.135   0.494
 1746SOL    HW115277   9.415   7.115   0.408
 1746SOL    HW215278   9.401   7.115   0.571
 1747SOL     OW15279   4.551   3.919   1.265
 1747SOL    HW115280   4.509   3.842   1.314
 1747SOL    HW215281   4.650   3.916   1.279
 1748SOL     OW15282   0.946   0.587   0.582
 1748SOL    HW115283   0.878   0.559   0.514
 1748SOL    HW215284   1.026   0.526   0.576
 1749SOL     OW15285   9.717   3.283   1.589
 1749SOL    HW115286   9.810   3.309   1.563
 1749SOL    HW215287   9.651   3.326   1.527
 1750SOL     OW15288   0.994   1.560   1.755
 1750SOL    HW115289   0.959   1.552   1.848
 1750SOL    HW215290   0.934   1.512   1.692
 1751SOL     OW15291   0.997   1.318   2.192
 1751SOL    HW115292   0.934   1.249   2.159
 1751SOL    HW215293   0.990   1.326   2.291
 1752SOL     OW15294   4.219   8.558   1.698
 1752SOL    HW115295   4.239   8.653   1.724
 1752SOL    HW215296   4.304   8.505   1.696
 1753SOL     OW15297   8.725   7.888   1.792
 1753SOL    HW115298   8.773   7.975   1.801
 1753SOL    HW215299   8.792   7.814   1.787
 1754SOL     OW15300   9.487   7.869   1.465
 1754SOL    HW115301   9.393   7.888   1.492
 1754SOL    HW215302   9.549   7.901   1.537
 1755SOL     OW15303   3.053   4.549   1.280
 1755SOL    HW115304   2.975   4.607   1.257
 1755SOL    HW215305   3.115   4.543   1.202
 1756SOL     OW15306   0.201   6.040   1.829
 1756SOL    HW115307   0.181   5.944   1.850
 1756SOL    HW215308   0.147   6.069   1.750
 1757SOL     OW15309   8.853   5.377   2.003
 1757SOL    HW115310   8.754   5.388   2.004
 1757SOL    HW215311   8.897   5.460   2.038
 1758SOL     OW15312   3.019   8.789   0.787
 1758SOL    HW115313   3.107   8.746   0.803
 1758SOL    HW215314   3.033   8.880   0.747
 1759SOL     OW15315   0.755   5.180   1.055
 1759SOL    HW115316   0.830   5.228   1.100
 1759SOL    HW215317   0.693   5.143   1.123
 1760SOL     OW15318   9.815   2.391   1.761
 1760SOL    HW115319   9.909   2.374   1.729
 1760SOL    HW215320   9.764   2.438   1.690
 1761SOL     OW15321   9.156   9.906   0.665
 1761SOL    HW115322   9.072   9.959   0.657
 1761SOL    HW215323   9.232   9.958   0.626
 1762SOL     OW15324   8.599   1.242   2.161
 1762SOL    HW115325   8.608   1.341   2.172
 1762SOL    HW215326   8.529   1.222   2.092
 1763SOL     OW15327   1.266   6.100   0.405
 1763SOL    HW115328   1.351   6.149   0.384
 1763SOL    HW215329   1.281   6.002   0.400
 1764SOL     OW15330   8.582   9.593   0.837
 1764SOL    HW115331   8.494   9.614   0.880
 1764SOL    HW215332   8.654   9.645   0.883
 1765SOL     OW15333   1.676   8.209   0.510
 1765SOL    HW115334   1.581   8.239   0.503
 1765SOL    HW215335   1.728   8.274   0.566
 1766SOL     OW15336   2.603   9.671   0.526
 1766SOL    HW115337   2.643   9.594   0.577
 1766SOL    HW215338   2.538   9.719   0.585
 1767SOL     OW15339   1.392   4.017   0.385
 1767SOL    HW115340   1.369   4.001   0.289
 1767SOL    HW215341   1.340   4.095   0.419
 1768SOL     OW15342   8.227   0.621   1.925
 1768SOL    HW115343   8.207   0.550   1.859
 1768SOL    HW215344   8.225   0.582   2.017
 1769SOL     OW15345   0.886   4.625   2.219
 1769SOL    HW115346   0.818   4.669   2.277
 1769SOL    HW215347   0.903   4.682   2.138
 1770SOL     OW15348   2.348   0.850   0.815
 1770SOL    HW115349   2.328   0.948   0.809
 1770SOL    HW215350   2.421   0.827   0.751
 1771SOL     OW15351   2.696   8.388   0.720
 1771SOL    HW115352   2.755   8.465   0.698
 1771SOL    HW215353   2.725   8.347   0.806
 1772SOL     OW15354   8.300   2.036   2.063
 1772SOL    HW115355   8.387   2.080   2.086
 1772SOL    HW215356   8.295   1.947   2.108
 1773SOL     OW15357   0.728   6.639   1.003
 1773SOL    HW115358   0.680   6.725   0.988
 1773SOL    HW215359   0.826   6.656   1.007
 1774SOL     OW15360   0.712   1.228   0.951
 1774SOL    HW115361   0.745   1.286   1.026
 1774SOL    HW215362   0.632   1.272   0.909
 1775SOL     OW15363   9.169   0.337   1.788
 1775SOL    HW115364   9.131   0.416   1.835
 1775SOL    HW215365   9.220   0.367   1.708
 1776SOL     OW15366   1.077   1.072   1.510
 1776SOL    HW115367   1.031   1.089   1.597
 1776SOL    HW215368   1.161   1.021   1.526
 1777SOL     OW15369   3.859   3.633   2.204
 1777SOL    HW115370   3.878   3.666   2.112
 1777SOL    HW215371   3.780   3.682   2.241
 1778SOL     OW15372   0.575   6.865   0.966
 1778SOL    HW115373   0.544   6.960   0.961
 1778SOL    HW215374   0.506   6.804   0.928
 1779SOL     OW15375   3.078   9.652   0.378
 1779SOL    HW115376   3.024   9.715   0.321
 1779SOL    HW215377   3.101   9.698   0.464
 1780SOL     OW15378   0.276   6.139   2.081
 1780SOL    HW115379   0.252   6.112   1.988
 1780SOL    HW215380   0.194   6.174   2.127
 1781SOL     OW15381   8.069   0.952   0.368
 1781SOL    HW115382   7.969   0.958   0.359
 1781SOL    HW215383   8.099   1.008   0.445
 1782SOL     OW15384   8.867   7.011   1.421
 1782SOL    HW115385   8.802   7.001   1.346
 1782SOL    HW215386   8.833   7.078   1.487
 1783SOL     OW15387   1.231   1.761   2.161
 1783SOL    HW115388   1.132   1.763   2.149
 1783SOL    HW215389   1.263   1.852   2.187
 1784SOL     OW15390   7.685   9.145   0.624
 1784SOL    HW115391   7.659   9.060   0.671
 1784SOL    HW215392   7.611   9.211   0.631
 1785SOL     OW15393   0.329   0.199   1.675
 1785SOL    HW115394   0.287   0.157   1.595
 1785SOL    HW215395   0.266   0.267   1.713
 1786SOL     OW15396   2.947   5.633   0.672
 1786SOL    HW115397   2.906   5.550   0.711
 1786SOL    HW215398   2.974   5.694   0.746
 1787SOL     OW15399   9.603   3.074   2.037
 1787SOL    HW115400   9.598   3.144   1.966
 1787SOL    HW215401   9.694   3.031   2.035
 1788SOL     OW15402   1.869   9.051   1.503
 1788SOL    HW115403   1.786   9.018   1.459
 1788SOL    HW215404   1.931   9.088   1.435
 1789SOL     OW15405   2.677   9.549   1.928
 1789SOL    HW115406   2.730   9.469   1.899
 1789SOL    HW215407   2.693   9.567   2.025
 1790SOL     OW15408   0.343   5.873   2.126
 1790SOL    HW115409   0.439   5.854   2.101
 1790SOL    HW215410   0.326   5.971   2.118
 1791SOL     OW15411   3.246   4.024   1.308
 1791SOL    HW115412   3.284   4.009   1.217
 1791SOL    HW215413   3.146   4.027   1.302
 1792SOL     OW15414   2.574   7.625   0.654
 1792SOL    HW115415   2.496   7.621   0.716
 1792SOL    HW215416   2.611   7.718   0.653
 1793SOL     OW15417   9.320   6.274   2.247
 1793SOL    HW115418   9.318   6.175   2.261
 1793SOL    HW215419   9.228   6.306   2.226
 1794SOL     OW15420   8.133   0.184   2.055
 1794SOL    HW115421   8.224   0.207   2.091
 1794SOL    HW215422   8.066   0.248   2.093
 1795SOL     OW15423   7.830   9.987   1.235
 1795SOL    HW115424   7.869   9.964   1.325
 1795SOL    HW215425   7.749   9.930   1.219
 1796SOL     OW15426   1.800   6.984   0.521
 1796SOL    HW115427   1.781   6.926   0.601
 1796SOL    HW215428   1.730   7.054   0.513
 1797SOL     OW15429   1.503   8.332   1.181
 1797SOL    HW115430   1.575   8.266   1.158
 1797SOL    HW215431   1.447   8.349   1.100
 1798SOL     OW15432   3.264   4.013   0.503
 1798SOL    HW115433   3.227   4.082   0.440
 1798SOL    HW215434   3.218   4.022   0.592
 1799SOL     OW15435   9.194   5.585   1.938
 1799SOL    HW115436   9.208   5.682   1.955
 1799SOL    HW215437   9.219   5.564   1.843
 1800SOL     OW15438   1.372   6.982   0.489
 1800SOL    HW115439   1.386   6.905   0.426
 1800SOL    HW215440   1.276   6.986   0.514
 1801SOL     OW15441   3.498   9.499   1.715
 1801SOL    HW115442   3.497   9.457   1.806
 1801SOL    HW215443   3.592   9.521   1.689
 1802SOL     OW15444   1.018   9.361   1.065
 1802SOL    HW115445   1.117   9.373   1.075
 1802SOL    HW215446   0.977   9.350   1.156
 1803SOL     OW15447   9.759   5.053   1.627
 1803SOL    HW115448   9.778   4.982   1.694
 1803SOL    HW215449   9.791   5.141   1.662
 1804SOL     OW15450   1.361   7.517   1.924
 1804SOL    HW115451   1.430   7.463   1.972
 1804SOL    HW215452   1.278   7.523   1.979
 1805SOL     OW15453   1.428   0.020   0.858
 1805SOL    HW115454   1.411   0.119   0.864
 1805SOL    HW215455   1.479   9.990   0.938
 1806SOL     OW15456   2.851   3.812   1.753
 1806SOL    HW115457   2.882   3.879   1.686
 1806SOL    HW215458   2.760   3.837   1.786
 1807SOL     OW15459   0.182   6.712   1.601
 1807SOL    HW115460   0.148   6.805   1.590
 1807SOL    HW215461   0.115   6.647   1.566
 1808SOL     OW15462   3.326   8.150   0.722
 1808SOL    HW115463   3.266   8.096   0.781
 1808SOL    HW215464   3.290   8.150   0.629
 1809SOL     OW15465   4.386   4.245   1.913
 1809SOL    HW115466   4.354   4.155   1.943
 1809SOL    HW215467   4.393   4.246   1.813
 1810SOL     OW15468   3.465   8.591   1.644
 1810SOL    HW115469   3.448   8.677   1.692
 1810SOL    HW215470   3.463   8.607   1.546
 1811SOL     OW15471   9.965   2.398   1.182
 1811SOL    HW115472   9.890   2.407   1.248
 1811SOL    HW215473   0.048   2.370   1.229
 1812SOL     OW15474   3.533   4.094   0.465
 1812SOL    HW115475   3.438   4.062   0.474
 1812SOL    HW215476   3.593   4.017   0.448
 1813SOL     OW15477   9.809   4.917   0.903
 1813SOL    HW115478   9.847   4.843   0.959
 1813SOL    HW215479   9.725   4.886   0.859
 1814SOL     OW15480   3.085   3.483   2.020
 1814SOL    HW115481   3.156   3.554   2.015
 1814SOL    HW215482   3.124   3.395   1.995
 1815SOL     OW15483   3.564   4.670   0.885
 1815SOL    HW115484   3.661   4.659   0.863
 1815SOL    HW215485   3.553   4.679   0.984
 1816SOL     OW15486   2.336   8.642   0.491
 1816SOL    HW115487   2.400   8.625   0.416
 1816SOL    HW215488   2.253   8.684   0.455
 1817SOL     OW15489   9.226   3.282   2.158
 1817SOL    HW115490   9.195   3.188   2.145
 1817SOL    HW215491   9.323   3.283   2.180
 1818SOL     OW15492   2.652   4.173   1.508
 1818SOL    HW115493   2.738   4.124   1.526
 1818SOL    HW215494   2.575   4.119   1.543
 1819SOL     OW15495   0.825   2.713   1.881
 1819SOL    HW115496   0.831   2.613   1.869
 1819SOL    HW215497   0.738   2.746   1.844
 1820SOL     OW15498   7.823   8.501   1.495
 1820SOL    HW115499   7.901   8.563   1.488
 1820SOL    HW215500   7.805   8.481   1.592
 1821SOL     OW15501   1.213   4.769   0.878
 1821SOL    HW115502   1.229   4.753   0.781
 1821SOL    HW215503   1.212   4.868   0.895
 1822SOL     OW15504   3.309   2.115   1.097
 1822SOL    HW115505   3.275   2.175   1.170
 1822SOL    HW215506   3.381   2.162   1.047
 1823SOL     OW15507   3.606   3.764   2.230
 1823SOL    HW115508   3.536   3.693   2.232
 1823SOL    HW215509   3.615   3.800   2.137
 1824SOL     OW15510   4.120   0.665   0.954
 1824SOL    HW115511   4.103   0.592   0.888
 1824SOL    HW215512   4.059   0.742   0.935
 1825SOL     OW15513   0.407   1.085   1.865
 1825SOL    HW115514   0.348   1.052   1.791
 1825SOL    HW215515   0.361   1.075   1.952
 1826SOL     OW15516   1.165   7.656   0.998
 1826SOL    HW115517   1.244   7.597   1.019
 1826SOL    HW215518   1.178   7.746   1.040
 1827SOL     OW15519   2.832   4.622   1.923
 1827SOL    HW115520   2.849   4.656   2.015
 1827SOL    HW215521   2.768   4.546   1.926
 1828SOL     OW15522   0.185   0.697   1.270
 1828SOL    HW115523   0.253   0.625   1.254
 1828SOL    HW215524   0.205   0.743   1.357
 1829SOL     OW15525   0.165   3.382   1.210
 1829SOL    HW115526   0.195   3.376   1.305
 1829SOL    HW215527   0.080   3.434   1.205
 1830SOL     OW15528   3.136   8.549   1.725
 1830SOL    HW115529   3.126   8.636   1.677
 1830SOL    HW215530   3.226   8.545   1.768
 1831SOL     OW15531   1.043   9.068   2.038
 1831SOL    HW115532   0.963   9.123   2.062
 1831SOL    HW215533   1.090   9.110   1.960
 1832SOL     OW15534   2.746   8.469   1.835
 1832SOL    HW115535   2.823   8.521   1.872
 1832SOL    HW215536   2.717   8.401   1.902
 1833SOL     OW15537   9.467   2.679   1.881
 1833SOL    HW115538   9.436   2.709   1.791
 1833SOL    HW215539   9.562   2.705   1.895
 1834SOL     OW15540   2.772   0.270   1.481
 1834SOL    HW115541   2.742   0.365   1.493
 1834SOL    HW215542   2.729   0.232   1.399
 1835SOL     OW15543   4.792   3.067   0.738
 1835SOL    HW115544   4.797   2.973   0.703
 1835SOL    HW215545   4.773   3.129   0.661
 1836SOL     OW15546   0.291   6.435   1.883
 1836SOL    HW115547   0.358   6.379   1.931
 1836SOL    HW215548   0.338   6.491   1.815
 1837SOL     OW15549   1.033   8.813   1.946
 1837SOL    HW115550   1.030   8.902   1.991
 1837SOL    HW215551   0.948   8.764   1.962
 1838SOL     OW15552   2.165   2.452   1.229
 1838SOL    HW115553   2.108   2.484   1.153
 1838SOL    HW215554   2.178   2.353   1.221
 1839SOL     OW15555   9.271   7.453   1.984
 1839SOL    HW115556   9.187   7.418   2.027
 1839SOL    HW215557   9.294   7.542   2.024
 1840SOL     OW15558   8.663   1.317   0.484
 1840SOL    HW115559   8.718   1.390   0.526
 1840SOL    HW215560   8.606   1.356   0.411
 1841SOL     OW15561   4.234   4.658   0.678
 1841SOL    HW115562   4.280   4.583   0.630
 1841SOL    HW215563   4.182   4.713   0.612
 1842SOL     OW15564   4.110   9.013   0.642
 1842SOL    HW115565   4.114   9.098   0.694
 1842SOL    HW215566   4.200   8.993   0.603
 1843SOL     OW15567   3.794   0.640   1.582
 1843SOL    HW115568   3.734   0.719   1.596
 1843SOL    HW215569   3.852   0.627   1.663
 1844SOL     OW15570   2.624   1.209   1.279
 1844SOL    HW115571   2.676   1.284   1.319
 1844SOL    HW215572   2.526   1.226   1.293
 1845SOL     OW15573   1.112   3.143   0.462
 1845SOL    HW115574   1.021   3.156   0.501
 1845SOL    HW215575   1.178   3.199   0.511
 1846SOL     OW15576   2.051   7.900   0.810
 1846SOL    HW115577   2.036   7.978   0.872
 1846SOL    HW215578   1.992   7.824   0.838
 1847SOL     OW15579   7.657   9.330   1.231
 1847SOL    HW115580   7.715   9.380   1.296
 1847SOL    HW215581   7.578   9.386   1.208
 1848SOL     OW15582   9.072   2.340   1.224
 1848SOL    HW115583   9.120   2.265   1.270
 1848SOL    HW215584   9.094   2.337   1.126
 1849SOL     OW15585   8.967   8.896   0.885
 1849SOL    HW115586   8.980   8.898   0.984
 1849SOL    HW215587   9.044   8.848   0.842
 1850SOL     OW15588   1.055   4.175   2.064
 1850SOL    HW115589   1.005   4.250   2.021
 1850SOL    HW215590   1.044   4.180   2.163
 1851SOL     OW15591   8.031   1.231   1.743
 1851SOL    HW115592   8.086   1.154   1.711
 1851SOL    HW215593   7.937   1.220   1.711
 1852SOL     OW15594   9.567   4.651   0.421
 1852SOL    HW115595   9.483   4.702   0.439
 1852SOL    HW215596   9.640   4.685   0.480
 1853SOL     OW15597   1.342   2.893   1.155
 1853SOL    HW115598   1.347   2.844   1.069
 1853SOL    HW215599   1.250   2.930   1.167
 1854SOL     OW15600   2.586   3.907   2.272
 1854SOL    HW115601   2.655   3.978   2.264
 1854SOL    HW215602   2.547   3.909   2.364
 1855SOL     OW15603   2.716   9.900   0.424
 1855SOL    HW115604   2.640   9.961   0.448
 1855SOL    HW215605   2.688   9.805   0.438
 1856SOL     OW15606   4.776   3.476   0.516
 1856SOL    HW115607   4.770   3.377   0.508
 1856SOL    HW215608   4.694   3.517   0.475
 1857SOL     OW15609   1.474   7.098   1.202
 1857SOL    HW115610   1.523   7.119   1.118
 1857SOL    HW215611   1.448   7.001   1.202
 1858SOL     OW15612   8.175   8.776   1.695
 1858SOL    HW115613   8.125   8.693   1.669
 1858SOL    HW215614   8.259   8.751   1.743
 1859SOL     OW15615   1.523   1.428   0.533
 1859SOL    HW115616   1.606   1.464   0.490
 1859SOL    HW215617   1.474   1.371   0.468
 1860SOL     OW15618   2.423   0.885   1.759
 1860SOL    HW115619   2.379   0.815   1.815
 1860SOL    HW215620   2.442   0.849   1.668
 1861SOL     OW15621   9.145   8.677   1.909
 1861SOL    HW115622   9.202   8.733   1.968
 1861SOL    HW215623   9.183   8.675   1.817
 1862SOL     OW15624   0.102   3.114   1.244
 1862SOL    HW115625   0.122   3.209   1.221
 1862SOL    HW215626   0.004   3.103   1.258
 1863SOL     OW15627   9.529   5.022   1.486
 1863SOL    HW115628   9.548   5.004   1.390
 1863SOL    HW215629   9.614   5.030   1.537
 1864SOL     OW15630   2.138   4.357   2.221
 1864SOL    HW115631   2.121   4.389   2.128
 1864SOL    HW215632   2.233   4.375   2.246
 1865SOL     OW15633   1.350   8.949   1.739
 1865SOL    HW115634   1.313   8.868   1.695
 1865SOL    HW215635   1.446   8.961   1.713
 1866SOL     OW15636   0.733   5.749   1.044
 1866SOL    HW115637   0.678   5.721   1.123
 1866SOL    HW215638   0.829   5.753   1.071
 1867SOL     OW15639   9.801   3.514   1.819
 1867SOL    HW115640   9.741   3.564   1.756
 1867SOL    HW215641   9.764   3.519   1.911
 1868SOL     OW15642   1.744   2.270   1.311
 1868SOL    HW115643   1.821   2.316   1.356
 1868SOL    HW215644   1.726   2.183   1.357
 1869SOL     OW15645   4.162   2.133   0.566
 1869SOL    HW115646   4.195   2.225   0.590
 1869SOL    HW215647   4.079   2.141   0.511
 1870SOL     OW15648   1.571   6.058   1.048
 1870SOL    HW115649   1.585   6.004   0.965
 1870SOL    HW215650   1.474   6.058   1.071
 1871SOL     OW15651   3.144   8.399   2.095
 1871SOL    HW115652   3.195   8.397   2.182
 1871SOL    HW215653   3.206   8.425   2.021
 1872SOL     OW15654   9.802   3.025   1.562
 1872SOL    HW115655   9.890   3.015   1.609
 1872SOL    HW215656   9.765   3.116   1.580
 1873SOL     OW15657   3.272   2.384   1.900
 1873SOL    HW115658   3.255   2.315   1.970
 1873SOL    HW215659   3.217   2.363   1.819
 1874SOL     OW15660   8.927   0.673   0.740
 1874SOL    HW115661   8.877   0.654   0.655
 1874SOL    HW215662   8.905   0.765   0.772
 1875SOL     OW15663   9.768   7.601   0.550
 1875SOL    HW115664   9.726   7.634   0.634
 1875SOL    HW215665   9.730   7.512   0.526
 1876SOL     OW15666   0.234   3.343   1.468
 1876SOL    HW115667   0.286   3.405   1.527
 1876SOL    HW215668   0.256   3.248   1.491
 1877SOL     OW15669   0.470   5.048   1.767
 1877SOL    HW115670   0.396   5.051   1.700
 1877SOL    HW215671   0.520   5.134   1.765
 1878SOL     OW15672   9.502   0.779   1.834
 1878SOL    HW115673   9.415   0.810   1.795
 1878SOL    HW215674   9.529   0.841   1.908
 1879SOL     OW15675   2.994   2.552   1.667
 1879SOL    HW115676   2.902   2.515   1.679
 1879SOL    HW215677   3.060   2.477   1.666
 1880SOL     OW15678   0.408   5.466   2.280
 1880SOL    HW115679   0.501   5.443   2.253
 1880SOL    HW215680   0.365   5.387   2.324
 1881SOL     OW15681   1.680   2.997   1.434
 1881SOL    HW115682   1.631   2.944   1.504
 1881SOL    HW215683   1.757   2.943   1.400
 1882SOL     OW15684   0.087   2.422   0.649
 1882SOL    HW115685   0.049   2.343   0.696
 1882SOL    HW215686   0.165   2.394   0.594
 1883SOL     OW15687   0.482   0.704   1.003
 1883SOL    HW115688   0.415   0.653   0.950
 1883SOL    HW215689   0.438   0.783   1.045
 1884SOL     OW15690   8.559   7.420   2.269
 1884SOL    HW115691   8.477   7.397   2.217
 1884SOL    HW215692   8.578   7.348   2.336
 1885SOL     OW15693   9.106   0.764   2.084
 1885SOL    HW115694   9.117   0.694   2.155
 1885SOL    HW215695   9.140   0.851   2.118
 1886SOL     OW15696   1.287   0.533   0.829
 1886SOL    HW115697   1.329   0.597   0.765
 1886SOL    HW215698   1.320   0.552   0.922
 1887SOL     OW15699   9.708   6.580   0.464
 1887SOL    HW115700   9.609   6.590   0.455
 1887SOL    HW215701   9.730   6.487   0.493
 1888SOL     OW15702   9.109   9.098   1.803
 1888SOL    HW115703   9.144   9.088   1.896
 1888SOL    HW215704   9.011   9.119   1.807
 1889SOL     OW15705   2.857   3.990   1.530
 1889SOL    HW115706   2.913   3.996   1.447
 1889SOL    HW215707   2.786   3.921   1.516
 1890SOL     OW15708   0.494   4.706   1.485
 1890SOL    HW115709   0.505   4.771   1.560
 1890SOL    HW215710   0.561   4.633   1.495
 1891SOL     OW15711   0.720   6.131   0.514
 1891SOL    HW115712   0.767   6.220   0.514
 1891SOL    HW215713   0.748   6.079   0.434
 1892SOL     OW15714   4.445   2.162   1.207
 1892SOL    HW115715   4.386   2.094   1.164
 1892SOL    HW215716   4.484   2.124   1.291
 1893SOL     OW15717   0.849   6.855   0.631
 1893SOL    HW115718   0.854   6.880   0.728
 1893SOL    HW215719   0.803   6.928   0.580
 1894SOL     OW15720   9.109   6.978   1.911
 1894SOL    HW115721   9.187   6.946   1.858
 1894SOL    HW215722   9.066   7.055   1.863
 1895SOL     OW15723   9.421   9.134   1.014
 1895SOL    HW115724   9.332   9.171   1.041
 1895SOL    HW215725   9.494   9.195   1.045
 1896SOL     OW15726   8.980   7.637   1.039
 1896SOL    HW115727   9.000   7.616   1.134
 1896SOL    HW215728   9.016   7.728   1.016
 1897SOL     OW15729   1.251   4.130   1.420
 1897SOL    HW115730   1.290   4.143   1.511
 1897SOL    HW215731   1.302   4.185   1.354
 1898SOL     OW15732   8.506   9.717   1.754
 1898SOL    HW115733   8.548   9.643   1.702
 1898SOL    HW215734   8.439   9.765   1.698
 1899SOL     OW15735   1.378   6.260   0.903
 1899SOL    HW115736   1.333   6.201   0.836
 1899SOL    HW215737   1.366   6.221   0.995
 1900SOL     OW15738   9.747   2.158   0.883
 1900SOL    HW115739   9.804   2.146   0.964
 1900SOL    HW215740   9.651   2.154   0.910
 1901SOL     OW15741   1.361   1.587   0.685
 1901SOL    HW115742   1.412   1.523   0.628
 1901SOL    HW215743   1.416   1.670   0.699
 1902SOL     OW15744   2.675   6.461   1.913
 1902SOL    HW115745   2.666   6.551   1.871
 1902SOL    HW215746   2.612   6.397   1.870
 1903SOL     OW15747   9.046   0.643   1.187
 1903SOL    HW115748   9.028   0.740   1.204
 1903SOL    HW215749   9.013   0.618   1.096
 1904SOL     OW15750   8.020   0.081   0.537
 1904SOL    HW115751   7.925   0.110   0.533
 1904SOL    HW215752   8.078   0.147   0.489
 1905SOL     OW15753   0.940   5.415   0.798
 1905SOL    HW115754   0.890   5.394   0.882
 1905SOL    HW215755   0.875   5.427   0.723
 1906SOL     OW15756   1.254   7.909   1.383
 1906SOL    HW115757   1.320   7.984   1.379
 1906SOL    HW215758   1.217   7.892   1.291
 1907SOL     OW15759   3.775   3.394   2.315
 1907SOL    HW115760   3.809   3.482   2.283
 1907SOL    HW215761   3.809   3.321   2.256
 1908SOL     OW15762   2.026   5.343   2.036
 1908SOL    HW115763   2.008   5.292   1.952
 1908SOL    HW215764   2.085   5.420   2.017
 1909SOL     OW15765   2.108   1.297   2.011
 1909SOL    HW115766   2.123   1.376   1.951
 1909SOL    HW215767   2.191   1.277   2.062
 1910SOL     OW15768   9.869   6.261   1.951
 1910SOL    HW115769   9.845   6.345   1.901
 1910SOL    HW215770   9.942   6.282   2.016
 1911SOL     OW15771   1.413   0.698   1.305
 1911SOL    HW115772   1.398   0.635   1.382
 1911SOL    HW215773   1.327   0.743   1.282
 1912SOL     OW15774   9.004   8.916   1.154
 1912SOL    HW115775   9.011   9.014   1.167
 1912SOL    HW215776   9.084   8.871   1.195
 1913SOL     OW15777   3.065   8.778   1.584
 1913SOL    HW115778   3.142   8.827   1.545
 1913SOL    HW215779   3.012   8.840   1.642
 1914SOL     OW15780   9.463   9.179   1.734
 1914SOL    HW115781   9.390   9.247   1.747
 1914SOL    HW215782   9.501   9.154   1.824
 1915SOL     OW15783   0.246   9.585   1.135
 1915SOL    HW115784   0.204   9.656   1.192
 1915SOL    HW215785   0.202   9.584   1.045
 1916SOL     OW15786   2.874   4.695   1.023
 1916SOL    HW115787   2.822   4.676   1.107
 1916SOL    HW215788   2.877   4.612   0.967
 1917SOL     OW15789   9.922   3.315   0.392
 1917SOL    HW115790   9.900   3.404   0.431
 1917SOL    HW215791   9.946   3.325   0.296
 1918SOL     OW15792   1.274   5.447   1.547
 1918SOL    HW115793   1.294   5.376   1.615
 1918SOL    HW215794   1.186   5.428   1.504
 1919SOL     OW15795   1.202   5.408   1.086
 1919SOL    HW115796   1.249   5.441   1.004
 1919SOL    HW215797   1.257   5.431   1.167
 1920SOL     OW15798   8.921   7.651   0.666
 1920SOL    HW115799   8.854   7.652   0.740
 1920SOL    HW215800   9.013   7.657   0.704
 1921SOL     OW15801   9.441   8.424   0.976
 1921SOL    HW115802   9.473   8.425   0.881
 1921SOL    HW215803   9.409   8.332   0.999
 1922SOL     OW15804   3.171   5.367   1.127
 1922SOL    HW115805   3.171   5.325   1.217
 1922SOL    HW215806   3.257   5.417   1.114
 1923SOL     OW15807   4.758   3.768   1.468
 1923SOL    HW115808   4.790   3.845   1.413
 1923SOL    HW215809   4.703   3.801   1.544
 1924SOL     OW15810   1.781   0.499   2.143
 1924SOL    HW115811   1.751   0.408   2.172
 1924SOL    HW215812   1.718   0.568   2.181
 1925SOL     OW15813   0.406   2.342   2.289
 1925SOL    HW115814   0.481   2.278   2.269
 1925SOL    HW215815   0.397   2.351   2.388
 1926SOL     OW15816   3.150   7.906   0.510
 1926SOL    HW115817   3.210   7.835   0.475
 1926SOL    HW215818   3.185   7.996   0.483
 1927SOL     OW15819   1.860   0.107   2.165
 1927SOL    HW115820   1.876   0.009   2.175
 1927SOL    HW215821   1.763   0.126   2.172
 1928SOL     OW15822   4.188   0.495   2.171
 1928SOL    HW115823   4.124   0.572   2.173
 1928SOL    HW215824   4.154   0.425   2.109
 1929SOL     OW15825   3.945   0.856   0.871
 1929SOL    HW115826   3.900   0.906   0.945
 1929SOL    HW215827   4.005   0.917   0.820
 1930SOL     OW15828   0.856   7.963   1.613
 1930SOL    HW115829   0.789   8.024   1.657
 1930SOL    HW215830   0.809   7.903   1.548
 1931SOL     OW15831   3.705   3.341   1.925
 1931SOL    HW115832   3.740   3.419   1.875
 1931SOL    HW215833   3.611   3.359   1.954
 1932SOL     OW15834   2.778   4.104   2.249
 1932SOL    HW115835   2.836   4.071   2.174
 1932SOL    HW215836   2.835   4.132   2.326
 1933SOL     OW15837   2.152   2.169   1.183
 1933SOL    HW115838   2.094   2.143   1.261
 1933SOL    HW215839   2.101   2.155   1.098
 1934SOL     OW15840   2.699   7.548   1.875
 1934SOL    HW115841   2.729   7.473   1.935
 1934SOL    HW215842   2.703   7.634   1.924
 1935SOL     OW15843   7.986   9.295   0.434
 1935SOL    HW115844   7.969   9.282   0.532
 1935SOL    HW215845   7.940   9.379   0.404
 1936SOL     OW15846   4.350   2.667   1.610
 1936SOL    HW115847   4.315   2.683   1.702
 1936SOL    HW215848   4.442   2.629   1.615
 1937SOL     OW15849   9.968   9.759   1.091
 1937SOL    HW115850   9.871   9.750   1.113
 1937SOL    HW215851   0.021   9.761   1.176
 1938SOL     OW15852   9.340   5.167   0.423
 1938SOL    HW115853   9.327   5.179   0.324
 1938SOL    HW215854   9.324   5.254   0.469
 1939SOL     OW15855   0.640   9.203   1.344
 1939SOL    HW115856   0.560   9.253   1.376
 1939SOL    HW215857   0.613   9.114   1.309
 1940SOL     OW15858   3.089   3.111   0.435
 1940SOL    HW115859   3.021   3.040   0.418
 1940SOL    HW215860   3.049   3.183   0.491
 1941SOL     OW15861   4.337   2.919   1.498
 1941SOL    HW115862   4.273   2.931   1.423
 1941SOL    HW215863   4.331   2.826   1.533
 1942SOL     OW15864   1.428   1.886   1.359
 1942SOL    HW115865   1.411   1.788   1.371
 1942SOL    HW215866   1.390   1.915   1.271
 1943SOL     OW15867   0.876   5.832   1.408
 1943SOL    HW115868   0.808   5.764   1.434
 1943SOL    HW215869   0.954   5.787   1.365
 1944SOL     OW15870   0.723   6.629   2.146
 1944SOL    HW115871   0.822   6.626   2.136
 1944SOL    HW215872   0.699   6.663   2.237
 1945SOL     OW15873   1.750   5.818   1.291
 1945SOL    HW115874   1.652   5.799   1.292
 1945SOL    HW215875   1.782   5.834   1.384
 1946SOL     OW15876   0.082   1.287   1.943
 1946SOL    HW115877   0.154   1.306   2.010
 1946SOL    HW215878   0.061   1.370   1.892
 1947SOL     OW15879   9.925   9.174   0.519
 1947SOL    HW115880   9.975   9.248   0.473
 1947SOL    HW215881   9.982   9.134   0.591
 1948SOL     OW15882   1.880   0.342   0.957
 1948SOL    HW115883   1.922   0.353   0.867
 1948SOL    HW215884   1.899   0.423   1.013
 1949SOL     OW15885   9.392   6.157   1.820
 1949SOL    HW115886   9.309   6.115   1.857
 1949SOL    HW215887   9.436   6.210   1.892
 1950SOL     OW15888   2.928   1.285   0.969
 1950SOL    HW115889   2.970   1.241   1.048
 1950SOL    HW215890   2.845   1.235   0.943
 1951SOL     OW15891   3.874   8.137   0.781
 1951SOL    HW115892   3.780   8.128   0.750
 1951SOL    HW215893   3.898   8.058   0.839
 1952SOL     OW15894   4.702   3.628   1.019
 1952SOL    HW115895   4.717   3.724   0.996
 1952SOL    HW215896   4.708   3.573   0.935
 1953SOL     OW15897   3.438   8.671   1.048
 1953SOL    HW115898   3.502   8.611   1.096
 1953SOL    HW215899   3.488   8.747   1.006
 1954SOL     OW15900   0.817   3.447   2.111
 1954SOL    HW115901   0.893   3.497   2.071
 1954SOL    HW215902   0.779   3.500   2.187
 1955SOL     OW15903   1.043   2.176   0.440
 1955SOL    HW115904   0.980   2.253   0.452
 1955SOL    HW215905   1.135   2.210   0.423
 1956SOL     OW15906   8.763   9.752   0.965
 1956SOL    HW115907   8.843   9.764   0.906
 1956SOL    HW215908   8.710   9.836   0.968
 1957SOL     OW15909   9.902   1.724   1.929
 1957SOL    HW115910   9.970   1.796   1.945
 1957SOL    HW215911   9.837   1.722   2.004
 1958SOL     OW15912   1.371   9.396   1.557
 1958SOL    HW115913   1.463   9.358   1.552
 1958SOL    HW215914   1.306   9.331   1.516
 1959SOL     OW15915   8.543   1.833   1.541
 1959SOL    HW115916   8.642   1.837   1.544
 1959SOL    HW215917   8.506   1.840   1.634
 1960SOL     OW15918   2.481   6.556   2.311
 1960SOL    HW115919   2.550   6.494   2.273
 1960SOL    HW215920   2.390   6.516   2.299
 1961SOL     OW15921   0.051   0.764   2.118
 1961SOL    HW115922   0.133   0.732   2.165
 1961SOL    HW215923   0.036   0.708   2.037
 1962SOL     OW15924   0.602   3.085   0.898
 1962SOL    HW115925   0.512   3.126   0.910
 1962SOL    HW215926   0.592   2.996   0.854
 1963SOL     OW15927   1.362   8.932   1.410
 1963SOL    HW115928   1.332   8.864   1.477
 1963SOL    HW215929   1.311   8.921   1.325
 1964SOL     OW15930   3.196   8.506   1.341
 1964SOL    HW115931   3.134   8.574   1.301
 1964SOL    HW215932   3.147   8.455   1.412
 1965SOL     OW15933   8.427   1.179   1.944
 1965SOL    HW115934   8.363   1.255   1.928
 1965SOL    HW215935   8.376   1.098   1.971
 1966SOL     OW15936   3.065   0.820   0.814
 1966SOL    HW115937   3.036   0.902   0.764
 1966SOL    HW215938   2.990   0.753   0.814
 1967SOL     OW15939   2.246   0.090   0.497
 1967SOL    HW115940   2.249   9.997   0.461
 1967SOL    HW215941   2.162   0.104   0.548
 1968SOL     OW15942   0.279   1.059   2.100
 1968SOL    HW115943   0.335   1.002   2.159
 1968SOL    HW215944   0.193   1.082   2.146
 1969SOL     OW15945   0.578   9.805   0.597
 1969SOL    HW115946   0.576   9.869   0.674
 1969SOL    HW215947   0.557   9.713   0.630
 1970SOL     OW15948   3.996   0.280   0.935
 1970SOL    HW115949   3.902   0.306   0.953
 1970SOL    HW215950   4.007   0.181   0.948
 1971SOL     OW15951   0.436   8.868   0.360
 1971SOL    HW115952   0.398   8.787   0.405
 1971SOL    HW215953   0.362   8.917   0.313
 1972SOL     OW15954   9.245   0.160   0.841
 1972SOL    HW115955   9.267   0.155   0.743
 1972SOL    HW215956   9.150   0.188   0.853
 1973SOL     OW15957   2.170   1.334   1.124
 1973SOL    HW115958   2.163   1.244   1.082
 1973SOL    HW215959   2.089   1.389   1.101
 1974SOL     OW15960   0.868   6.262   0.913
 1974SOL    HW115961   0.935   6.331   0.885
 1974SOL    HW215962   0.778   6.305   0.921
 1975SOL     OW15963   1.654   5.265   2.221
 1975SOL    HW115964   1.601   5.268   2.136
 1975SOL    HW215965   1.735   5.208   2.207
 1976SOL     OW15966   2.210   0.002   1.294
 1976SOL    HW115967   2.220   9.927   1.229
 1976SOL    HW215968   2.299   0.020   1.337
 1977SOL     OW15969   7.931   1.115   1.305
 1977SOL    HW115970   7.889   1.192   1.256
 1977SOL    HW215971   8.008   1.149   1.359
 1978SOL     OW15972   2.280   9.952   1.692
 1978SOL    HW115973   2.189   9.927   1.725
 1978SOL    HW215974   2.277   0.043   1.651
 1979SOL     OW15975   4.136   9.383   1.206
 1979SOL    HW115976   4.092   9.342   1.127
 1979SOL    HW215977   4.089   9.355   1.290
 1980SOL     OW15978   9.700   0.422   0.844
 1980SOL    HW115979   9.619   0.423   0.785
 1980SOL    HW215980   9.677   0.384   0.933
 1981SOL     OW15981   4.642   4.096   1.612
 1981SOL    HW115982   4.560   4.147   1.638
 1981SOL    HW215983   4.632   4.001   1.641
 1982SOL     OW15984   1.238   9.182   1.460
 1982SOL    HW115985   1.150   9.159   1.503
 1982SOL    HW215986   1.290   9.098   1.444
 1983SOL     OW15987   0.696   4.501   1.275
 1983SOL    HW115988   0.608   4.469   1.239
 1983SOL    HW215989   0.691   4.506   1.375
 1984SOL     OW15990   2.153   0.649   0.806
 1984SOL    HW115991   2.064   0.675   0.768
 1984SOL    HW215992   2.214   0.729   0.806
 1985SOL     OW15993   0.027   6.212   2.195
 1985SOL    HW115994   9.999   6.278   2.265
 1985SOL    HW215995   9.979   6.126   2.210
 1986SOL     OW15996   2.370   1.739   1.066
 1986SOL    HW115997   2.404   1.780   0.981
 1986SOL    HW215998   2.348   1.811   1.131
 1987SOL     OW15999   0.427   1.577   1.309
 1987SOL    HW116000   0.374   1.593   1.392
 1987SOL    HW216001   0.520   1.550   1.333
 1988SOL     OW16002   9.386   6.774   2.049
 1988SOL    HW116003   9.477   6.746   2.078
 1988SOL    HW216004   9.390   6.809   1.955
 1989SOL     OW16005   0.932  10.000   0.424
 1989SOL    HW116006   0.889   9.915   0.393
 1989SOL    HW216007   0.981   9.984   0.509
 1990SOL     OW16008   9.842   3.072   1.291
 1990SOL    HW116009   9.765   3.125   1.256
 1990SOL    HW216010   9.827   3.050   1.387
 1991SOL     OW16011   9.144   4.526   1.237
 1991SOL    HW116012   9.085   4.583   1.294
 1991SOL    HW216013   9.178   4.449   1.292
 1992SOL     OW16014   1.991   0.967   1.581
 1992SOL    HW116015   1.946   0.919   1.505
 1992SOL    HW216016   1.926   0.976   1.657
 1993SOL     OW16017   3.376   9.863   0.633
 1993SOL    HW116018   3.278   9.847   0.622
 1993SOL    HW216019   3.421   9.777   0.659
 1994SOL     OW16020   0.324   5.619   1.102
 1994SOL    HW116021   0.256   5.693   1.108
 1994SOL    HW216022   0.358   5.612   1.009
 1995SOL     OW16023   0.879   1.023   1.330
 1995SOL    HW116024   0.913   1.056   1.242
 1995SOL    HW216025   0.947   1.041   1.401
 1996SOL     OW16026   8.482   0.671   0.921
 1996SOL    HW116027   8.436   0.704   0.839
 1996SOL    HW216028   8.552   0.604   0.895
 1997SOL     OW16029   0.923   6.815   1.261
 1997SOL    HW116030   0.944   6.750   1.187
 1997SOL    HW216031   0.832   6.853   1.247
 1998SOL     OW16032   9.302   4.261   0.913
 1998SOL    HW116033   9.299   4.161   0.917
 1998SOL    HW216034   9.211   4.297   0.892
 1999SOL     OW16035   0.892   4.033   0.585
 1999SOL    HW116036   0.963   3.962   0.587
 1999SOL    HW216037   0.901   4.092   0.666
 2000SOL     OW16038   4.157   9.130   2.055
 2000SOL    HW116039   4.119   9.044   2.088
 2000SOL    HW216040   4.146   9.135   1.955
 2001SOL     OW16041   8.442   9.898   0.414
 2001SOL    HW116042   8.398   9.847   0.341
 2001SOL    HW216043   8.520   9.845   0.449
 2002SOL     OW16044   2.738   7.409   0.616
 2002SOL    HW116045   2.704   7.328   0.663
 2002SOL    HW216046   2.669   7.481   0.619
 2003SOL     OW16047   0.231   7.065   0.978
 2003SOL    HW116048   0.194   7.002   0.909
 2003SOL    HW216049   0.328   7.081   0.958
 2004SOL     OW16050   0.531   4.147   0.558
 2004SOL    HW116051   0.586   4.132   0.476
 2004SOL    HW216052   0.445   4.192   0.533
 2005SOL     OW16053   2.597   5.145   1.239
 2005SOL    HW116054   2.694   5.145   1.216
 2005SOL    HW216055   2.560   5.238   1.228
 2006SOL     OW16056   2.280   8.776   1.455
 2006SOL    HW116057   2.285   8.712   1.379
 2006SOL    HW216058   2.211   8.746   1.521
 2007SOL     OW16059   9.769   0.393   1.318
 2007SOL    HW116060   9.826   0.476   1.319
 2007SOL    HW216061   9.826   0.313   1.336
 2008SOL     OW16062   9.616   9.460   0.454
 2008SOL    HW116063   9.546   9.443   0.385
 2008SOL    HW216064   9.628   9.378   0.510
 2009SOL     OW16065   9.646   0.769   0.510
 2009SOL    HW116066   9.729   0.787   0.562
 2009SOL    HW216067   9.634   0.671   0.497
 2010SOL     OW16068   3.773   9.993   0.948
 2010SOL    HW116069   3.872   9.995   0.964
 2010SOL    HW216070   3.751   0.053   0.871
 2011SOL     OW16071   9.785   6.928   1.433
 2011SOL    HW116072   9.800   6.991   1.509
 2011SOL    HW216073   9.708   6.960   1.378
 2012SOL     OW16074   2.333   9.330   2.219
 2012SOL    HW116075   2.360   9.426   2.213
 2012SOL    HW216076   2.235   9.322   2.198
 2013SOL     OW16077   8.981   0.915   1.197
 2013SOL    HW116078   8.887   0.935   1.222
 2013SOL    HW216079   8.991   0.921   1.098
 2014SOL     OW16080   7.834   0.791   1.731
 2014SOL    HW116081   7.786   0.705   1.714
 2014SOL    HW216082   7.837   0.845   1.647
 2015SOL     OW16083   0.616   7.767   2.171
 2015SOL    HW116084   0.635   7.797   2.264
 2015SOL    HW216085   0.525   7.725   2.167
 2016SOL     OW16086   9.138   1.903   1.803
 2016SOL    HW116087   9.142   1.817   1.855
 2016SOL    HW216088   9.140   1.980   1.867
 2017SOL     OW16089   1.017   8.327   1.248
 2017SOL    HW116090   0.991   8.284   1.162
 2017SOL    HW216091   0.945   8.312   1.315
 2018SOL     OW16092   2.718   1.490   2.295
 2018SOL    HW116093   2.762   1.416   2.244
 2018SOL    HW216094   2.719   1.468   2.393
 2019SOL     OW16095   0.274   9.263   1.616
 2019SOL    HW116096   0.333   9.301   1.545
 2019SOL    HW216097   0.188   9.232   1.575
 2020SOL     OW16098   0.618   6.460   0.485
 2020SOL    HW116099   0.712   6.427   0.485
 2020SOL    HW216100   0.614   6.549   0.530
 2021SOL     OW16101   0.028   8.132   2.186
 2021SOL    HW116102   0.012   8.154   2.282
 2021SOL    HW216103   9.952   8.167   2.131
 2022SOL     OW16104   3.562   8.895   0.952
 2022SOL    HW116105   3.586   8.947   1.033
 2022SOL    HW216106   3.478   8.933   0.912
 2023SOL     OW16107   2.974   7.823   0.915
 2023SOL    HW116108   2.879   7.836   0.944
 2023SOL    HW216109   3.015   7.750   0.969
 2024SOL     OW16110   3.909   3.441   0.926
 2024SOL    HW116111   3.965   3.414   1.005
 2024SOL    HW216112   3.865   3.529   0.946
 2025SOL     OW16113   9.150   7.743   1.695
 2025SOL    HW116114   9.059   7.725   1.732
 2025SOL    HW216115   9.147   7.819   1.631
 2026SOL     OW16116   0.806   2.052   0.376
 2026SOL    HW116117   0.798   1.975   0.313
 2026SOL    HW216118   0.902   2.076   0.388
 2027SOL     OW16119   3.699   8.112   2.295
 2027SOL    HW116120   3.701   8.208   2.323
 2027SOL    HW216121   3.734   8.055   2.369
 2028SOL     OW16122   2.029   6.418   2.086
 2028SOL    HW116123   1.932   6.395   2.081
 2028SOL    HW216124   2.084   6.337   2.066
 2029SOL     OW16125   3.376   0.686   1.019
 2029SOL    HW116126   3.381   0.712   0.922
 2029SOL    HW216127   3.308   0.742   1.065
 2030SOL     OW16128   1.728   5.098   1.751
 2030SOL    HW116129   1.774   5.021   1.707
 2030SOL    HW216130   1.660   5.063   1.815
 2031SOL     OW16131   8.110   1.073   0.623
 2031SOL    HW116132   8.044   1.000   0.641
 2031SOL    HW216133   8.200   1.045   0.655
 2032SOL     OW16134   3.777   4.842   1.037
 2032SOL    HW116135   3.799   4.937   1.012
 2032SOL    HW216136   3.802   4.782   0.962
 2033SOL     OW16137   0.145   4.984   1.349
 2033SOL    HW116138   0.069   5.048   1.342
 2033SOL    HW216139   0.112   4.896   1.382
 2034SOL     OW16140   1.215   2.148   1.990
 2034SOL    HW116141   1.282   2.159   1.917
 2034SOL    HW216142   1.159   2.231   1.998
 2035SOL     OW16143   0.843   2.441   1.874
 2035SOL    HW116144   0.875   2.428   1.780
 2035SOL    HW216145   0.911   2.403   1.937
 2036SOL     OW16146   1.078   7.748   1.789
 2036SOL    HW116147   1.137   7.678   1.750
 2036SOL    HW216148   1.087   7.833   1.737
 2037SOL     OW16149   2.271   6.792   1.598
 2037SOL    HW116150   2.173   6.775   1.600
 2037SOL    HW216151   2.304   6.806   1.692
 2038SOL     OW16152   2.845   5.767   1.220
 2038SOL    HW116153   2.799   5.679   1.234
 2038SOL    HW216154   2.811   5.809   1.136
 2039SOL     OW16155   0.294   7.965   0.687
 2039SOL    HW116156   0.292   7.871   0.722
 2039SOL    HW216157   0.377   8.011   0.719
 2040SOL     OW16158   0.565   1.754   0.647
 2040SOL    HW116159   0.627   1.832   0.642
 2040SOL    HW216160   0.611   1.678   0.694
 2041SOL     OW16161   0.336   4.086   1.270
 2041SOL    HW116162   0.415   4.087   1.332
 2041SOL    HW216163   0.292   3.996   1.275
 2042SOL     OW16164   0.049   1.321   1.240
 2042SOL    HW116165   9.951   1.338   1.243
 2042SOL    HW216166   0.095   1.400   1.199
 2043SOL     OW16167   2.480   8.921   2.331
 2043SOL    HW116168   2.497   8.855   2.258
 2043SOL    HW216169   2.551   8.912   2.401
 2044SOL     OW16170   4.045   8.799   0.459
 2044SOL    HW116171   4.050   8.882   0.515
 2044SOL    HW216172   4.133   8.784   0.414
 2045SOL     OW16173   9.229   5.357   2.084
 2045SOL    HW116174   9.220   5.442   2.032
 2045SOL    HW216175   9.170   5.288   2.044
 2046SOL     OW16176   2.509   0.025   0.558
 2046SOL    HW116177   2.422   0.064   0.529
 2046SOL    HW216178   2.492   9.945   0.615
 2047SOL     OW16179   8.189   1.418   0.850
 2047SOL    HW116180   8.153   1.471   0.927
 2047SOL    HW216181   8.128   1.427   0.772
 2048SOL     OW16182   2.756   7.541   1.594
 2048SOL    HW116183   2.732   7.554   1.690
 2048SOL    HW216184   2.817   7.462   1.585
 2049SOL     OW16185   3.360   2.481   1.389
 2049SOL    HW116186   3.315   2.397   1.357
 2049SOL    HW216187   3.302   2.559   1.370
 2050SOL     OW16188   9.489   4.636   2.279
 2050SOL    HW116189   9.476   4.688   2.364
 2050SOL    HW216190   9.521   4.698   2.207
 2051SOL     OW16191   8.757   8.299   1.401
 2051SOL    HW116192   8.769   8.227   1.333
 2051SOL    HW216193   8.774   8.388   1.358
 2052SOL     OW16194   3.852   2.694   0.617
 2052SOL    HW116195   3.920   2.682   0.690
 2052SOL    HW216196   3.848   2.790   0.591
 2053SOL     OW16197   9.215   6.227   1.626
 2053SOL    HW116198   9.282   6.201   1.695
 2053SOL    HW216199   9.132   6.261   1.671
 2054SOL     OW16200   7.654   0.332   0.704
 2054SOL    HW116201   7.682   0.427   0.692
 2054SOL    HW216202   7.643   0.313   0.801
 2055SOL     OW16203   9.267   0.865   1.698
 2055SOL    HW116204   9.299   0.846   1.605
 2055SOL    HW216205   9.168   0.849   1.703
 2056SOL     OW16206   2.251   0.398   0.808
 2056SOL    HW116207   2.226   0.494   0.816
 2056SOL    HW216208   2.274   0.362   0.898
 2057SOL     OW16209   0.719   2.187   0.805
 2057SOL    HW116210   0.696   2.188   0.903
 2057SOL    HW216211   0.724   2.280   0.771
 2058SOL     OW16212   2.448   9.007   1.867
 2058SOL    HW116213   2.426   9.039   1.959
 2058SOL    HW216214   2.374   9.031   1.804
 2059SOL     OW16215   1.531   2.397   0.774
 2059SOL    HW116216   1.443   2.433   0.742
 2059SOL    HW216217   1.554   2.315   0.723
 2060SOL     OW16218   2.218   4.792   1.561
 2060SOL    HW116219   2.189   4.701   1.591
 2060SOL    HW216220   2.308   4.786   1.519
 2061SOL     OW16221   2.033   6.638   1.313
 2061SOL    HW116222   2.036   6.541   1.338
 2061SOL    HW216223   2.022   6.694   1.395
 2062SOL     OW16224   3.669   4.531   0.450
 2062SOL    HW116225   3.733   4.594   0.495
 2062SOL    HW216226   3.704   4.506   0.360
 2063SOL     OW16227   2.499   7.236   1.709
 2063SOL    HW116228   2.479   7.334   1.711
 2063SOL    HW216229   2.449   7.190   1.781
 2064SOL     OW16230   1.589   2.800   1.608
 2064SOL    HW116231   1.635   2.807   1.697
 2064SOL    HW216232   1.637   2.734   1.550
 2065SOL     OW16233   9.737   0.305   0.330
 2065SOL    HW116234   9.710   0.209   0.342
 2065SOL    HW216235   9.725   0.332   0.235
 2066SOL     OW16236   1.131   8.570   1.252
 2066SOL    HW116237   1.092   8.478   1.250
 2066SOL    HW216238   1.059   8.635   1.277
 2067SOL     OW16239   1.652   4.441   0.886
 2067SOL    HW116240   1.728   4.395   0.933
 2067SOL    HW216241   1.681   4.533   0.859
 2068SOL     OW16242   4.230   2.837   0.660
 2068SOL    HW116243   4.325   2.813   0.675
 2068SOL    HW216244   4.221   2.883   0.571
 2069SOL     OW16245   3.953   1.255   0.747
 2069SOL    HW116246   4.023   1.294   0.688
 2069SOL    HW216247   3.868   1.307   0.737
 2070SOL     OW16248   9.118   3.773   1.821
 2070SOL    HW116249   9.068   3.689   1.840
 2070SOL    HW216250   9.059   3.837   1.773
 2071SOL     OW16251   9.256   8.151   1.282
 2071SOL    HW116252   9.208   8.210   1.346
 2071SOL    HW216253   9.354   8.154   1.301
 2072SOL     OW16254   2.000   2.102   1.399
 2072SOL    HW116255   1.959   2.034   1.458
 2072SOL    HW216256   1.995   2.192   1.443
 2073SOL     OW16257   4.058   1.047   1.218
 2073SOL    HW116258   4.133   0.983   1.234
 2073SOL    HW216259   4.065   1.123   1.283
 2074SOL     OW16260   2.036   8.910   1.679
 2074SOL    HW116261   2.045   8.812   1.658
 2074SOL    HW216262   1.968   8.951   1.618
 2075SOL     OW16263   4.347   0.076   0.414
 2075SOL    HW116264   4.263   0.129   0.417
 2075SOL    HW216265   4.423   0.135   0.388
 2076SOL     OW16266   1.384   1.371   1.609
 2076SOL    HW116267   1.330   1.397   1.688
 2076SOL    HW216268   1.323   1.350   1.532
 2077SOL     OW16269   1.034   3.585   2.010
 2077SOL    HW116270   1.100   3.562   1.939
 2077SOL    HW216271   1.079   3.640   2.081
 2078SOL     OW16272   0.968   4.841   0.625
 2078SOL    HW116273   0.974   4.936   0.593
 2078SOL    HW216274   0.884   4.830   0.678
 2079SOL     OW16275   2.067   6.646   0.490
 2079SOL    HW116276   2.133   6.670   0.418
 2079SOL    HW216277   2.107   6.668   0.580
 2080SOL     OW16278   3.943   2.489   1.676
 2080SOL    HW116279   3.886   2.416   1.638
 2080SOL    HW216280   3.885   2.557   1.720
 2081SOL     OW16281   3.684   1.198   1.641
 2081SOL    HW116282   3.776   1.171   1.613
 2081SOL    HW216283   3.686   1.227   1.736
 2082SOL     OW16284   8.868   5.259   0.739
 2082SOL    HW116285   8.924   5.285   0.661
 2082SOL    HW216286   8.909   5.295   0.823
 2083SOL     OW16287   8.431   7.791   0.667
 2083SOL    HW116288   8.437   7.851   0.587
 2083SOL    HW216289   8.441   7.696   0.638
 2084SOL     OW16290   3.430   2.260   0.715
 2084SOL    HW116291   3.451   2.243   0.811
 2084SOL    HW216292   3.515   2.274   0.664
 2085SOL     OW16293   3.671   2.661   1.187
 2085SOL    HW116294   3.701   2.583   1.242
 2085SOL    HW216295   3.590   2.702   1.229
 2086SOL     OW16296   4.169   1.192   2.163
 2086SOL    HW116297   4.163   1.096   2.135
 2086SOL    HW216298   4.113   1.248   2.102
 2087SOL     OW16299   8.048   8.075   0.908
 2087SOL    HW116300   8.126   8.035   0.860
 2087SOL    HW216301   8.026   8.163   0.868
 2088SOL     OW16302   2.858   3.547   1.676
 2088SOL    HW116303   2.871   3.642   1.705
 2088SOL    HW216304   2.770   3.513   1.709
 2089SOL     OW16305   2.312   8.085   1.936
 2089SOL    HW116306   2.306   8.185   1.936
 2089SOL    HW216307   2.221   8.046   1.949
 2090SOL     OW16308   7.564   9.561   0.503
 2090SOL    HW116309   7.601   9.612   0.580
 2090SOL    HW216310   7.575   9.614   0.419
 2091SOL     OW16311   0.383   1.793   2.001
 2091SOL    HW116312   0.355   1.889   1.993
 2091SOL    HW216313   0.349   1.755   2.087
 2092SOL     OW16314   7.636   9.837   1.452
 2092SOL    HW116315   7.613   9.931   1.474
 2092SOL    HW216316   7.612   9.819   1.356
 2093SOL     OW16317   0.927   6.702   1.745
 2093SOL    HW116318   0.901   6.738   1.655
 2093SOL    HW216319   0.845   6.697   1.803
 2094SOL     OW16320   3.247   4.559   1.763
 2094SOL    HW116321   3.188   4.550   1.683
 2094SOL    HW216322   3.242   4.653   1.798
 2095SOL     OW16323   0.412   1.358   1.893
 2095SOL    HW116324   0.361   1.379   1.977
 2095SOL    HW216325   0.408   1.260   1.875
 2096SOL     OW16326   9.050   8.014   0.508
 2096SOL    HW116327   9.115   8.084   0.478
 2096SOL    HW216328   8.978   8.056   0.562
 2097SOL     OW16329   1.962   0.105   1.256
 2097SOL    HW116330   2.055   0.078   1.280
 2097SOL    HW216331   1.965   0.184   1.195
 2098SOL     OW16332   8.770   2.073   1.376
 2098SOL    HW116333   8.786   1.991   1.321
 2098SOL    HW216334   8.788   2.155   1.320
 2099SOL     OW16335   8.040   8.237   1.683
 2099SOL    HW116336   8.067   8.242   1.587
 2099SOL    HW216337   8.109   8.186   1.735
 2100SOL     OW16338   1.684   3.808   0.832
 2100SOL    HW116339   1.670   3.898   0.872
 2100SOL    HW216340   1.596   3.762   0.821
 2101SOL     OW16341   9.764   0.737   1.752
 2101SOL    HW116342   9.672   0.747   1.788
 2101SOL    HW216343   9.794   0.823   1.711
 2102SOL     OW16344   7.274   9.637   1.042
 2102SOL    HW116345   7.331   9.631   0.960
 2102SOL    HW216346   7.178   9.641   1.016
 2103SOL     OW16347   9.471   8.559   2.194
 2103SOL    HW116348   9.563   8.589   2.217
 2103SOL    HW216349   9.404   8.622   2.232
 2104SOL     OW16350   2.338   2.204   0.561
 2104SOL    HW116351   2.405   2.164   0.499
 2104SOL    HW216352   2.355   2.170   0.654
 2105SOL     OW16353   2.770   0.024   1.049
 2105SOL    HW116354   2.766   9.962   1.127
 2105SOL    HW216355   2.833   0.100   1.070
 2106SOL     OW16356   0.908   1.314   0.407
 2106SOL    HW116357   0.959   1.228   0.410
 2106SOL    HW216358   0.812   1.295   0.386
 2107SOL     OW16359   1.687   4.541   1.987
 2107SOL    HW116360   1.697   4.447   2.020
 2107SOL    HW216361   1.721   4.604   2.056
 2108SOL     OW16362   9.627   3.935   1.626
 2108SOL    HW116363   9.716   3.964   1.660
 2108SOL    HW216364   9.554   3.976   1.682
 2109SOL     OW16365   1.510   1.809   0.720
 2109SOL    HW116366   1.460   1.895   0.733
 2109SOL    HW216367   1.576   1.796   0.794
 2110SOL     OW16368   9.548   9.711   0.943
 2110SOL    HW116369   9.486   9.634   0.925
 2110SOL    HW216370   9.496   9.796   0.940
 2111SOL     OW16371   0.963   9.298   0.458
 2111SOL    HW116372   0.877   9.248   0.461
 2111SOL    HW216373   0.945   9.393   0.430
 2112SOL     OW16374   0.608   2.175   2.228
 2112SOL    HW116375   0.688   2.126   2.263
 2112SOL    HW216376   0.602   2.163   2.129
 2113SOL     OW16377   9.911   7.772   1.617
 2113SOL    HW116378   0.002   7.808   1.636
 2113SOL    HW216379   9.916   7.710   1.538
 2114SOL     OW16380   0.257   1.801   0.422
 2114SOL    HW116381   0.304   1.845   0.498
 2114SOL    HW216382   0.183   1.859   0.390
 2115SOL     OW16383   1.811   9.543   0.560
 2115SOL    HW116384   1.801   9.574   0.654
 2115SOL    HW216385   1.771   9.452   0.549
 2116SOL     OW16386   2.547   4.929   1.070
 2116SOL    HW116387   2.558   5.009   1.129
 2116SOL    HW216388   2.500   4.856   1.120
 2117SOL     OW16389   1.533   4.309   0.518
 2117SOL    HW116390   1.586   4.225   0.502
 2117SOL    HW216391   1.590   4.389   0.499
 2118SOL     OW16392   0.025   8.898   1.503
 2118SOL    HW116393   0.078   8.833   1.557
 2118SOL    HW216394   0.055   8.895   1.408
 2119SOL     OW16395   9.876   5.391   2.249
 2119SOL    HW116396   9.835   5.478   2.277
 2119SOL    HW216397   9.951   5.409   2.185
 2120SOL     OW16398   3.083   2.813   1.726
 2120SOL    HW116399   3.057   2.718   1.713
 2120SOL    HW216400   3.183   2.822   1.718
 2121SOL     OW16401   9.235   5.382   1.137
 2121SOL    HW116402   9.299   5.333   1.077
 2121SOL    HW216403   9.273   5.472   1.158
 2122SOL     OW16404   2.614   4.756   0.639
 2122SOL    HW116405   2.635   4.688   0.570
 2122SOL    HW216406   2.683   4.829   0.636
 2123SOL     OW16407   4.126   3.823   1.923
 2123SOL    HW116408   4.181   3.740   1.910
 2123SOL    HW216409   4.031   3.798   1.939
 2124SOL     OW16410   1.633   1.243   1.003
 2124SOL    HW116411   1.618   1.270   0.908
 2124SOL    HW216412   1.731   1.236   1.021
 2125SOL     OW16413   0.776   6.085   1.389
 2125SOL    HW116414   0.695   6.082   1.331
 2125SOL    HW216415   0.815   5.993   1.397
 2126SOL     OW16416   9.854   1.751   0.836
 2126SOL    HW116417   9.935   1.792   0.794
 2126SOL    HW216418   9.784   1.738   0.766
 2127SOL     OW16419   1.966   7.848   1.325
 2127SOL    HW116420   1.937   7.944   1.315
 2127SOL    HW216421   2.051   7.844   1.376
 2128SOL     OW16422   1.925   3.493   1.975
 2128SOL    HW116423   1.940   3.588   2.002
 2128SOL    HW216424   1.845   3.457   2.023
 2129SOL     OW16425   3.721   0.155   2.302
 2129SOL    HW116426   3.755   0.138   2.394
 2129SOL    HW216427   3.760   0.088   2.239
 2130SOL     OW16428   3.279   1.258   1.751
 2130SOL    HW116429   3.210   1.191   1.781
 2130SOL    HW216430   3.330   1.221   1.674
 2131SOL     OW16431   2.746   2.380   1.096
 2131SOL    HW116432   2.775   2.301   1.041
 2131SOL    HW216433   2.679   2.350   1.164
 2132SOL     OW16434   8.972   0.053   1.196
 2132SOL    HW116435   8.920   0.096   1.122
 2132SOL    HW216436   8.986   0.119   1.269
 2133SOL     OW16437   4.211   4.109   1.096
 2133SOL    HW116438   4.207   4.157   1.183
 2133SOL    HW216439   4.304   4.072   1.083
 2134SOL     OW16440   7.990   8.830   1.898
 2134SOL    HW116441   8.021   8.764   1.967
 2134SOL    HW216442   8.049   8.824   1.817
 2135SOL     OW16443   1.735   2.808   1.837
 2135SOL    HW116444   1.833   2.786   1.831
 2135SOL    HW216445   1.725   2.904   1.865
 2136SOL     OW16446   1.277   5.873   1.469
 2136SOL    HW116447   1.275   5.968   1.437
 2136SOL    HW216448   1.316   5.871   1.562
 2137SOL     OW16449   0.030   2.407   1.496
 2137SOL    HW116450   0.021   2.505   1.481
 2137SOL    HW216451   0.089   2.367   1.426
 2138SOL     OW16452   9.500   4.582   0.886
 2138SOL    HW116453   9.463   4.545   0.971
 2138SOL    HW216454   9.475   4.522   0.810
 2139SOL     OW16455   3.359   1.410   1.438
 2139SOL    HW116456   3.347   1.444   1.345
 2139SOL    HW216457   3.378   1.486   1.500
 2140SOL     OW16458   2.721   9.063   1.892
 2140SOL    HW116459   2.624   9.047   1.870
 2140SOL    HW216460   2.739   9.029   1.985
 2141SOL     OW16461   2.788   3.032   1.564
 2141SOL    HW116462   2.776   2.972   1.643
 2141SOL    HW216463   2.885   3.057   1.555
 2142SOL     OW16464   2.947   0.827   1.583
 2142SOL    HW116465   2.906   0.902   1.635
 2142SOL    HW216466   2.989   0.762   1.646
 2143SOL     OW16467   2.536   5.738   0.633
 2143SOL    HW116468   2.479   5.661   0.604
 2143SOL    HW216469   2.583   5.777   0.554
 2144SOL     OW16470   1.363   4.078   0.872
 2144SOL    HW116471   1.382   4.166   0.827
 2144SOL    HW216472   1.286   4.088   0.934
 2145SOL     OW16473   0.826   7.553   0.505
 2145SOL    HW116474   0.846   7.455   0.506
 2145SOL    HW216475   0.779   7.576   0.419
 2146SOL     OW16476   2.425   1.527   1.402
 2146SOL    HW116477   2.500   1.558   1.344
 2146SOL    HW216478   2.403   1.598   1.469
 2147SOL     OW16479   1.060   4.724   1.762
 2147SOL    HW116480   1.156   4.701   1.771
 2147SOL    HW216481   1.016   4.657   1.701
 2148SOL     OW16482   1.119   4.350   1.708
 2148SOL    HW116483   1.148   4.353   1.804
 2148SOL    HW216484   1.196   4.375   1.649
 2149SOL     OW16485   3.146   2.315   1.664
 2149SOL    HW116486   3.237   2.280   1.642
 2149SOL    HW216487   3.077   2.251   1.631
 2150SOL     OW16488   3.324   0.752   0.754
 2150SOL    HW116489   3.323   0.695   0.673
 2150SOL    HW216490   3.231   0.781   0.776
 2151SOL     OW16491   4.214   3.565   0.455
 2151SOL    HW116492   4.264   3.479   0.461
 2151SOL    HW216493   4.135   3.561   0.515
 2152SOL     OW16494   1.787   4.724   2.166
 2152SOL    HW116495   1.830   4.687   2.248
 2152SOL    HW216496   1.851   4.784   2.118
 2153SOL     OW16497   2.635   4.137   1.232
 2153SOL    HW116498   2.644   4.155   1.330
 2153SOL    HW216499   2.723   4.152   1.187
 2154SOL     OW16500   9.492   5.746   0.868
 2154SOL    HW116501   9.392   5.745   0.869
 2154SOL    HW216502   9.526   5.656   0.896
 2155SOL     OW16503   0.166   8.091   1.381
 2155SOL    HW116504   0.239   8.029   1.409
 2155SOL    HW216505   0.163   8.168   1.445
 2156SOL     OW16506   5.191   3.145   1.902
 2156SOL    HW116507   5.196   3.140   1.802
 2156SOL    HW216508   5.095   3.146   1.931
 2157SOL     OW16509   0.582   3.232   1.524
 2157SOL    HW116510   0.534   3.266   1.443
 2157SOL    HW216511   0.613   3.309   1.579
 2158SOL     OW16512   0.975   0.269   0.362
 2158SOL    HW116513   1.042   0.303   0.428
 2158SOL    HW216514   0.967   0.169   0.371
 2159SOL     OW16515   9.300   7.308   0.823
 2159SOL    HW116516   9.347   7.388   0.862
 2159SOL    HW216517   9.226   7.338   0.763
 2160SOL     OW16518   9.195   3.846   0.384
 2160SOL    HW116519   9.238   3.927   0.423
 2160SOL    HW216520   9.145   3.872   0.301
 2161SOL     OW16521   4.384   3.785   0.922
 2161SOL    HW116522   4.291   3.774   0.887
 2161SOL    HW216523   4.401   3.716   0.993
 2162SOL     OW16524   1.271   4.389   1.944
 2162SOL    HW116525   1.306   4.468   1.894
 2162SOL    HW216526   1.219   4.420   2.024
 2163SOL     OW16527   1.274   4.260   0.455
 2163SOL    HW116528   1.367   4.289   0.474
 2163SOL    HW216529   1.212   4.338   0.463
 2164SOL     OW16530   9.736   9.005   2.208
 2164SOL    HW116531   9.817   9.062   2.207
 2164SOL    HW216532   9.711   8.983   2.303
 2165SOL     OW16533   9.182   1.191   2.006
 2165SOL    HW116534   9.250   1.162   1.938
 2165SOL    HW216535   9.171   1.120   2.075
 2166SOL     OW16536   2.878   3.542   1.405
 2166SOL    HW116537   2.864   3.544   1.504
 2166SOL    HW216538   2.972   3.517   1.385
 2167SOL     OW16539   3.552   8.961   0.517
 2167SOL    HW116540   3.566   8.908   0.433
 2167SOL    HW216541   3.605   8.921   0.592
 2168SOL     OW16542   1.119   1.978   0.616
 2168SOL    HW116543   1.089   2.041   0.545
 2168SOL    HW216544   1.071   1.998   0.701
 2169SOL     OW16545   3.493   9.999   0.422
 2169SOL    HW116546   3.425   0.002   0.349
 2169SOL    HW216547   3.456   9.949   0.500
 2170SOL     OW16548   2.000   7.127   0.891
 2170SOL    HW116549   1.921   7.074   0.920
 2170SOL    HW216550   2.083   7.071   0.900
 2171SOL     OW16551   9.043   1.293   0.846
 2171SOL    HW116552   9.132   1.258   0.875
 2171SOL    HW216553   8.986   1.308   0.927
 2172SOL     OW16554   9.356   1.101   1.818
 2172SOL    HW116555   9.320   1.014   1.786
 2172SOL    HW216556   9.398   1.150   1.741
 2173SOL     OW16557   0.065   4.197   0.841
 2173SOL    HW116558   9.999   4.261   0.803
 2173SOL    HW216559   0.023   4.145   0.915
 2174SOL     OW16560   3.417   0.126   1.470
 2174SOL    HW116561   3.337   0.150   1.415
 2174SOL    HW216562   3.408   0.033   1.504
 2175SOL     OW16563   1.126   7.971   1.621
 2175SOL    HW116564   1.166   7.947   1.532
 2175SOL    HW216565   1.026   7.970   1.613
 2176SOL     OW16566   0.439   0.019   1.849
 2176SOL    HW116567   0.530   9.995   1.816
 2176SOL    HW216568   0.397   0.085   1.787
 2177SOL     OW16569   2.347   4.253   0.489
 2177SOL    HW116570   2.321   4.229   0.582
 2177SOL    HW216571   2.447   4.253   0.481
 2178SOL     OW16572   7.717   0.102   1.554
 2178SOL    HW116573   7.718   0.140   1.646
 2178SOL    HW216574   7.794   0.040   1.542
 2179SOL     OW16575   0.125   7.439   1.444
 2179SOL    HW116576   0.038   7.487   1.434
 2179SOL    HW216577   0.111   7.341   1.427
 2180SOL     OW16578   3.503   2.694   2.123
 2180SOL    HW116579   3.525   2.791   2.128
 2180SOL    HW216580   3.572   2.641   2.172
 2181SOL     OW16581   2.837   9.146   1.076
 2181SOL    HW116582   2.857   9.103   1.164
 2181SOL    HW216583   2.921   9.149   1.021
 2182SOL     OW16584   3.459   0.392   1.540
 2182SOL    HW116585   3.554   0.416   1.560
 2182SOL    HW216586   3.454   0.296   1.513
 2183SOL     OW16587   2.075   9.277   2.144
 2183SOL    HW116588   2.002   9.335   2.108
 2183SOL    HW216589   2.067   9.186   2.104
 2184SOL     OW16590   4.369   0.331   0.778
 2184SOL    HW116591   4.368   0.235   0.751
 2184SOL    HW216592   4.341   0.339   0.874
 2185SOL     OW16593   4.128   1.543   1.218
 2185SOL    HW116594   4.046   1.526   1.272
 2185SOL    HW216595   4.207   1.498   1.260
 2186SOL     OW16596   9.224   4.582   0.369
 2186SOL    HW116597   9.261   4.663   0.415
 2186SOL    HW216598   9.218   4.600   0.270
 2187SOL     OW16599   9.034   2.734   1.724
 2187SOL    HW116600   9.097   2.809   1.702
 2187SOL    HW216601   8.987   2.706   1.641
 2188SOL     OW16602   3.078   0.050   2.177
 2188SOL    HW116603   3.159   0.019   2.227
 2188SOL    HW216604   3.039   9.974   2.125
 2189SOL     OW16605   9.102   7.381   0.647
 2189SOL    HW116606   9.040   7.309   0.615
 2189SOL    HW216607   9.125   7.441   0.570
 2190SOL     OW16608   8.689   8.595   0.719
 2190SOL    HW116609   8.695   8.619   0.622
 2190SOL    HW216610   8.745   8.513   0.735
 2191SOL     OW16611   3.465   9.121   1.998
 2191SOL    HW116612   3.383   9.065   1.996
 2191SOL    HW216613   3.525   9.095   1.922
 2192SOL     OW16614   9.711   7.578   1.697
 2192SOL    HW116615   9.787   7.643   1.698
 2192SOL    HW216616   9.694   7.546   1.791
 2193SOL     OW16617   4.784   2.418   0.801
 2193SOL    HW116618   4.694   2.384   0.774
 2193SOL    HW216619   4.776   2.470   0.886
 2194SOL     OW16620   4.169   3.823   0.561
 2194SOL    HW116621   4.212   3.752   0.505
 2194SOL    HW216622   4.237   3.891   0.588
 2195SOL     OW16623   9.680   9.244   0.620
 2195SOL    HW116624   9.702   9.299   0.700
 2195SOL    HW216625   9.765   9.217   0.574
 2196SOL     OW16626   9.645   7.257   1.260
 2196SOL    HW116627   9.580   7.322   1.299
 2196SOL    HW216628   9.618   7.164   1.285
 2197SOL     OW16629   2.549   0.512   0.620
 2197SOL    HW116630   2.626   0.477   0.567
 2197SOL    HW216631   2.466   0.463   0.594
 2198SOL     OW16632   3.255   2.786   1.132
 2198SOL    HW116633   3.333   2.796   1.194
 2198SOL    HW216634   3.286   2.744   1.047
 2199SOL     OW16635   9.608   8.974   0.635
 2199SOL    HW116636   9.523   8.951   0.588
 2199SOL    HW216637   9.629   9.070   0.620
 2200SOL     OW16638   2.813   0.725   0.576
 2200SOL    HW116639   2.826   0.695   0.671
 2200SOL    HW216640   2.725   0.771   0.567
 2201SOL     OW16641   0.486   2.210   1.563
 2201SOL    HW116642   0.511   2.305   1.579
 2201SOL    HW216643   0.407   2.186   1.620
 2202SOL     OW16644   9.736   2.744   1.882
 2202SOL    HW116645   9.790   2.668   1.919
 2202SOL    HW216646   9.769   2.830   1.920
 2203SOL     OW16647   2.722   7.465   2.340
 2203SOL    HW116648   2.800   7.475   2.400
 2203SOL    HW216649   2.753   7.435   2.249
 2204SOL     OW16650   0.949   4.537   1.594
 2204SOL    HW116651   1.002   4.461   1.631
 2204SOL    HW216652   0.965   4.544   1.495
 2205SOL     OW16653   2.961   2.706   1.441
 2205SOL    HW116654   2.866   2.737   1.443
 2205SOL    HW216655   2.979   2.648   1.521
 2206SOL     OW16656   9.428   3.878   0.690
 2206SOL    HW116657   9.521   3.847   0.713
 2206SOL    HW216658   9.385   3.917   0.772
 2207SOL     OW16659   3.135   4.158   0.971
 2207SOL    HW116660   3.169   4.239   0.923
 2207SOL    HW216661   3.212   4.101   0.999
 2208SOL     OW16662   1.762   4.846   1.385
 2208SOL    HW116663   1.767   4.898   1.300
 2208SOL    HW216664   1.676   4.866   1.432
 2209SOL     OW16665   8.779   8.814   2.091
 2209SOL    HW116666   8.690   8.778   2.121
 2209SOL    HW216667   8.805   8.771   2.004
 2210SOL     OW16668   3.281   8.927   0.572
 2210SOL    HW116669   3.244   8.844   0.530
 2210SOL    HW216670   3.376   8.939   0.544
 2211SOL     OW16671   4.296   9.586   0.521
 2211SOL    HW116672   4.233   9.619   0.592
 2211SOL    HW216673   4.316   9.660   0.457
 2212SOL     OW16674   4.695   3.207   0.512
 2212SOL    HW116675   4.601   3.230   0.539
 2212SOL    HW216676   4.695   3.123   0.459
 2213SOL     OW16677   0.647   1.324   1.749
 2213SOL    HW116678   0.571   1.362   1.802
 2213SOL    HW216679   0.665   1.230   1.779
 2214SOL     OW16680   9.756   9.129   1.174
 2214SOL    HW116681   9.703   9.070   1.235
 2214SOL    HW216682   9.749   9.095   1.080
 2215SOL     OW16683   8.545   8.884   2.261
 2215SOL    HW116684   8.604   8.963   2.240
 2215SOL    HW216685   8.536   8.875   2.360
 2216SOL     OW16686   8.870   2.163   1.904
 2216SOL    HW116687   8.966   2.149   1.926
 2216SOL    HW216688   8.827   2.074   1.884
 2217SOL     OW16689   1.773   6.337   2.044
 2217SOL    HW116690   1.740   6.354   1.952
 2217SOL    HW216691   1.760   6.240   2.067
 2218SOL     OW16692   3.391   9.577   0.712
 2218SOL    HW116693   3.370   9.507   0.644
 2218SOL    HW216694   3.482   9.560   0.750
 2219SOL     OW16695   2.653   7.125   1.509
 2219SOL    HW116696   2.719   7.197   1.490
 2219SOL    HW216697   2.587   7.157   1.577
 2220SOL     OW16698   1.766   2.903   0.442
 2220SOL    HW116699   1.866   2.903   0.437
 2220SOL    HW216700   1.735   2.985   0.489
 2221SOL     OW16701   4.110   2.599   1.493
 2221SOL    HW116702   4.199   2.620   1.534
 2221SOL    HW216703   4.047   2.571   1.565
 2222SOL     OW16704   8.373   8.762   0.697
 2222SOL    HW116705   8.290   8.716   0.668
 2222SOL    HW216706   8.379   8.761   0.797
 2223SOL     OW16707   8.879   6.061   0.581
 2223SOL    HW116708   8.920   6.138   0.629
 2223SOL    HW216709   8.948   6.018   0.522
 2224SOL     OW16710   2.337   5.362   1.620
 2224SOL    HW116711   2.411   5.429   1.627
 2224SOL    HW216712   2.356   5.285   1.680
 2225SOL     OW16713   0.989   2.090   0.833
 2225SOL    HW116714   1.006   2.040   0.917
 2225SOL    HW216715   0.891   2.109   0.824
 2226SOL     OW16716   4.097   2.702   1.244
 2226SOL    HW116717   4.107   2.801   1.248
 2226SOL    HW216718   4.089   2.665   1.337
 2227SOL     OW16719   9.226   6.977   2.156
 2227SOL    HW116720   9.177   6.988   2.070
 2227SOL    HW216721   9.286   6.898   2.150
 2228SOL     OW16722   2.471   7.087   0.955
 2228SOL    HW116723   2.518   6.999   0.959
 2228SOL    HW216724   2.488   7.137   1.040
 2229SOL     OW16725   2.900   2.919   0.422
 2229SOL    HW116726   2.809   2.940   0.456
 2229SOL    HW216727   2.918   2.821   0.432
 2230SOL     OW16728   0.735   3.905   2.202
 2230SOL    HW116729   0.797   3.914   2.124
 2230SOL    HW216730   0.694   3.994   2.222
 2231SOL     OW16731   8.169   9.690   0.598
 2231SOL    HW116732   8.235   9.765   0.605
 2231SOL    HW216733   8.216   9.603   0.608
 2232SOL     OW16734   4.452   1.048   1.012
 2232SOL    HW116735   4.431   0.951   0.998
 2232SOL    HW216736   4.368   1.102   1.007
 2233SOL     OW16737   0.171   6.616   0.759
 2233SOL    HW116738   0.146   6.550   0.830
 2233SOL    HW216739   0.140   6.581   0.670
 2234SOL     OW16740   4.063   8.699   1.393
 2234SOL    HW116741   4.026   8.652   1.473
 2234SOL    HW216742   4.050   8.642   1.311
 2235SOL     OW16743   2.394   5.974   2.137
 2235SOL    HW116744   2.316   6.036   2.133
 2235SOL    HW216745   2.479   6.027   2.135
 2236SOL     OW16746   3.865   3.744   1.949
 2236SOL    HW116747   3.837   3.675   1.882
 2236SOL    HW216748   3.788   3.807   1.965
 2237SOL     OW16749   3.126   1.778   2.254
 2237SOL    HW116750   3.192   1.753   2.325
 2237SOL    HW216751   3.050   1.713   2.255
 2238SOL     OW16752   0.653   5.367   2.204
 2238SOL    HW116753   0.626   5.280   2.246
 2238SOL    HW216754   0.741   5.396   2.243
 2239SOL     OW16755   9.682   3.790   0.734
 2239SOL    HW116756   9.663   3.696   0.707
 2239SOL    HW216757   9.776   3.797   0.768
 2240SOL     OW16758   9.911   7.211   0.597
 2240SOL    HW116759   9.875   7.157   0.673
 2240SOL    HW216760   9.966   7.286   0.632
 2241SOL     OW16761   0.749   4.386   2.171
 2241SOL    HW116762   0.787   4.356   2.083
 2241SOL    HW216763   0.799   4.465   2.204
 2242SOL     OW16764   1.779   3.228   1.547
 2242SOL    HW116765   1.745   3.145   1.502
 2242SOL    HW216766   1.860   3.261   1.500
 2243SOL     OW16767   9.877   4.723   1.086
 2243SOL    HW116768   9.971   4.697   1.105
 2243SOL    HW216769   9.827   4.732   1.172
 2244SOL     OW16770   0.920   7.215   1.310
 2244SOL    HW116771   1.005   7.187   1.356
 2244SOL    HW216772   0.928   7.310   1.280
 2245SOL     OW16773   2.978   5.295   1.575
 2245SOL    HW116774   2.989   5.204   1.614
 2245SOL    HW216775   2.881   5.321   1.577
 2246SOL     OW16776   2.503   5.403   1.200
 2246SOL    HW116777   2.412   5.418   1.238
 2246SOL    HW216778   2.500   5.411   1.100
 2247SOL     OW16779   9.854   3.557   0.495
 2247SOL    HW116780   9.762   3.563   0.532
 2247SOL    HW216781   9.881   3.647   0.459
 2248SOL     OW16782   2.766   3.688   2.300
 2248SOL    HW116783   2.859   3.725   2.299
 2248SOL    HW216784   2.701   3.762   2.281
 2249SOL     OW16785   4.374   2.229   0.936
 2249SOL    HW116786   4.318   2.146   0.929
 2249SOL    HW216787   4.420   2.231   1.025
 2250SOL     OW16788   9.879   4.389   0.776
 2250SOL    HW116789   9.809   4.353   0.714
 2250SOL    HW216790   9.834   4.426   0.858
 2251SOL     OW16791   3.087   9.658   1.935
 2251SOL    HW116792   3.026   9.724   1.979
 2251SOL    HW216793   3.083   9.670   1.836
 2252SOL     OW16794   0.747   7.169   1.853
 2252SOL    HW116795   0.721   7.201   1.762
 2252SOL    HW216796   0.814   7.095   1.844
 2253SOL     OW16797   9.462   2.879   2.177
 2253SOL    HW116798   9.368   2.913   2.189
 2253SOL    HW216799   9.516   2.948   2.129
 2254SOL     OW16800   7.642   9.952   1.928
 2254SOL    HW116801   7.611   9.899   1.850
 2254SOL    HW216802   7.734   9.923   1.954
 2255SOL     OW16803   2.327   0.358   0.551
 2255SOL    HW116804   2.306   0.266   0.518
 2255SOL    HW216805   2.299   0.367   0.646
 2256SOL     OW16806   3.270   9.504   1.572
 2256SOL    HW116807   3.349   9.501   1.633
 2256SOL    HW216808   3.209   9.428   1.592
 2257SOL     OW16809   9.778   8.880   1.623
 2257SOL    HW116810   9.868   8.890   1.580
 2257SOL    HW216811   9.769   8.948   1.696
 2258SOL     OW16812   1.997   6.773   1.555
 2258SOL    HW116813   1.928   6.723   1.608
 2258SOL    HW216814   1.965   6.865   1.537
 2259SOL     OW16815   7.958   0.478   1.579
 2259SOL    HW116816   7.984   0.490   1.483
 2259SOL    HW216817   8.040   0.462   1.634
 2260SOL     OW16818   2.658   1.566   0.997
 2260SOL    HW116819   2.569   1.523   1.007
 2260SOL    HW216820   2.697   1.542   0.908
 2261SOL     OW16821   1.604   0.856   0.410
 2261SOL    HW116822   1.671   0.838   0.338
 2261SOL    HW216823   1.531   0.787   0.405
 2262SOL     OW16824   9.568   7.055   1.781
 2262SOL    HW116825   9.643   7.093   1.727
 2262SOL    HW216826   9.523   7.128   1.832
 2263SOL     OW16827   4.086   0.554   1.206
 2263SOL    HW116828   4.092   0.601   1.118
 2263SOL    HW216829   3.995   0.566   1.244
 2264SOL     OW16830   2.440   3.828   2.050
 2264SOL    HW116831   2.345   3.860   2.056
 2264SOL    HW216832   2.489   3.855   2.133
 2265SOL     OW16833   1.904   4.432   0.313
 2265SOL    HW116834   1.996   4.444   0.351
 2265SOL    HW216835   1.908   4.432   0.214
 2266SOL     OW16836   0.157   5.184   0.453
 2266SOL    HW116837   0.057   5.186   0.451
 2266SOL    HW216838   0.190   5.102   0.405
 2267SOL     OW16839   0.056   7.729   1.194
 2267SOL    HW116840   0.072   7.800   1.125
 2267SOL    HW216841   0.136   7.670   1.200
 2268SOL     OW16842   0.328   9.114   1.143
 2268SOL    HW116843   0.358   9.140   1.051
 2268SOL    HW216844   0.281   9.192   1.185
 2269SOL     OW16845   8.780   8.940   1.316
 2269SOL    HW116846   8.852   8.916   1.251
 2269SOL    HW216847   8.810   9.017   1.372
 2270SOL     OW16848   1.407   2.146   1.778
 2270SOL    HW116849   1.373   2.088   1.703
 2270SOL    HW216850   1.371   2.238   1.768
 2271SOL     OW16851   9.182   7.545   0.433
 2271SOL    HW116852   9.196   7.643   0.446
 2271SOL    HW216853   9.248   7.511   0.366
 2272SOL     OW16854   0.058   5.123   1.761
 2272SOL    HW116855   9.982   5.188   1.759
 2272SOL    HW216856   0.038   5.049   1.825
 2273SOL     OW16857   1.779   9.620   0.814
 2273SOL    HW116858   1.742   9.702   0.858
 2273SOL    HW216859   1.834   9.568   0.879
 2274SOL     OW16860   9.113   0.478   0.788
 2274SOL    HW116861   9.051   0.555   0.772
 2274SOL    HW216862   9.059   0.397   0.812
 2275SOL     OW16863   3.606   9.820   1.930
 2275SOL    HW116864   3.616   9.823   1.831
 2275SOL    HW216865   3.617   9.913   1.968
 2276SOL     OW16866   2.206   5.247   0.365
 2276SOL    HW116867   2.108   5.264   0.352
 2276SOL    HW216868   2.254   5.334   0.374
 2277SOL     OW16869   1.802   2.625   0.486
 2277SOL    HW116870   1.793   2.718   0.452
 2277SOL    HW216871   1.770   2.620   0.581
 2278SOL     OW16872   9.711   2.427   1.297
 2278SOL    HW116873   9.680   2.348   1.350
 2278SOL    HW216874   9.670   2.425   1.206
 2279SOL     OW16875   2.944   7.799   0.645
 2279SOL    HW116876   3.016   7.841   0.590
 2279SOL    HW216877   2.968   7.805   0.742
 2280SOL     OW16878   1.485   9.640   1.351
 2280SOL    HW116879   1.419   9.649   1.425
 2280SOL    HW216880   1.442   9.665   1.264
 2281SOL     OW16881   2.760   8.392   1.309
 2281SOL    HW116882   2.710   8.426   1.229
 2281SOL    HW216883   2.800   8.470   1.359
 2282SOL     OW16884   0.938   1.119   1.739
 2282SOL    HW116885   0.995   1.107   1.820
 2282SOL    HW216886   0.842   1.106   1.764
 2283SOL     OW16887   4.365   0.786   0.996
 2283SOL    HW116888   4.276   0.744   0.978
 2283SOL    HW216889   4.438   0.726   0.962
 2284SOL     OW16890   9.859   0.843   0.676
 2284SOL    HW116891   9.801   0.842   0.757
 2284SOL    HW216892   9.892   0.936   0.659
 2285SOL     OW16893   2.937   9.226   0.514
 2285SOL    HW116894   2.996   9.279   0.452
 2285SOL    HW216895   2.843   9.228   0.479
 2286SOL     OW16896   8.594   6.576   0.621
 2286SOL    HW116897   8.634   6.529   0.699
 2286SOL    HW216898   8.604   6.519   0.539
 2287SOL     OW16899   1.467   0.397   2.197
 2287SOL    HW116900   1.372   0.366   2.192
 2287SOL    HW216901   1.526   0.318   2.218
 2288SOL     OW16902   3.186   4.370   1.951
 2288SOL    HW116903   3.088   4.364   1.970
 2288SOL    HW216904   3.201   4.437   1.879
 2289SOL     OW16905   2.647   2.419   0.770
 2289SOL    HW116906   2.657   2.320   0.762
 2289SOL    HW216907   2.735   2.459   0.794
 2290SOL     OW16908   1.476   9.773   1.897
 2290SOL    HW116909   1.487   9.815   1.808
 2290SOL    HW216910   1.384   9.792   1.932
 2291SOL     OW16911   2.874   6.782   0.445
 2291SOL    HW116912   2.932   6.724   0.502
 2291SOL    HW216913   2.826   6.847   0.503
 2292SOL     OW16914   1.266   6.462   0.682
 2292SOL    HW116915   1.256   6.546   0.628
 2292SOL    HW216916   1.354   6.463   0.729
 2293SOL     OW16917   7.876   8.339   1.286
 2293SOL    HW116918   7.843   8.396   1.361
 2293SOL    HW216919   7.810   8.265   1.268
 2294SOL     OW16920   0.648   4.977   2.149
 2294SOL    HW116921   0.620   4.882   2.138
 2294SOL    HW216922   0.573   5.030   2.190
 2295SOL     OW16923   3.560   5.127   2.064
 2295SOL    HW116924   3.614   5.181   1.999
 2295SOL    HW216925   3.475   5.099   2.022
 2296SOL     OW16926   1.397   9.719   1.105
 2296SOL    HW116927   1.443   9.657   1.041
 2296SOL    HW216928   1.444   9.807   1.104
 2297SOL     OW16929   1.361   9.368   1.829
 2297SOL    HW116930   1.367   9.374   1.729
 2297SOL    HW216931   1.313   9.448   1.865
 2298SOL     OW16932   8.838   1.510   0.582
 2298SOL    HW116933   8.859   1.597   0.537
 2298SOL    HW216934   8.922   1.457   0.593
 2299SOL     OW16935   2.579   1.541   1.975
 2299SOL    HW116936   2.589   1.445   2.001
 2299SOL    HW216937   2.554   1.595   2.056
 2300SOL     OW16938   2.596   5.213   2.244
 2300SOL    HW116939   2.556   5.268   2.317
 2300SOL    HW216940   2.602   5.117   2.273
 2301SOL     OW16941   0.975   5.158   1.653
 2301SOL    HW116942   0.913   5.219   1.604
 2301SOL    HW216943   1.061   5.148   1.602
 2302SOL     OW16944   3.383   0.024   1.792
 2302SOL    HW116945   3.304   0.085   1.789
 2302SOL    HW216946   3.387   9.969   1.709
 2303SOL     OW16947   0.500   2.546   2.121
 2303SOL    HW116948   0.586   2.574   2.165
 2303SOL    HW216949   0.456   2.475   2.175
 2304SOL     OW16950   3.308   8.931   1.529
 2304SOL    HW116951   3.331   8.896   1.620
 2304SOL    HW216952   3.385   8.918   1.467
 2305SOL     OW16953   0.310   5.011   1.990
 2305SOL    HW116954   0.374   5.023   1.915
 2305SOL    HW216955   0.286   5.101   2.029
 2306SOL     OW16956   3.820   9.341   2.056
 2306SOL    HW116957   3.776   9.431   2.048
 2306SOL    HW216958   3.762   9.281   2.111
 2307SOL     OW16959   8.747   2.755   0.777
 2307SOL    HW116960   8.747   2.670   0.829
 2307SOL    HW216961   8.654   2.791   0.772
 2308SOL     OW16962   8.579   7.075   0.709
 2308SOL    HW116963   8.658   7.137   0.718
 2308SOL    HW216964   8.609   6.990   0.666
 2309SOL     OW16965   9.453   1.191   1.578
 2309SOL    HW116966   9.363   1.207   1.537
 2309SOL    HW216967   9.485   1.099   1.553
 2310SOL     OW16968   3.911   3.233   0.543
 2310SOL    HW116969   3.939   3.215   0.449
 2310SOL    HW216970   3.831   3.293   0.543
 2311SOL     OW16971   0.352   3.108   1.812
 2311SOL    HW116972   0.442   3.089   1.773
 2311SOL    HW216973   0.360   3.180   1.882
 2312SOL     OW16974   1.394   3.766   0.517
 2312SOL    HW116975   1.397   3.852   0.465
 2312SOL    HW216976   1.371   3.786   0.612
 2313SOL     OW16977   0.103   9.661   0.647
 2313SOL    HW116978   0.023   9.625   0.600
 2313SOL    HW216979   0.134   9.745   0.602
 2314SOL     OW16980   2.089   5.644   1.129
 2314SOL    HW116981   2.054   5.737   1.120
 2314SOL    HW216982   2.024   5.587   1.179
 2315SOL     OW16983   9.843   5.895   1.086
 2315SOL    HW116984   9.861   5.837   1.165
 2315SOL    HW216985   9.921   5.892   1.024
 2316SOL     OW16986   1.160   1.787   1.741
 2316SOL    HW116987   1.252   1.752   1.757
 2316SOL    HW216988   1.094   1.712   1.745
 2317SOL     OW16989   0.343   2.773   2.065
 2317SOL    HW116990   0.409   2.845   2.047
 2317SOL    HW216991   0.391   2.688   2.087
 2318SOL     OW16992   4.372   8.714   0.427
 2318SOL    HW116993   4.421   8.659   0.358
 2318SOL    HW216994   4.342   8.655   0.501
 2319SOL     OW16995   1.718   9.856   0.950
 2319SOL    HW116996   1.756   9.940   0.912
 2319SOL    HW216997   1.649   9.879   1.019
 2320SOL     OW16998   9.573   5.498   0.928
 2320SOL    HW116999   9.591   5.415   0.876
 2320SOL    HW217000   9.616   5.491   1.018
 2321SOL     OW17001   9.357   8.226   0.759
 2321SOL    HW117002   9.355   8.199   0.855
 2321SOL    HW217003   9.447   8.206   0.720
 2322SOL     OW17004   9.614   5.371   1.560
 2322SOL    HW117005   9.689   5.338   1.618
 2322SOL    HW217006   9.623   5.333   1.468
 2323SOL     OW17007   8.639   7.402   1.580
 2323SOL    HW117008   8.574   7.460   1.629
 2323SOL    HW217009   8.636   7.423   1.482
 2324SOL     OW17010   4.441   3.050   0.636
 2324SOL    HW117011   4.363   3.063   0.574
 2324SOL    HW217012   4.447   3.128   0.699
 2325SOL     OW17013   8.855   8.106   0.691
 2325SOL    HW117014   8.796   8.030   0.718
 2325SOL    HW217015   8.936   8.108   0.751
 2326SOL     OW17016   9.184   5.194   1.328
 2326SOL    HW117017   9.193   5.264   1.258
 2326SOL    HW217018   9.249   5.212   1.402
 2327SOL     OW17019   3.769   9.555   1.652
 2327SOL    HW117020   3.822   9.490   1.705
 2327SOL    HW217021   3.810   9.567   1.562
 2328SOL     OW17022   1.993   3.061   1.851
 2328SOL    HW117023   2.029   3.101   1.936
 2328SOL    HW217024   1.893   3.062   1.854
 2329SOL     OW17025   0.632   9.357   0.846
 2329SOL    HW117026   0.727   9.379   0.823
 2329SOL    HW217027   0.620   9.358   0.945
 2330SOL     OW17028   2.111   5.569   0.660
 2330SOL    HW117029   2.077   5.565   0.754
 2330SOL    HW217030   2.058   5.507   0.602
 2331SOL     OW17031   1.178   8.461   1.607
 2331SOL    HW117032   1.230   8.443   1.523
 2331SOL    HW217033   1.141   8.374   1.641
 2332SOL     OW17034   7.951   0.853   0.666
 2332SOL    HW117035   7.943   0.791   0.588
 2332SOL    HW217036   7.861   0.866   0.708
 2333SOL     OW17037   5.448   3.728   0.705
 2333SOL    HW117038   5.396   3.762   0.627
 2333SOL    HW217039   5.388   3.671   0.762
 2334SOL     OW17040   9.731   4.631   1.907
 2334SOL    HW117041   9.721   4.572   1.987
 2334SOL    HW217042   9.733   4.575   1.824
 2335SOL     OW17043   2.529   1.678   2.207
 2335SOL    HW117044   2.597   1.619   2.251
 2335SOL    HW217045   2.437   1.645   2.228
 2336SOL     OW17046   1.001   9.118   0.923
 2336SOL    HW117047   1.084   9.141   0.873
 2336SOL    HW217048   0.975   9.195   0.981
 2337SOL     OW17049   1.336   2.960   2.242
 2337SOL    HW117050   1.285   3.042   2.215
 2337SOL    HW217051   1.294   2.880   2.200
 2338SOL     OW17052   1.422   2.482   0.307
 2338SOL    HW117053   1.508   2.453   0.349
 2338SOL    HW217054   1.440   2.520   0.216
 2339SOL     OW17055   9.622   5.978   0.942
 2339SOL    HW117056   9.702   5.950   0.996
 2339SOL    HW217057   9.574   5.897   0.909
 2340SOL     OW17058   1.874   2.818   1.368
 2340SOL    HW117059   1.968   2.794   1.346
 2340SOL    HW217060   1.822   2.735   1.388
 2341SOL     OW17061   0.577   8.605   0.923
 2341SOL    HW117062   0.604   8.700   0.941
 2341SOL    HW217063   0.486   8.588   0.962
 2342SOL     OW17064   3.575   8.156   1.133
 2342SOL    HW117065   3.532   8.198   1.053
 2342SOL    HW217066   3.516   8.167   1.212
 2343SOL     OW17067   2.010   0.092   0.647
 2343SOL    HW117068   2.002   0.190   0.665
 2343SOL    HW217069   1.937   0.063   0.585
 2344SOL     OW17070   1.986   5.995   0.845
 2344SOL    HW117071   1.958   5.932   0.918
 2344SOL    HW217072   2.030   5.943   0.772
 2345SOL     OW17073   2.652   1.877   0.668
 2345SOL    HW117074   2.745   1.842   0.654
 2345SOL    HW217075   2.657   1.972   0.699
 2346SOL     OW17076   3.201   8.083   1.158
 2346SOL    HW117077   3.263   8.153   1.192
 2346SOL    HW217078   3.241   7.993   1.172
 2347SOL     OW17079   4.531   3.285   1.406
 2347SOL    HW117080   4.573   3.325   1.487
 2347SOL    HW217081   4.434   3.265   1.424
 2348SOL     OW17082   8.805   0.219   1.043
 2348SOL    HW117083   8.772   0.247   1.133
 2348SOL    HW217084   8.731   0.228   0.976
 2349SOL     OW17085   2.376   6.943   1.247
 2349SOL    HW117086   2.303   6.891   1.203
 2349SOL    HW217087   2.339   6.994   1.325
 2350SOL     OW17088   2.533   8.098   2.115
 2350SOL    HW117089   2.451   8.089   2.059
 2350SOL    HW217090   2.593   8.168   2.077
 2351SOL     OW17091   2.327   4.542   1.848
 2351SOL    HW117092   2.359   4.449   1.864
 2351SOL    HW217093   2.270   4.544   1.766
 2352SOL     OW17094   8.250   9.442   1.308
 2352SOL    HW117095   8.242   9.364   1.370
 2352SOL    HW217096   8.174   9.504   1.324
 2353SOL     OW17097   2.199   5.176   1.220
 2353SOL    HW117098   2.213   5.275   1.227
 2353SOL    HW217099   2.236   5.131   1.302
 2354SOL     OW17100   3.828   9.753   1.074
 2354SOL    HW117101   3.795   9.825   1.013
 2354SOL    HW217102   3.802   9.773   1.168
 2355SOL     OW17103   9.049   0.555   1.899
 2355SOL    HW117104   8.950   0.555   1.909
 2355SOL    HW217105   9.088   0.631   1.952
 2356SOL     OW17106   2.622   3.165   1.399
 2356SOL    HW117107   2.682   3.121   1.466
 2356SOL    HW217108   2.538   3.194   1.444
 2357SOL     OW17109   4.245   0.342   1.028
 2357SOL    HW117110   4.236   0.422   1.087
 2357SOL    HW217111   4.155   0.318   0.991
 2358SOL     OW17112   2.688   7.882   0.664
 2358SOL    HW117113   2.677   7.962   0.605
 2358SOL    HW217114   2.781   7.846   0.654
 2359SOL     OW17115   9.034   7.389   2.114
 2359SOL    HW117116   8.963   7.321   2.093
 2359SOL    HW217117   9.073   7.370   2.204
 2360SOL     OW17118   1.528   8.984   2.242
 2360SOL    HW117119   1.497   9.006   2.150
 2360SOL    HW217120   1.482   8.901   2.273
 2361SOL     OW17121   0.073   5.913   0.948
 2361SOL    HW117122   0.168   5.942   0.954
 2361SOL    HW217123   0.061   5.850   0.871
 2362SOL     OW17124   2.518   0.899   0.304
 2362SOL    HW117125   2.596   0.869   0.250
 2362SOL    HW217126   2.538   0.987   0.347
 2363SOL     OW17127   1.965   7.596   2.273
 2363SOL    HW117128   2.055   7.555   2.263
 2363SOL    HW217129   1.967   7.665   2.345
 2364SOL     OW17130   2.049   0.556   1.535
 2364SOL    HW117131   2.131   0.595   1.495
 2364SOL    HW217132   2.074   0.478   1.593
 2365SOL     OW17133   9.153   7.974   1.553
 2365SOL    HW117134   9.066   8.025   1.548
 2365SOL    HW217135   9.221   8.030   1.601
 2366SOL     OW17136   0.375   8.609   1.818
 2366SOL    HW117137   0.401   8.520   1.856
 2366SOL    HW217138   0.422   8.681   1.869
 2367SOL     OW17139   2.561   9.802   1.980
 2367SOL    HW117140   2.550   9.871   1.908
 2367SOL    HW217141   2.593   9.717   1.940
 2368SOL     OW17142   3.167   0.844   1.104
 2368SOL    HW117143   3.091   0.835   1.039
 2368SOL    HW217144   3.132   0.844   1.197
 2369SOL     OW17145   8.849   9.180   1.813
 2369SOL    HW117146   8.785   9.212   1.743
 2369SOL    HW217147   8.839   9.236   1.896
 2370SOL     OW17148   4.447   3.304   0.753
 2370SOL    HW117149   4.517   3.288   0.822
 2370SOL    HW217150   4.390   3.382   0.780
 2371SOL     OW17151   9.457   7.069   1.042
 2371SOL    HW117152   9.487   7.161   1.016
 2371SOL    HW217153   9.477   7.005   0.967
 2372SOL     OW17154   8.242   8.337   1.984
 2372SOL    HW117155   8.194   8.407   1.932
 2372SOL    HW217156   8.240   8.251   1.933
 2373SOL     OW17157   9.522   9.718   0.508
 2373SOL    HW117158   9.589   9.784   0.543
 2373SOL    HW217159   9.567   9.630   0.492
 2374SOL     OW17160   3.024   5.502   1.752
 2374SOL    HW117161   3.088   5.468   1.821
 2374SOL    HW217162   3.012   5.433   1.681
 2375SOL     OW17163   9.644   5.274   1.311
 2375SOL    HW117164   9.658   5.344   1.240
 2375SOL    HW217165   9.610   5.190   1.268
 2376SOL     OW17166   1.531   4.993   1.911
 2376SOL    HW117167   1.527   4.926   1.986
 2376SOL    HW217168   1.453   4.981   1.851
 2377SOL     OW17169   3.621   0.344   1.184
 2377SOL    HW117170   3.676   0.329   1.266
 2377SOL    HW217171   3.589   0.255   1.149
 2378SOL     OW17172   3.678   3.314   0.864
 2378SOL    HW117173   3.767   3.355   0.883
 2378SOL    HW217174   3.605   3.371   0.902
 2379SOL     OW17175   2.701   8.092   0.478
 2379SOL    HW117176   2.629   8.157   0.499
 2379SOL    HW217177   2.684   8.050   0.389
 2380SOL     OW17178   1.877   4.394   1.793
 2380SOL    HW117179   1.822   4.390   1.709
 2380SOL    HW217180   1.832   4.342   1.865
 2381SOL     OW17181   1.255   6.130   1.379
 2381SOL    HW117182   1.320   6.196   1.417
 2381SOL    HW217183   1.162   6.167   1.385
 2382SOL     OW17184   4.467   3.674   0.653
 2382SOL    HW117185   4.399   3.621   0.702
 2382SOL    HW217186   4.488   3.757   0.705
 2383SOL     OW17187   7.553   9.943   0.962
 2383SOL    HW117188   7.507   0.032   0.959
 2383SOL    HW217189   7.568   9.910   0.869
 2384SOL     OW17190   0.979   1.073   1.087
 2384SOL    HW117191   0.941   1.058   0.996
 2384SOL    HW217192   1.079   1.063   1.084
 2385SOL     OW17193   8.734   7.037   0.406
 2385SOL    HW117194   8.708   6.964   0.469
 2385SOL    HW217195   8.654   7.063   0.351
 2386SOL     OW17196   9.676   8.712   0.725
 2386SOL    HW117197   9.648   8.802   0.692
 2386SOL    HW217198   9.631   8.641   0.672
 2387SOL     OW17199   2.329   0.043   0.940
 2387SOL    HW117200   2.270   0.003   0.870
 2387SOL    HW217201   2.285   0.124   0.978
 2388SOL     OW17202   8.826   0.340   0.447
 2388SOL    HW117203   8.915   0.318   0.408
 2388SOL    HW217204   8.817   0.439   0.458
 2389SOL     OW17205   2.264   5.080   0.970
 2389SOL    HW117206   2.261   4.980   0.972
 2389SOL    HW217207   2.242   5.116   1.061
 2390SOL     OW17208   1.249   3.981   2.128
 2390SOL    HW117209   1.328   4.016   2.180
 2390SOL    HW217210   1.183   4.054   2.115
 2391SOL     OW17211   3.270   3.690   2.002
 2391SOL    HW117212   3.268   3.683   1.903
 2391SOL    HW217213   3.258   3.785   2.030
 2392SOL     OW17214   2.340   9.118   0.468
 2392SOL    HW117215   2.248   9.086   0.445
 2392SOL    HW217216   2.406   9.046   0.447
 2393SOL     OW17217   2.752   0.025   1.632
 2393SOL    HW117218   2.836   0.004   1.682
 2393SOL    HW217219   2.761   0.114   1.587
 2394SOL     OW17220   2.332   7.498   1.484
 2394SOL    HW117221   2.401   7.520   1.414
 2394SOL    HW217222   2.374   7.501   1.574
 2395SOL     OW17223   0.873   7.284   0.529
 2395SOL    HW117224   0.967   7.280   0.562
 2395SOL    HW217225   0.845   7.193   0.499
 2396SOL     OW17226   9.708   0.733   1.161
 2396SOL    HW117227   9.626   0.676   1.163
 2396SOL    HW217228   9.690   0.820   1.206
 2397SOL     OW17229   2.507   6.608   0.822
 2397SOL    HW117230   2.427   6.599   0.882
 2397SOL    HW217231   2.494   6.552   0.740
 2398SOL     OW17232   9.684   3.906   1.359
 2398SOL    HW117233   9.648   3.920   1.451
 2398SOL    HW217234   9.783   3.892   1.364
 2399SOL     OW17235   0.532   9.494   2.010
 2399SOL    HW117236   0.517   9.531   1.919
 2399SOL    HW217237   0.445   9.458   2.046
 2400SOL     OW17238   1.032   1.963   1.070
 2400SOL    HW117239   1.004   2.025   1.143
 2400SOL    HW217240   0.976   1.880   1.072
 2401SOL     OW17241   3.032   4.238   1.540
 2401SOL    HW117242   2.995   4.156   1.583
 2401SOL    HW217243   2.984   4.255   1.454
 2402SOL     OW17244   9.711   1.361   2.184
 2402SOL    HW117245   9.639   1.430   2.193
 2402SOL    HW217246   9.693   1.303   2.104
 2403SOL     OW17247   9.831   6.078   1.752
 2403SOL    HW117248   9.910   6.089   1.691
 2403SOL    HW217249   9.839   6.142   1.828
 2404SOL     OW17250   1.301   2.253   0.407
 2404SOL    HW117251   1.325   2.335   0.355
 2404SOL    HW217252   1.372   2.233   0.474
 2405SOL     OW17253   0.347   1.606   1.794
 2405SOL    HW117254   0.360   1.676   1.865
 2405SOL    HW217255   0.375   1.517   1.830
 2406SOL     OW17256   1.524   9.971   1.124
 2406SOL    HW117257   1.592   0.005   1.189
 2406SOL    HW217258   1.440   0.025   1.132
 2407SOL     OW17259   1.968   2.392   1.415
 2407SOL    HW117260   1.982   2.436   1.504
 2407SOL    HW217261   2.037   2.424   1.351
 2408SOL     OW17262   3.753   3.931   1.634
 2408SOL    HW117263   3.719   3.963   1.546
 2408SOL    HW217264   3.836   3.876   1.619
 2409SOL     OW17265   3.904   2.228   1.548
 2409SOL    HW117266   3.948   2.150   1.593
 2409SOL    HW217267   3.965   2.266   1.479
 2410SOL     OW17268   3.508   3.016   1.083
 2410SOL    HW117269   3.452   2.985   1.006
 2410SOL    HW217270   3.601   3.033   1.051
 2411SOL     OW17271   1.535   4.840   2.145
 2411SOL    HW117272   1.621   4.790   2.149
 2411SOL    HW217273   1.532   4.907   2.220
 2412SOL     OW17274   2.233   9.817   1.089
 2412SOL    HW117275   2.144   9.810   1.044
 2412SOL    HW217276   2.292   9.879   1.037
 2413SOL     OW17277   0.226   7.927   2.135
 2413SOL    HW117278   0.148   7.982   2.163
 2413SOL    HW217279   0.306   7.986   2.124
 2414SOL     OW17280   3.414   3.664   1.237
 2414SOL    HW117281   3.334   3.698   1.287
 2414SOL    HW217282   3.399   3.568   1.214
 2415SOL     OW17283   9.895   7.141   1.927
 2415SOL    HW117284   9.970   7.192   1.970
 2415SOL    HW217285   9.927   7.049   1.905
 2416SOL     OW17286   9.253   8.291   1.864
 2416SOL    HW117287   9.207   8.361   1.808
 2416SOL    HW217288   9.285   8.333   1.949
 2417SOL     OW17289   2.479   3.980   1.594
 2417SOL    HW117290   2.381   3.981   1.573
 2417SOL    HW217291   2.522   3.901   1.551
 2418SOL     OW17292   9.294   7.503   1.136
 2418SOL    HW117293   9.217   7.438   1.136
 2418SOL    HW217294   9.352   7.486   1.215
 2419SOL     OW17295   1.747   3.838   1.573
 2419SOL    HW117296   1.765   3.741   1.561
 2419SOL    HW217297   1.723   3.879   1.485
 2420SOL     OW17298   2.660   3.459   2.190
 2420SOL    HW117299   2.704   3.531   2.243
 2420SOL    HW217300   2.606   3.500   2.116
 2421SOL     OW17301   9.875   3.644   1.499
 2421SOL    HW117302   9.947   3.610   1.560
 2421SOL    HW217303   9.787   3.637   1.544
 2422SOL     OW17304   0.938   9.544   1.773
 2422SOL    HW117305   0.887   9.489   1.840
 2422SOL    HW217306   0.921   9.510   1.681
 2423SOL     OW17307   2.217   7.843   1.445
 2423SOL    HW117308   2.277   7.766   1.465
 2423SOL    HW217309   2.270   7.927   1.441
 2424SOL     OW17310   2.577   3.047   1.975
 2424SOL    HW117311   2.673   3.030   1.996
 2424SOL    HW217312   2.542   3.118   2.035
 2425SOL     OW17313   3.781   2.163   1.223
 2425SOL    HW117314   3.878   2.146   1.240
 2425SOL    HW217315   3.764   2.160   1.125
 2426SOL     OW17316   9.302   5.416   0.543
 2426SOL    HW117317   9.392   5.451   0.517
 2426SOL    HW217318   9.293   5.419   0.642
 2427SOL     OW17319   1.580   8.840   0.402
 2427SOL    HW117320   1.511   8.899   0.444
 2427SOL    HW217321   1.564   8.833   0.304
 2428SOL     OW17322   9.416   4.999   2.108
 2428SOL    HW117323   9.352   4.967   2.178
 2428SOL    HW217324   9.484   4.928   2.091
 2429SOL     OW17325   4.045   0.009   0.978
 2429SOL    HW117326   4.067   9.981   0.885
 2429SOL    HW217327   4.102   9.958   1.043
 2430SOL     OW17328   0.598   9.359   1.111
 2430SOL    HW117329   0.562   9.443   1.150
 2430SOL    HW217330   0.625   9.297   1.185
 2431SOL     OW17331   3.979   1.405   2.277
 2431SOL    HW117332   3.994   1.314   2.314
 2431SOL    HW217333   3.905   1.450   2.328
 2432SOL     OW17334   1.061   1.090   0.457
 2432SOL    HW117335   1.145   1.142   0.471
 2432SOL    HW217336   1.054   1.019   0.527
 2433SOL     OW17337   8.454   9.963   2.200
 2433SOL    HW117338   8.507   0.039   2.238
 2433SOL    HW217339   8.383   9.936   2.265
 2434SOL     OW17340   8.674   2.726   1.751
 2434SOL    HW117341   8.728   2.663   1.695
 2434SOL    HW217342   8.731   2.766   1.823
 2435SOL     OW17343   9.360   2.298   1.499
 2435SOL    HW117344   9.286   2.248   1.454
 2435SOL    HW217345   9.378   2.258   1.588
 2436SOL     OW17346   1.824   9.257   1.693
 2436SOL    HW117347   1.906   9.302   1.727
 2436SOL    HW217348   1.849   9.176   1.640
 2437SOL     OW17349   2.796   5.533   1.906
 2437SOL    HW117350   2.881   5.525   1.855
 2437SOL    HW217351   2.807   5.493   1.998
 2438SOL     OW17352   4.048   2.125   1.246
 2438SOL    HW117353   4.110   2.104   1.170
 2438SOL    HW217354   4.081   2.207   1.293
 2439SOL     OW17355   8.475   7.580   1.698
 2439SOL    HW117356   8.401   7.588   1.765
 2439SOL    HW217357   8.483   7.666   1.647
 2440SOL     OW17358   9.560   0.123   0.730
 2440SOL    HW117359   9.540   0.221   0.729
 2440SOL    HW217360   9.613   0.101   0.812
 2441SOL     OW17361   0.649   2.192   1.067
 2441SOL    HW117362   0.630   2.104   1.113
 2441SOL    HW217363   0.588   2.262   1.105
 2442SOL     OW17364   9.067   8.496   1.276
 2442SOL    HW117365   9.145   8.509   1.214
 2442SOL    HW217366   9.089   8.425   1.343
 2443SOL     OW17367   8.129   0.693   0.800
 2443SOL    HW117368   8.068   0.760   0.758
 2443SOL    HW217369   8.153   0.623   0.733
 2444SOL     OW17370   1.196   5.126   1.490
 2444SOL    HW117371   1.291   5.148   1.472
 2444SOL    HW217372   1.152   5.093   1.406
 2445SOL     OW17373   9.539   5.530   0.487
 2445SOL    HW117374   9.620   5.477   0.461
 2445SOL    HW217375   9.566   5.606   0.546
 2446SOL     OW17376   1.337   8.774   2.262
 2446SOL    HW117377   1.280   8.855   2.266
 2446SOL    HW217378   1.298   8.702   2.320
 2447SOL     OW17379   2.498   6.262   1.848
 2447SOL    HW117380   2.535   6.170   1.861
 2447SOL    HW217381   2.431   6.261   1.775
 2448SOL     OW17382   3.637   3.083   1.842
 2448SOL    HW117383   3.673   3.172   1.872
 2448SOL    HW217384   3.545   3.095   1.805
 2449SOL     OW17385   4.103   3.393   2.152
 2449SOL    HW117386   4.064   3.476   2.193
 2449SOL    HW217387   4.143   3.336   2.223
 2450SOL     OW17388   7.600   9.780   1.724
 2450SOL    HW117389   7.652   9.703   1.760
 2450SOL    HW217390   7.604   9.779   1.624
 2451SOL     OW17391   2.414   9.592   2.181
 2451SOL    HW117392   2.385   9.682   2.214
 2451SOL    HW217393   2.514   9.590   2.176
 2452SOL     OW17394   2.199   2.926   2.168
 2452SOL    HW117395   2.121   2.868   2.191
 2452SOL    HW217396   2.260   2.934   2.247
 2453SOL     OW17397   4.297   0.628   1.368
 2453SOL    HW117398   4.217   0.604   1.312
 2453SOL    HW217399   4.353   0.547   1.383
 2454SOL     OW17400   4.772   3.471   0.798
 2454SOL    HW117401   4.868   3.472   0.826
 2454SOL    HW217402   4.766   3.479   0.699
 2455SOL     OW17403   1.508   9.528   0.942
 2455SOL    HW117404   1.520   9.544   0.844
 2455SOL    HW217405   1.589   9.480   0.978
 2456SOL     OW17406   8.473   9.178   2.025
 2456SOL    HW117407   8.413   9.100   2.011
 2456SOL    HW217408   8.423   9.263   2.006
 2457SOL     OW17409   3.842   0.226   1.968
 2457SOL    HW117410   3.823   0.295   2.038
 2457SOL    HW217411   3.759   0.209   1.915
 2458SOL     OW17412   2.492   5.722   2.096
 2458SOL    HW117413   2.525   5.714   2.002
 2458SOL    HW217414   2.465   5.816   2.115
 2459SOL     OW17415   0.259   8.676   1.318
 2459SOL    HW117416   0.200   8.619   1.375
 2459SOL    HW217417   0.209   8.758   1.290
 2460SOL     OW17418   1.276   3.679   0.998
 2460SOL    HW117419   1.360   3.630   1.021
 2460SOL    HW217420   1.288   3.726   0.911
 2461SOL     OW17421   2.682   4.575   0.444
 2461SOL    HW117422   2.641   4.561   0.354
 2461SOL    HW217423   2.686   4.487   0.492
 2462SOL     OW17424   3.397   4.453   2.104
 2462SOL    HW117425   3.331   4.407   2.043
 2462SOL    HW217426   3.348   4.491   2.183
 2463SOL     OW17427   1.932   8.353   2.171
 2463SOL    HW117428   2.023   8.392   2.157
 2463SOL    HW217429   1.865   8.402   2.116
 2464SOL     OW17430   9.489   2.710   0.948
 2464SOL    HW117431   9.560   2.651   0.909
 2464SOL    HW217432   9.474   2.788   0.888
 2465SOL     OW17433   9.302   3.987   0.913
 2465SOL    HW117434   9.380   3.947   0.960
 2465SOL    HW217435   9.218   3.939   0.939
 2466SOL     OW17436   1.611   2.328   2.069
 2466SOL    HW117437   1.536   2.364   2.125
 2466SOL    HW217438   1.638   2.397   2.001
 2467SOL     OW17439   8.035   7.728   1.731
 2467SOL    HW117440   7.959   7.663   1.732
 2467SOL    HW217441   7.999   7.820   1.715
 2468SOL     OW17442   1.396   0.545   1.080
 2468SOL    HW117443   1.411   0.606   1.158
 2468SOL    HW217444   1.483   0.506   1.052
 2469SOL     OW17445   1.484   1.684   2.084
 2469SOL    HW117446   1.392   1.697   2.122
 2469SOL    HW217447   1.505   1.759   2.021
 2470SOL     OW17448   2.142   4.541   1.648
 2470SOL    HW117449   2.135   4.448   1.614
 2470SOL    HW217450   2.055   4.569   1.689
 2471SOL     OW17451   1.097   4.416   1.128
 2471SOL    HW117452   1.188   4.412   1.086
 2471SOL    HW217453   1.028   4.424   1.057
 2472SOL     OW17454   3.219   8.395   1.087
 2472SOL    HW117455   3.229   8.426   1.182
 2472SOL    HW217456   3.135   8.432   1.048
 2473SOL     OW17457   2.575   0.177   0.931
 2473SOL    HW117458   2.641   0.122   0.982
 2473SOL    HW217459   2.486   0.131   0.930
 2474SOL     OW17460   2.978   8.561   1.949
 2474SOL    HW117461   3.019   8.497   2.014
 2474SOL    HW217462   3.032   8.564   1.865
 2475SOL     OW17463   9.713   2.263   0.634
 2475SOL    HW117464   9.723   2.232   0.728
 2475SOL    HW217465   9.697   2.185   0.574
 2476SOL     OW17466   3.575   0.200   1.882
 2476SOL    HW117467   3.534   0.290   1.868
 2476SOL    HW217468   3.517   0.130   1.841
 2477SOL     OW17469   3.265   3.343   0.656
 2477SOL    HW117470   3.331   3.281   0.698
 2477SOL    HW217471   3.276   3.342   0.557
 2478SOL     OW17472   1.904   9.837   1.254
 2478SOL    HW117473   1.927   9.804   1.162
 2478SOL    HW217474   1.927   9.934   1.262
 2479SOL     OW17475   8.419   1.083   1.123
 2479SOL    HW117476   8.450   0.989   1.134
 2479SOL    HW217477   8.497   1.142   1.103
 2480SOL     OW17478   1.438   0.802   1.905
 2480SOL    HW117479   1.441   0.705   1.928
 2480SOL    HW217480   1.495   0.853   1.969
 2481SOL     OW17481   9.928   9.625   2.057
 2481SOL    HW117482   9.882   9.710   2.031
 2481SOL    HW217483   0.016   9.646   2.100
 2482SOL     OW17484   8.792   1.258   1.408
 2482SOL    HW117485   8.748   1.348   1.413
 2482SOL    HW217486   8.848   1.244   1.490
 2483SOL     OW17487   2.100   8.307   0.574
 2483SOL    HW117488   2.095   8.327   0.476
 2483SOL    HW217489   2.105   8.208   0.588
 2484SOL     OW17490   0.139   2.019   1.156
 2484SOL    HW117491   0.163   1.932   1.113
 2484SOL    HW217492   0.134   2.007   1.255
 2485SOL     OW17493   1.643   7.968   0.643
 2485SOL    HW117494   1.692   7.891   0.604
 2485SOL    HW217495   1.658   8.049   0.586
 2486SOL     OW17496   1.623   9.697   0.438
 2486SOL    HW117497   1.611   9.666   0.343
 2486SOL    HW217498   1.702   9.652   0.479
 2487SOL     OW17499   1.184   6.885   1.331
 2487SOL    HW117500   1.090   6.862   1.308
 2487SOL    HW217501   1.204   6.857   1.425
 2488SOL     OW17502   4.086   1.809   1.144
 2488SOL    HW117503   4.015   1.832   1.209
 2488SOL    HW217504   4.112   1.713   1.155
 2489SOL     OW17505   9.855   5.385   0.944
 2489SOL    HW117506   9.951   5.374   0.970
 2489SOL    HW217507   9.808   5.441   1.012
 2490SOL     OW17508   3.973   2.141   2.158
 2490SOL    HW117509   4.020   2.084   2.226
 2490SOL    HW217510   3.896   2.188   2.202
 2491SOL     OW17511   8.678   9.639   1.340
 2491SOL    HW117512   8.585   9.646   1.304
 2491SOL    HW217513   8.720   9.730   1.342
 2492SOL     OW17514   3.326   9.616   1.106
 2492SOL    HW117515   3.234   9.580   1.124
 2492SOL    HW217516   3.319   9.698   1.049
 2493SOL     OW17517   3.340   9.965   2.232
 2493SOL    HW117518   3.315   9.924   2.144
 2493SOL    HW217519   3.402   0.041   2.217
 2494SOL     OW17520   9.433   6.614   0.438
 2494SOL    HW117521   9.379   6.697   0.452
 2494SOL    HW217522   9.376   6.543   0.396
 2495SOL     OW17523   9.593   9.817   1.836
 2495SOL    HW117524   9.540   9.872   1.772
 2495SOL    HW217525   9.590   9.721   1.809
 2496SOL     OW17526   9.097   6.009   0.838
 2496SOL    HW117527   9.129   5.984   0.929
 2496SOL    HW217528   9.037   5.938   0.802
 2497SOL     OW17529   2.489   6.936   0.494
 2497SOL    HW117530   2.413   6.944   0.559
 2497SOL    HW217531   2.575   6.934   0.544
 2498SOL     OW17532   2.177   0.535   1.142
 2498SOL    HW117533   2.237   0.596   1.092
 2498SOL    HW217534   2.082   0.555   1.119
 2499SOL     OW17535   9.396   9.474   1.618
 2499SOL    HW117536   9.394   9.413   1.539
 2499SOL    HW217537   9.329   9.445   1.685
 2500SOL     OW17538   3.877   3.236   2.110
 2500SOL    HW117539   3.960   3.291   2.111
 2500SOL    HW217540   3.814   3.271   2.041
 2501SOL     OW17541   3.920   9.728   2.033
 2501SOL    HW117542   3.840   9.668   2.028
 2501SOL    HW217543   3.970   9.723   1.946
 2502SOL     OW17544   9.333   7.878   1.849
 2502SOL    HW117545   9.340   7.963   1.797
 2502SOL    HW217546   9.270   7.816   1.802
 2503SOL     OW17547   3.015   3.812   2.250
 2503SOL    HW117548   2.988   3.780   2.159
 2503SOL    HW217549   3.104   3.856   2.244
 2504SOL     OW17550   0.163   8.819   0.657
 2504SOL    HW117551   0.088   8.757   0.680
 2504SOL    HW217552   0.131   8.914   0.660
 2505SOL     OW17553   0.413   6.357   1.527
 2505SOL    HW117554   0.499   6.310   1.547
 2505SOL    HW217555   0.416   6.450   1.563
 2506SOL     OW17556   2.029   9.877   1.783
 2506SOL    HW117557   1.971   9.833   1.714
 2506SOL    HW217558   2.030   9.821   1.866
 2507SOL     OW17559   4.149   9.009   1.052
 2507SOL    HW117560   4.142   8.917   1.012
 2507SOL    HW217561   4.232   9.015   1.107
 2508SOL     OW17562   3.246   8.872   1.075
 2508SOL    HW117563   3.263   8.907   0.982
 2508SOL    HW217564   3.294   8.786   1.087
 2509SOL     OW17565   7.731   0.190   1.817
 2509SOL    HW117566   7.693   0.111   1.866
 2509SOL    HW217567   7.677   0.271   1.837
 2510SOL     OW17568   0.936   2.404   1.626
 2510SOL    HW117569   1.020   2.441   1.587
 2510SOL    HW217570   0.933   2.305   1.613
 2511SOL     OW17571   2.601   8.463   1.084
 2511SOL    HW117572   2.522   8.424   1.036
 2511SOL    HW217573   2.581   8.557   1.110
 2512SOL     OW17574   8.288   8.000   0.786
 2512SOL    HW117575   8.322   7.922   0.734
 2512SOL    HW217576   8.326   8.084   0.747
 2513SOL     OW17577   7.865   9.397   1.409
 2513SOL    HW117578   7.897   9.308   1.376
 2513SOL    HW217579   7.857   9.393   1.509
 2514SOL     OW17580   0.137   4.633   1.104
 2514SOL    HW117581   0.191   4.631   1.189
 2514SOL    HW217582   0.158   4.552   1.049
 2515SOL     OW17583   4.063   5.033   0.818
 2515SOL    HW117584   4.148   4.981   0.827
 2515SOL    HW217585   4.034   5.033   0.723
 2516SOL     OW17586   2.864   5.670   0.411
 2516SOL    HW117587   2.795   5.743   0.403
 2516SOL    HW217588   2.891   5.659   0.507
 2517SOL     OW17589   2.421   8.940   1.057
 2517SOL    HW117590   2.508   8.980   1.027
 2517SOL    HW217591   2.354   8.946   0.984
 2518SOL     OW17592   9.145   9.910   1.850
 2518SOL    HW117593   9.091   9.833   1.885
 2518SOL    HW217594   9.216   9.875   1.789
 2519SOL     OW17595   8.568   0.013   1.232
 2519SOL    HW117596   8.485   9.974   1.270
 2519SOL    HW217597   8.571   9.996   1.134
 2520SOL     OW17598   3.188   1.584   0.956
 2520SOL    HW117599   3.221   1.617   0.868
 2520SOL    HW217600   3.091   1.604   0.964
 2521SOL     OW17601   3.452   9.163   1.633
 2521SOL    HW117602   3.471   9.238   1.570
 2521SOL    HW217603   3.385   9.101   1.593
 2522SOL     OW17604   8.206   9.217   1.458
 2522SOL    HW117605   8.129   9.183   1.404
 2522SOL    HW217606   8.187   9.204   1.556
 2523SOL     OW17607   4.213   9.871   1.140
 2523SOL    HW117608   4.171   9.807   1.204
 2523SOL    HW217609   4.268   9.819   1.074
 2524SOL     OW17610   0.878   3.177   0.602
 2524SOL    HW117611   0.877   3.212   0.695
 2524SOL    HW217612   0.834   3.087   0.599
 2525SOL     OW17613   0.222   3.068   1.485
 2525SOL    HW117614   0.166   3.080   1.403
 2525SOL    HW217615   0.163   3.068   1.566
 2526SOL     OW17616   8.257   7.635   1.859
 2526SOL    HW117617   8.177   7.681   1.820
 2526SOL    HW217618   8.270   7.666   1.953
 2527SOL     OW17619   3.544   7.752   0.847
 2527SOL    HW117620   3.446   7.737   0.859
 2527SOL    HW217621   3.578   7.812   0.919
 2528SOL     OW17622   8.333   9.473   0.644
 2528SOL    HW117623   8.429   9.482   0.618
 2528SOL    HW217624   8.327   9.442   0.739
 2529SOL     OW17625   8.887   7.236   0.527
 2529SOL    HW117626   8.882   7.321   0.475
 2529SOL    HW217627   8.841   7.163   0.476
 2530SOL     OW17628   2.035   6.261   0.494
 2530SOL    HW117629   2.010   6.166   0.474
 2530SOL    HW217630   2.026   6.315   0.411
 2531SOL     OW17631   0.634   3.271   0.506
 2531SOL    HW117632   0.730   3.271   0.534
 2531SOL    HW217633   0.614   3.185   0.459
 2532SOL     OW17634   8.745   6.742   1.850
 2532SOL    HW117635   8.760   6.660   1.795
 2532SOL    HW217636   8.817   6.751   1.918
 2533SOL     OW17637   5.058   3.837   1.280
 2533SOL    HW117638   5.124   3.873   1.345
 2533SOL    HW217639   4.973   3.890   1.286
 2534SOL     OW17640   1.608   3.274   1.750
 2534SOL    HW117641   1.673   3.259   1.676
 2534SOL    HW217642   1.577   3.369   1.749
 2535SOL     OW17643   1.413   7.057   1.916
 2535SOL    HW117644   1.503   7.023   1.942
 2535SOL    HW217645   1.422   7.116   1.835
 2536SOL     OW17646   3.324   5.227   0.876
 2536SOL    HW117647   3.423   5.213   0.871
 2536SOL    HW217648   3.291   5.262   0.789
 2537SOL     OW17649   2.243   0.573   0.399
 2537SOL    HW117650   2.263   0.554   0.303
 2537SOL    HW217651   2.276   0.497   0.456
 2538SOL     OW17652   9.853   4.565   1.469
 2538SOL    HW117653   9.815   4.538   1.557
 2538SOL    HW217654   9.880   4.484   1.418
 2539SOL     OW17655   3.193   2.790   0.349
 2539SOL    HW117656   3.158   2.876   0.311
 2539SOL    HW217657   3.117   2.732   0.377
 2540SOL     OW17658   2.331   5.505   2.157
 2540SOL    HW117659   2.250   5.537   2.204
 2540SOL    HW217660   2.392   5.582   2.137
 2541SOL     OW17661   0.178   8.740   1.676
 2541SOL    HW117662   0.195   8.834   1.705
 2541SOL    HW217663   0.239   8.678   1.726
 2542SOL     OW17664   0.276   4.868   2.224
 2542SOL    HW117665   0.211   4.794   2.203
 2542SOL    HW217666   0.299   4.916   2.140
 2543SOL     OW17667   1.865   8.845   0.734
 2543SOL    HW117668   1.774   8.822   0.768
 2543SOL    HW217669   1.932   8.781   0.772
 2544SOL     OW17670   1.726   5.517   1.007
 2544SOL    HW117671   1.684   5.431   0.975
 2544SOL    HW217672   1.654   5.585   1.023
 2545SOL     OW17673   9.844   5.595   1.956
 2545SOL    HW117674   9.772   5.533   1.925
 2545SOL    HW217675   9.851   5.671   1.891
 2546SOL     OW17676   5.017   3.499   0.915
 2546SOL    HW117677   4.978   3.466   1.001
 2546SOL    HW217678   5.115   3.516   0.927
 2547SOL     OW17679   2.646   3.123   0.908
 2547SOL    HW117680   2.683   3.036   0.876
 2547SOL    HW217681   2.611   3.112   1.001
 2548SOL     OW17682   2.430   3.287   0.820
 2548SOL    HW117683   2.514   3.245   0.856
 2548SOL    HW217684   2.397   3.235   0.741
 2549SOL     OW17685   9.865   0.577   0.998
 2549SOL    HW117686   9.804   0.539   0.928
 2549SOL    HW217687   9.814   0.640   1.056
 2550SOL     OW17688   3.691   0.055   1.480
 2550SOL    HW117689   3.593   0.077   1.479
 2550SOL    HW217690   3.744   0.136   1.457
 2551SOL     OW17691   0.248   5.156   1.145
 2551SOL    HW117692   0.220   5.094   1.218
 2551SOL    HW217693   0.267   5.104   1.062
 2552SOL     OW17694   2.290   7.713   1.824
 2552SOL    HW117695   2.288   7.721   1.924
 2552SOL    HW217696   2.325   7.798   1.785
 2553SOL     OW17697   0.832   8.235   1.843
 2553SOL    HW117698   0.766   8.170   1.884
 2553SOL    HW217699   0.787   8.287   1.771
 2554SOL     OW17700   2.296   1.933   1.244
 2554SOL    HW117701   2.245   1.885   1.315
 2554SOL    HW217702   2.248   2.017   1.219
 2555SOL     OW17703   1.281   1.214   0.570
 2555SOL    HW117704   1.322   1.135   0.613
 2555SOL    HW217705   1.219   1.259   0.635
 2556SOL     OW17706   2.967   2.651   0.442
 2556SOL    HW117707   2.904   2.584   0.403
 2556SOL    HW217708   3.011   2.612   0.523
 2557SOL     OW17709   4.387   1.336   2.235
 2557SOL    HW117710   4.305   1.280   2.224
 2557SOL    HW217711   4.462   1.294   2.185
 2558SOL     OW17712   0.713   0.389   1.283
 2558SOL    HW117713   0.645   0.341   1.339
 2558SOL    HW217714   0.672   0.414   1.195
 2559SOL     OW17715   2.381   3.691   0.808
 2559SOL    HW117716   2.334   3.607   0.836
 2559SOL    HW217717   2.463   3.669   0.756
 2560SOL     OW17718   8.212   7.670   1.515
 2560SOL    HW117719   8.154   7.682   1.595
 2560SOL    HW217720   8.299   7.718   1.528
 2561SOL     OW17721   0.001   5.130   2.240
 2561SOL    HW117722   9.939   5.062   2.200
 2561SOL    HW217723   9.950   5.213   2.259
 2562SOL     OW17724   1.758   8.538   0.857
 2562SOL    HW117725   1.808   8.554   0.942
 2562SOL    HW217726   1.705   8.620   0.834
 2563SOL     OW17727   8.528   2.116   1.497
 2563SOL    HW117728   8.489   2.024   1.500
 2563SOL    HW217729   8.620   2.112   1.459
 2564SOL     OW17730   4.111   2.294   1.783
 2564SOL    HW117731   4.189   2.270   1.724
 2564SOL    HW217732   4.061   2.370   1.742
 2565SOL     OW17733   8.000   8.330   0.806
 2565SOL    HW117734   8.049   8.410   0.841
 2565SOL    HW217735   7.903   8.350   0.800
 2566SOL     OW17736   1.008   9.110   1.605
 2566SOL    HW117737   1.060   9.140   1.685
 2566SOL    HW217738   0.916   9.148   1.609
 2567SOL     OW17739   7.946   9.664   2.175
 2567SOL    HW117740   8.039   9.654   2.139
 2567SOL    HW217741   7.893   9.582   2.156
 2568SOL     OW17742   9.197   2.985   0.802
 2568SOL    HW117743   9.288   2.952   0.777
 2568SOL    HW217744   9.128   2.918   0.773
 2569SOL     OW17745   0.810   8.510   1.036
 2569SOL    HW117746   0.789   8.521   1.133
 2569SOL    HW217747   0.729   8.531   0.981
 2570SOL     OW17748   1.656   4.064   0.469
 2570SOL    HW117749   1.566   4.042   0.432
 2570SOL    HW217750   1.699   3.980   0.503
 2571SOL     OW17751   0.288   0.881   1.094
 2571SOL    HW117752   0.278   0.975   1.128
 2571SOL    HW217753   0.241   0.819   1.156
 2572SOL     OW17754   0.314   0.329   0.627
 2572SOL    HW117755   0.385   0.398   0.612
 2572SOL    HW217756   0.224   0.372   0.625
 2573SOL     OW17757   3.306   5.106   0.478
 2573SOL    HW117758   3.373   5.033   0.482
 2573SOL    HW217759   3.216   5.071   0.507
 2574SOL     OW17760   0.513   8.748   1.387
 2574SOL    HW117761   0.419   8.720   1.367
 2574SOL    HW217762   0.533   8.833   1.338
 2575SOL     OW17763   0.719   6.167   1.850
 2575SOL    HW117764   0.631   6.121   1.850
 2575SOL    HW217765   0.718   6.243   1.915
 2576SOL     OW17766   0.898   9.306   1.311
 2576SOL    HW117767   0.915   9.374   1.382
 2576SOL    HW217768   0.805   9.271   1.319
 2577SOL     OW17769   2.811   4.959   0.636
 2577SOL    HW117770   2.787   5.053   0.613
 2577SOL    HW217771   2.800   4.945   0.734
 2578SOL     OW17772   1.846   1.640   0.747
 2578SOL    HW117773   1.788   1.685   0.815
 2578SOL    HW217774   1.870   1.705   0.675
 2579SOL     OW17775   1.003   6.243   1.397
 2579SOL    HW117776   0.983   6.329   1.349
 2579SOL    HW217777   0.922   6.185   1.396
 2580SOL     OW17778   8.841   3.143   0.868
 2580SOL    HW117779   8.916   3.180   0.814
 2580SOL    HW217780   8.870   3.132   0.963
 2581SOL     OW17781   0.615   5.186   0.816
 2581SOL    HW117782   0.567   5.099   0.809
 2581SOL    HW217783   0.663   5.191   0.903
 2582SOL     OW17784   2.303   6.235   1.657
 2582SOL    HW117785   2.205   6.258   1.650
 2582SOL    HW217786   2.350   6.263   1.573
 2583SOL     OW17787   1.316   9.884   0.655
 2583SOL    HW117788   1.356   9.932   0.733
 2583SOL    HW217789   1.296   9.790   0.681
 2584SOL     OW17790   2.589   6.846   0.941
 2584SOL    HW117791   2.551   6.766   0.896
 2584SOL    HW217792   2.680   6.824   0.977
 2585SOL     OW17793   2.090   4.437   1.966
 2585SOL    HW117794   2.160   4.503   1.939
 2585SOL    HW217795   2.012   4.443   1.903
 2586SOL     OW17796   2.369   6.389   2.052
 2586SOL    HW117797   2.389   6.486   2.053
 2586SOL    HW217798   2.425   6.344   1.982
 2587SOL     OW17799   0.850   8.537   0.540
 2587SOL    HW117800   0.864   8.619   0.485
 2587SOL    HW217801   0.933   8.516   0.592
 2588SOL     OW17802   9.176   3.653   0.829
 2588SOL    HW117803   9.206   3.672   0.736
 2588SOL    HW217804   9.147   3.738   0.872
 2589SOL     OW17805   8.180   1.320   1.951
 2589SOL    HW117806   8.128   1.301   1.867
 2589SOL    HW217807   8.140   1.268   2.027
 2590SOL     OW17808   3.186   2.062   1.484
 2590SOL    HW117809   3.262   2.090   1.542
 2590SOL    HW217810   3.200   1.968   1.454
 2591SOL     OW17811   2.287   8.990   0.827
 2591SOL    HW117812   2.339   8.937   0.760
 2591SOL    HW217813   2.192   8.999   0.796
 2592SOL     OW17814   9.956   1.106   0.669
 2592SOL    HW117815   0.052   1.125   0.645
 2592SOL    HW217816   9.944   1.118   0.768
 2593SOL     OW17817   4.060   3.360   1.134
 2593SOL    HW117818   4.126   3.288   1.112
 2593SOL    HW217819   4.024   3.345   1.226
 2594SOL     OW17820   3.082   2.497   0.637
 2594SOL    HW117821   3.067   2.408   0.592
 2594SOL    HW217822   3.180   2.511   0.651
 2595SOL     OW17823   0.794   9.765   0.417
 2595SOL    HW117824   0.719   9.763   0.483
 2595SOL    HW217825   0.854   9.687   0.433
 2596SOL     OW17826   9.238   5.842   2.020
 2596SOL    HW117827   9.223   5.793   2.106
 2596SOL    HW217828   9.331   5.879   2.019
 2597SOL     OW17829   9.551   1.024   0.479
 2597SOL    HW117830   9.451   1.028   0.478
 2597SOL    HW217831   9.580   0.928   0.484
 2598SOL     OW17832   4.031   1.576   0.370
 2598SOL    HW117833   3.968   1.499   0.360
 2598SOL    HW217834   4.124   1.546   0.349
 2599SOL     OW17835   4.094   4.905   1.926
 2599SOL    HW117836   4.043   4.909   1.840
 2599SOL    HW217837   4.192   4.907   1.907
 2600SOL     OW17838   8.800   8.543   1.271
 2600SOL    HW117839   8.900   8.542   1.276
 2600SOL    HW217840   8.764   8.606   1.341
 2601SOL     OW17841   2.142   4.277   1.568
 2601SOL    HW117842   2.069   4.266   1.501
 2601SOL    HW217843   2.212   4.208   1.553
 2602SOL     OW17844   9.383   0.163   1.885
 2602SOL    HW117845   9.312   0.225   1.852
 2602SOL    HW217846   9.396   0.090   1.818
 2603SOL     OW17847   1.127   5.219   0.730
 2603SOL    HW117848   1.065   5.290   0.762
 2603SOL    HW217849   1.085   5.168   0.656
 2604SOL     OW17850   7.807   8.907   0.501
 2604SOL    HW117851   7.752   8.878   0.579
 2604SOL    HW217852   7.781   9.000   0.474
 2605SOL     OW17853   7.492   9.356   2.220
 2605SOL    HW117854   7.481   9.452   2.193
 2605SOL    HW217855   7.423   9.333   2.288
 2606SOL     OW17856   8.913   7.686   1.816
 2606SOL    HW117857   8.873   7.596   1.799
 2606SOL    HW217858   8.952   7.689   1.908
 2607SOL     OW17859   8.742   3.824   1.602
 2607SOL    HW117860   8.775   3.731   1.615
 2607SOL    HW217861   8.729   3.841   1.504
 2608SOL     OW17862   9.277   9.396   2.096
 2608SOL    HW117863   9.285   9.447   2.182
 2608SOL    HW217864   9.194   9.426   2.047
 2609SOL     OW17865   4.200   4.265   1.332
 2609SOL    HW117866   4.276   4.314   1.375
 2609SOL    HW217867   4.135   4.330   1.294
 2610SOL     OW17868   8.962   9.097   0.409
 2610SOL    HW117869   8.937   9.001   0.415
 2610SOL    HW217870   8.893   9.154   0.454
 2611SOL     OW17871   8.672   6.387   0.437
 2611SOL    HW117872   8.645   6.291   0.437
 2611SOL    HW217873   8.769   6.395   0.462
 2612SOL     OW17874   8.493   2.253   2.018
 2612SOL    HW117875   8.427   2.327   2.013
 2612SOL    HW217876   8.502   2.210   1.928
 2613SOL     OW17877   0.544   9.984   0.808
 2613SOL    HW117878   0.593   0.062   0.846
 2613SOL    HW217879   0.451   0.011   0.783
 2614SOL     OW17880   1.268   8.105   0.911
 2614SOL    HW117881   1.315   8.065   0.832
 2614SOL    HW217882   1.306   8.196   0.930
 2615SOL     OW17883   9.569   8.497   0.580
 2615SOL    HW117884   9.587   8.402   0.604
 2615SOL    HW217885   9.605   8.515   0.488
 2616SOL     OW17886   2.947   3.738   1.998
 2616SOL    HW117887   2.976   3.642   2.004
 2616SOL    HW217888   2.918   3.758   1.904
 2617SOL     OW17889   4.051   9.378   0.614
 2617SOL    HW117890   4.124   9.330   0.662
 2617SOL    HW217891   4.069   9.377   0.516
 2618SOL     OW17892   3.210   4.976   0.869
 2618SOL    HW117893   3.162   4.977   0.781
 2618SOL    HW217894   3.237   5.069   0.894
 2619SOL     OW17895   0.425   9.365   1.404
 2619SOL    HW117896   0.469   9.452   1.382
 2619SOL    HW217897   0.346   9.351   1.344
 2620SOL     OW17898   1.184   7.788   0.611
 2620SOL    HW117899   1.122   7.788   0.689
 2620SOL    HW217900   1.149   7.851   0.541
 2621SOL     OW17901   1.492   4.651   0.632
 2621SOL    HW117902   1.544   4.611   0.556
 2621SOL    HW217903   1.403   4.682   0.599
 2622SOL     OW17904   2.756   6.790   2.161
 2622SOL    HW117905   2.668   6.799   2.206
 2622SOL    HW217906   2.815   6.730   2.215
 2623SOL     OW17907   3.896   8.387   0.879
 2623SOL    HW117908   3.889   8.295   0.842
 2623SOL    HW217909   3.805   8.422   0.901
 2624SOL     OW17910   9.563   0.489   1.489
 2624SOL    HW117911   9.619   0.484   1.571
 2624SOL    HW217912   9.611   0.445   1.413
 2625SOL     OW17913   0.737   5.181   0.568
 2625SOL    HW117914   0.746   5.279   0.552
 2625SOL    HW217915   0.692   5.166   0.656
 2626SOL     OW17916   2.524   2.079   0.392
 2626SOL    HW117917   2.525   2.092   0.293
 2626SOL    HW217918   2.511   1.982   0.412
 2627SOL     OW17919   3.371   4.533   0.750
 2627SOL    HW117920   3.397   4.437   0.764
 2627SOL    HW217921   3.434   4.592   0.799
 2628SOL     OW17922   0.164   5.193   0.729
 2628SOL    HW117923   0.169   5.187   0.629
 2628SOL    HW217924   0.172   5.289   0.756
 2629SOL     OW17925   2.149   4.441   0.428
 2629SOL    HW117926   2.226   4.376   0.424
 2629SOL    HW217927   2.143   4.478   0.521
 2630SOL     OW17928   3.182   0.966   2.172
 2630SOL    HW117929   3.262   1.006   2.217
 2630SOL    HW217930   3.192   0.977   2.073
 2631SOL     OW17931   4.605   1.812   1.434
 2631SOL    HW117932   4.667   1.746   1.477
 2631SOL    HW217933   4.574   1.776   1.346
 2632SOL     OW17934   4.205   1.167   0.999
 2632SOL    HW117935   4.191   1.264   0.981
 2632SOL    HW217936   4.142   1.136   1.070
 2633SOL     OW17937   1.027   0.169   1.474
 2633SOL    HW117938   0.983   0.169   1.384
 2633SOL    HW217939   1.116   0.214   1.467
 2634SOL     OW17940   0.175   9.701   2.156
 2634SOL    HW117941   0.225   9.727   2.239
 2634SOL    HW217942   0.205   9.758   2.080
 2635SOL     OW17943   2.601   8.973   0.467
 2635SOL    HW117944   2.680   8.913   0.456
 2635SOL    HW217945   2.630   9.068   0.455
 2636SOL     OW17946   9.228   0.330   0.576
 2636SOL    HW117947   9.182   0.385   0.646
 2636SOL    HW217948   9.175   0.333   0.492
 2637SOL     OW17949   2.629   0.191   2.128
 2637SOL    HW117950   2.642   0.288   2.148
 2637SOL    HW217951   2.533   0.174   2.106
 2638SOL     OW17952   2.861   3.272   2.166
 2638SOL    HW117953   2.944   3.327   2.159
 2638SOL    HW217954   2.783   3.332   2.179
 2639SOL     OW17955   0.668   6.495   1.235
 2639SOL    HW117956   0.756   6.487   1.281
 2639SOL    HW217957   0.678   6.549   1.152
 2640SOL     OW17958   2.498   5.426   0.937
 2640SOL    HW117959   2.505   5.337   0.891
 2640SOL    HW217960   2.552   5.494   0.888
 2641SOL     OW17961   3.466   4.908   0.793
 2641SOL    HW117962   3.374   4.925   0.828
 2641SOL    HW217963   3.501   4.822   0.831
 2642SOL     OW17964   9.525   7.918   0.765
 2642SOL    HW117965   9.448   7.905   0.827
 2642SOL    HW217966   9.576   7.833   0.756
 2643SOL     OW17967   9.579   6.892   2.312
 2643SOL    HW117968   9.609   6.831   2.239
 2643SOL    HW217969   9.561   6.839   2.395
 2644SOL     OW17970   2.165   1.963   1.821
 2644SOL    HW117971   2.204   1.991   1.733
 2644SOL    HW217972   2.072   1.999   1.828
 2645SOL     OW17973   1.999   0.150   1.815
 2645SOL    HW117974   2.003   0.051   1.803
 2645SOL    HW217975   2.030   0.174   1.906
 2646SOL     OW17976   1.549   5.882   1.924
 2646SOL    HW117977   1.606   5.807   1.958
 2646SOL    HW217978   1.483   5.908   1.994
 2647SOL     OW17979   9.387   8.648   1.423
 2647SOL    HW117980   9.480   8.685   1.435
 2647SOL    HW217981   9.391   8.568   1.363
 2648SOL     OW17982   7.943   0.612   0.521
 2648SOL    HW117983   7.906   0.542   0.460
 2648SOL    HW217984   8.037   0.589   0.545
 2649SOL     OW17985   2.474   8.185   1.178
 2649SOL    HW117986   2.456   8.100   1.128
 2649SOL    HW217987   2.540   8.167   1.251
 2650SOL     OW17988   3.977   4.951   1.684
 2650SOL    HW117989   3.942   4.913   1.598
 2650SOL    HW217990   3.939   5.043   1.697
 2651SOL     OW17991   0.683   3.862   0.661
 2651SOL    HW117992   0.733   3.837   0.744
 2651SOL    HW217993   0.728   3.940   0.617
 2652SOL     OW17994   3.616   8.131   0.695
 2652SOL    HW117995   3.519   8.123   0.719
 2652SOL    HW217996   3.625   8.149   0.597
 2653SOL     OW17997   2.092   0.214   2.070
 2653SOL    HW117998   2.091   0.311   2.095
 2653SOL    HW217999   2.013   0.168   2.111
 2654SOL     OW18000   9.116   3.668   1.302
 2654SOL    HW118001   9.082   3.749   1.350
 2654SOL    HW218002   9.069   3.659   1.214
 2655SOL     OW18003   2.079   9.664   0.619
 2655SOL    HW118004   2.111   9.589   0.677
 2655SOL    HW218005   1.990   9.640   0.581
 2656SOL     OW18006   8.462   1.921   0.307
 2656SOL    HW118007   8.432   1.852   0.241
 2656SOL    HW218008   8.537   1.975   0.268
 2657SOL     OW18009   1.261   1.444   0.898
 2657SOL    HW118010   1.193   1.382   0.859
 2657SOL    HW218011   1.305   1.495   0.824
 2658SOL     OW18012   2.818   1.012   1.233
 2658SOL    HW118013   2.905   1.059   1.226
 2658SOL    HW218014   2.746   1.078   1.253
 2659SOL     OW18015   9.042   4.063   1.178
 2659SOL    HW118016   9.119   4.045   1.240
 2659SOL    HW218017   9.041   4.161   1.155
 2660SOL     OW18018   3.959   8.831   0.785
 2660SOL    HW118019   3.998   8.903   0.728
 2660SOL    HW218020   4.028   8.798   0.849
 2661SOL     OW18021   1.430   6.605   1.362
 2661SOL    HW118022   1.524   6.606   1.395
 2661SOL    HW218023   1.418   6.678   1.294
 2662SOL     OW18024   2.028   9.656   1.418
 2662SOL    HW118025   1.992   9.726   1.356
 2662SOL    HW218026   1.980   9.661   1.505
 2663SOL     OW18027   3.170   0.196   1.813
 2663SOL    HW118028   3.184   0.277   1.756
 2663SOL    HW218029   3.186   0.219   1.909
 2664SOL     OW18030   8.177   0.418   1.748
 2664SOL    HW118031   8.270   0.385   1.736
 2664SOL    HW218032   8.117   0.340   1.768
 2665SOL     OW18033   9.073   8.101   1.957
 2665SOL    HW118034   9.072   8.084   2.056
 2665SOL    HW218035   9.147   8.164   1.936
 2666SOL     OW18036   8.435   0.756   1.783
 2666SOL    HW118037   8.500   0.681   1.767
 2666SOL    HW218038   8.356   0.721   1.834
 2667SOL     OW18039   8.544   1.008   1.743
 2667SOL    HW118040   8.505   0.916   1.753
 2667SOL    HW218041   8.495   1.071   1.804
 2668SOL     OW18042   3.653   2.370   0.581
 2668SOL    HW118043   3.620   2.464   0.578
 2668SOL    HW218044   3.750   2.369   0.604
 2669SOL     OW18045   9.131   9.625   1.012
 2669SOL    HW118046   9.106   9.573   1.094
 2669SOL    HW218047   9.212   9.585   0.971
 2670SOL     OW18048   8.991   6.900   0.417
 2670SOL    HW118049   8.961   6.830   0.482
 2670SOL    HW218050   8.912   6.956   0.390
 2671SOL     OW18051   9.298   1.202   0.904
 2671SOL    HW118052   9.309   1.230   1.000
 2671SOL    HW218053   9.377   1.235   0.851
 2672SOL     OW18054   3.584   2.956   2.089
 2672SOL    HW118055   3.596   2.992   1.997
 2672SOL    HW218056   3.670   2.962   2.139
 2673SOL     OW18057   9.374   9.439   1.197
 2673SOL    HW118058   9.301   9.401   1.141
 2673SOL    HW218059   9.351   9.533   1.222
 2674SOL     OW18060   9.420   9.737   1.539
 2674SOL    HW118061   9.406   9.642   1.568
 2674SOL    HW218062   9.513   9.749   1.505
 2675SOL     OW18063   1.131   7.548   2.062
 2675SOL    HW118064   1.122   7.646   2.079
 2675SOL    HW218065   1.041   7.505   2.064
 2676SOL     OW18066   9.294   0.429   1.566
 2676SOL    HW118067   9.391   0.434   1.542
 2676SOL    HW218068   9.239   0.431   1.483
 2677SOL     OW18069   2.948   8.223   0.523
 2677SOL    HW118070   2.956   8.231   0.623
 2677SOL    HW218071   2.865   8.172   0.501
 2678SOL     OW18072   1.148   4.072   1.047
 2678SOL    HW118073   1.197   3.997   1.091
 2678SOL    HW218074   1.088   4.117   1.113
 2679SOL     OW18075   1.672   8.132   1.094
 2679SOL    HW118076   1.704   8.142   1.000
 2679SOL    HW218077   1.623   8.046   1.104
 2680SOL     OW18078   9.706   4.735   1.304
 2680SOL    HW118079   9.763   4.691   1.373
 2680SOL    HW218080   9.619   4.686   1.296
 2681SOL     OW18081   0.574   2.432   1.875
 2681SOL    HW118082   0.537   2.477   1.956
 2681SOL    HW218083   0.674   2.435   1.878
 2682SOL     OW18084   3.379   8.405   2.258
 2682SOL    HW118085   3.431   8.368   2.181
 2682SOL    HW218086   3.381   8.339   2.333
 2683SOL     OW18087   8.574   7.478   1.317
 2683SOL    HW118088   8.476   7.493   1.334
 2683SOL    HW218089   8.612   7.560   1.274
 2684SOL     OW18090   2.604   5.356   1.827
 2684SOL    HW118091   2.536   5.339   1.898
 2684SOL    HW218092   2.672   5.422   1.861
 2685SOL     OW18093   0.553   4.616   0.661
 2685SOL    HW118094   0.508   4.582   0.743
 2685SOL    HW218095   0.542   4.550   0.586
 2686SOL     OW18096   4.131   3.750   0.824
 2686SOL    HW118097   4.074   3.811   0.880
 2686SOL    HW218098   4.133   3.783   0.730
 2687SOL     OW18099   9.958   4.105   1.499
 2687SOL    HW118100   9.912   4.081   1.584
 2687SOL    HW218101   9.961   4.025   1.439
 2688SOL     OW18102   0.321   3.196   0.663
 2688SOL    HW118103   0.327   3.148   0.575
 2688SOL    HW218104   0.376   3.280   0.659
 2689SOL     OW18105   7.707   9.893   0.517
 2689SOL    HW118106   7.794   9.862   0.480
 2689SOL    HW218107   7.679   9.831   0.591
 2690SOL     OW18108   1.400   6.729   0.915
 2690SOL    HW118109   1.437   6.639   0.892
 2690SOL    HW218110   1.432   6.796   0.849
 2691SOL     OW18111   8.819   1.010   1.748
 2691SOL    HW118112   8.845   0.973   1.837
 2691SOL    HW218113   8.719   1.010   1.740
 2692SOL     OW18114   3.115   7.736   1.951
 2692SOL    HW118115   3.032   7.792   1.943
 2692SOL    HW218116   3.191   7.794   1.981
 2693SOL     OW18117   3.420   1.892   1.214
 2693SOL    HW118118   3.356   1.854   1.282
 2693SOL    HW218119   3.377   1.969   1.167
 2694SOL     OW18120   0.151   3.783   0.616
 2694SOL    HW118121   0.239   3.829   0.629
 2694SOL    HW218122   0.152   3.694   0.662
 2695SOL     OW18123   2.819   2.480   1.954
 2695SOL    HW118124   2.786   2.468   1.860
 2695SOL    HW218125   2.823   2.578   1.975
 2696SOL     OW18126   2.479   3.594   0.424
 2696SOL    HW118127   2.469   3.495   0.430
 2696SOL    HW218128   2.389   3.638   0.428
 2697SOL     OW18129   0.140   1.770   0.781
 2697SOL    HW118130   0.214   1.815   0.732
 2697SOL    HW218131   0.116   1.685   0.735
 2698SOL     OW18132   3.176   4.786   0.460
 2698SOL    HW118133   3.085   4.751   0.441
 2698SOL    HW218134   3.243   4.712   0.453
 2699SOL     OW18135   2.901   4.165   0.535
 2699SOL    HW118136   2.843   4.088   0.508
 2699SOL    HW218137   2.965   4.135   0.606
 2700SOL     OW18138   3.753   8.430   0.467
 2700SOL    HW118139   3.832   8.378   0.498
 2700SOL    HW218140   3.708   8.473   0.546
 2701SOL     OW18141   9.295   0.396   2.163
 2701SOL    HW118142   9.307   0.297   2.165
 2701SOL    HW218143   9.350   0.434   2.089
 2702SOL     OW18144   9.074   1.289   0.581
 2702SOL    HW118145   9.059   1.294   0.680
 2702SOL    HW218146   9.147   1.223   0.561
 2703SOL     OW18147   3.408   2.841   0.513
 2703SOL    HW118148   3.357   2.892   0.582
 2703SOL    HW218149   3.345   2.811   0.441
 2704SOL     OW18150   9.381   8.937   0.491
 2704SOL    HW118151   9.329   9.020   0.470
 2704SOL    HW218152   9.333   8.858   0.453
 2705SOL     OW18153   8.707   9.981   2.035
 2705SOL    HW118154   8.720   9.923   1.954
 2705SOL    HW218155   8.611   0.009   2.040
 2706SOL     OW18156   0.841   7.110   1.062
 2706SOL    HW118157   0.865   7.136   1.155
 2706SOL    HW218158   0.790   7.185   1.019
 2707SOL     OW18159   3.047   8.368   1.542
 2707SOL    HW118160   3.079   8.431   1.612
 2707SOL    HW218161   2.948   8.353   1.553
 2708SOL     OW18162   9.102   6.972   0.880
 2708SOL    HW118163   9.124   7.012   0.968
 2708SOL    HW218164   9.159   7.013   0.809
 2709SOL     OW18165   4.208   3.216   2.327
 2709SOL    HW118166   4.218   3.124   2.290
 2709SOL    HW218167   4.203   3.211   2.427
 2710SOL     OW18168   9.892   6.655   1.820
 2710SOL    HW118169   9.837   6.579   1.785
 2710SOL    HW218170   9.961   6.620   1.883
 2711SOL     OW18171   1.977   7.089   1.225
 2711SOL    HW118172   1.911   7.053   1.160
 2711SOL    HW218173   2.009   7.178   1.195
 2712SOL     OW18174   3.902   3.021   1.432
 2712SOL    HW118175   3.860   2.988   1.516
 2712SOL    HW218176   3.854   2.981   1.353
 2713SOL     OW18177   3.386   3.156   1.276
 2713SOL    HW118178   3.302   3.105   1.293
 2713SOL    HW218179   3.438   3.110   1.204
 2714SOL     OW18180   2.325   0.930   1.164
 2714SOL    HW118181   2.263   0.922   1.242
 2714SOL    HW218182   2.344   0.840   1.127
 2715SOL     OW18183   1.621   9.130   0.765
 2715SOL    HW118184   1.687   9.137   0.840
 2715SOL    HW218185   1.633   9.207   0.702
 2716SOL     OW18186   0.322   4.321   0.483
 2716SOL    HW118187   0.403   4.372   0.455
 2716SOL    HW218188   0.247   4.384   0.501
 2717SOL     OW18189   8.975   6.744   2.001
 2717SOL    HW118190   9.053   6.686   2.022
 2717SOL    HW218191   9.007   6.834   1.973
 2718SOL     OW18192   0.075   3.265   0.752
 2718SOL    HW118193   0.034   3.188   0.801
 2718SOL    HW218194   0.159   3.235   0.707
 2719SOL     OW18195   0.955   1.769   2.112
 2719SOL    HW118196   0.879   1.825   2.078
 2719SOL    HW218197   0.949   1.677   2.074
 2720SOL     OW18198   2.615   4.812   2.131
 2720SOL    HW118199   2.635   4.881   2.061
 2720SOL    HW218200   2.701   4.772   2.164
 2721SOL     OW18201   1.395   0.671   0.406
 2721SOL    HW118202   1.314   0.709   0.360
 2721SOL    HW218203   1.393   0.572   0.401
 2722SOL     OW18204   9.393   3.633   2.003
 2722SOL    HW118205   9.306   3.602   2.041
 2722SOL    HW218206   9.383   3.648   1.904
 2723SOL     OW18207   3.708   0.186   0.770
 2723SOL    HW118208   3.714   0.268   0.827
 2723SOL    HW218209   3.612   0.158   0.760
 2724SOL     OW18210   2.049   4.772   0.724
 2724SOL    HW118211   2.056   4.847   0.658
 2724SOL    HW218212   2.107   4.791   0.803
 2725SOL     OW18213   0.220   9.255   2.236
 2725SOL    HW118214   0.253   9.294   2.321
 2725SOL    HW218215   0.232   9.321   2.161
 2726SOL     OW18216   9.966   1.048   1.879
 2726SOL    HW118217   0.009   1.137   1.896
 2726SOL    HW218218   9.925   1.013   1.963
 2727SOL     OW18219   8.985   0.242   0.836
 2727SOL    HW118220   8.955   0.180   0.763
 2727SOL    HW218221   8.922   0.235   0.913
 2728SOL     OW18222   9.856   7.930   0.554
 2728SOL    HW118223   9.812   7.854   0.507
 2728SOL    HW218224   9.874   8.004   0.489
 2729SOL     OW18225   9.122   6.575   0.377
 2729SOL    HW118226   9.068   6.606   0.298
 2729SOL    HW218227   9.162   6.654   0.424
 2730SOL     OW18228   4.101   4.818   0.497
 2730SOL    HW118229   4.156   4.824   0.414
 2730SOL    HW218230   4.064   4.907   0.520
 2731SOL     OW18231   0.208   9.338   1.243
 2731SOL    HW118232   0.111   9.318   1.258
 2731SOL    HW218233   0.217   9.426   1.197
 2732SOL     OW18234   4.262   4.393   2.105
 2732SOL    HW118235   4.318   4.352   2.033
 2732SOL    HW218236   4.169   4.406   2.072
 2733SOL     OW18237   8.956   4.612   1.855
 2733SOL    HW118238   8.940   4.519   1.823
 2733SOL    HW218239   8.967   4.673   1.776
 2734SOL     OW18240   1.694   6.620   1.444
 2734SOL    HW118241   1.732   6.621   1.537
 2734SOL    HW218242   1.716   6.533   1.400
 2735SOL     OW18243   0.658   1.770   1.998
 2735SOL    HW118244   0.560   1.787   1.989
 2735SOL    HW218245   0.672   1.682   2.044
 2736SOL     OW18246   9.302   9.125   2.020
 2736SOL    HW118247   9.276   9.214   2.055
 2736SOL    HW218248   9.401   9.117   2.018
 2737SOL     OW18249   0.612   5.064   1.258
 2737SOL    HW118250   0.683   5.025   1.316
 2737SOL    HW218251   0.533   5.003   1.255
 2738SOL     OW18252   8.850   7.846   2.156
 2738SOL    HW118253   8.760   7.827   2.117
 2738SOL    HW218254   8.914   7.774   2.128
 2739SOL     OW18255   8.127   8.662   2.066
 2739SOL    HW118256   8.221   8.696   2.068
 2739SOL    HW218257   8.107   8.617   2.153
 2740SOL     OW18258   3.175   8.115   1.830
 2740SOL    HW118259   3.185   8.037   1.769
 2740SOL    HW218260   3.216   8.196   1.788
 2741SOL     OW18261   1.712   7.740   1.285
 2741SOL    HW118262   1.652   7.760   1.363
 2741SOL    HW218263   1.804   7.773   1.304
 2742SOL     OW18264   1.874   2.001   2.121
 2742SOL    HW118265   1.775   2.006   2.136
 2742SOL    HW218266   1.909   1.915   2.158
 2743SOL     OW18267   9.849   7.748   0.976
 2743SOL    HW118268   9.924   7.815   0.972
 2743SOL    HW218269   9.875   7.673   1.036
 2744SOL     OW18270   0.757   4.218   1.228
 2744SOL    HW118271   0.738   4.316   1.223
 2744SOL    HW218272   0.853   4.204   1.251
 2745SOL     OW18273   9.086   5.939   0.449
 2745SOL    HW118274   9.114   5.844   0.441
 2745SOL    HW218275   9.155   5.990   0.501
 2746SOL     OW18276   1.334   5.020   1.723
 2746SOL    HW118277   1.333   5.118   1.741
 2746SOL    HW218278   1.267   4.998   1.652
 2747SOL     OW18279   1.979   9.773   0.999
 2747SOL    HW118280   1.978   9.674   0.981
 2747SOL    HW218281   1.895   9.814   0.964
 2748SOL     OW18282   1.740   6.263   1.090
 2748SOL    HW118283   1.676   6.188   1.077
 2748SOL    HW218284   1.736   6.325   1.012
 2749SOL     OW18285   2.764   2.753   2.014
 2749SOL    HW118286   2.801   2.841   2.043
 2749SOL    HW218287   2.707   2.716   2.087
 2750SOL     OW18288   9.808   5.720   1.527
 2750SOL    HW118289   9.711   5.697   1.516
 2750SOL    HW218290   9.846   5.748   1.439
 2751SOL     OW18291   3.727   2.564   2.238
 2751SOL    HW118292   3.801   2.565   2.171
 2751SOL    HW218293   3.753   2.620   2.317
 2752SOL     OW18294   1.304   6.084   1.112
 2752SOL    HW118295   1.290   6.099   1.210
 2752SOL    HW218296   1.216   6.064   1.069
 2753SOL     OW18297   3.209   2.266   1.302
 2753SOL    HW118298   3.125   2.311   1.272
 2753SOL    HW218299   3.186   2.193   1.367
 2754SOL     OW18300   0.410   8.132   2.083
 2754SOL    HW118301   0.424   8.210   2.144
 2754SOL    HW218302   0.340   8.154   2.015
 2755SOL     OW18303   4.356   4.447   1.481
 2755SOL    HW118304   4.431   4.510   1.464
 2755SOL    HW218305   4.270   4.499   1.489
 2756SOL     OW18306   3.679   3.993   1.376
 2756SOL    HW118307   3.631   3.961   1.295
 2756SOL    HW218308   3.641   4.081   1.405
 2757SOL     OW18309   0.047   5.761   0.724
 2757SOL    HW118310   0.011   5.839   0.673
 2757SOL    HW218311   0.125   5.722   0.674
 2758SOL     OW18312   0.665   0.575   1.606
 2758SOL    HW118313   0.728   0.611   1.675
 2758SOL    HW218314   0.712   0.570   1.518
 2759SOL     OW18315   9.102   2.296   0.958
 2759SOL    HW118316   9.136   2.207   0.926
 2759SOL    HW218317   9.047   2.338   0.886
 2760SOL     OW18318   0.413   6.608   1.341
 2760SOL    HW118319   0.328   6.560   1.322
 2760SOL    HW218320   0.490   6.558   1.301
 2761SOL     OW18321   4.513   3.533   1.981
 2761SOL    HW118322   4.553   3.613   2.027
 2761SOL    HW218323   4.558   3.450   2.014
 2762SOL     OW18324   3.451   0.954   2.018
 2762SOL    HW118325   3.457   0.999   2.108
 2762SOL    HW218326   3.542   0.952   1.977
 2763SOL     OW18327   2.713   1.559   1.646
 2763SOL    HW118328   2.725   1.637   1.707
 2763SOL    HW218329   2.619   1.524   1.655
 2764SOL     OW18330   9.921   9.890   0.732
 2764SOL    HW118331   9.937   9.943   0.814
 2764SOL    HW218332   9.999   9.900   0.669
 2765SOL     OW18333   0.059   7.175   1.379
 2765SOL    HW118334   9.993   7.212   1.313
 2765SOL    HW218335   0.113   7.104   1.335
 2766SOL     OW18336   3.756   2.275   2.252
 2766SOL    HW118337   3.675   2.221   2.230
 2766SOL    HW218338   3.732   2.372   2.251
 2767SOL     OW18339   4.629   4.175   2.028
 2767SOL    HW118340   4.554   4.227   1.989
 2767SOL    HW218341   4.631   4.083   1.988
 2768SOL     OW18342   8.756   7.157   1.623
 2768SOL    HW118343   8.716   7.246   1.599
 2768SOL    HW218344   8.712   7.122   1.706
 2769SOL     OW18345   0.508   7.672   1.541
 2769SOL    HW118346   0.549   7.756   1.504
 2769SOL    HW218347   0.580   7.608   1.565
 2770SOL     OW18348   9.501   7.975   2.039
 2770SOL    HW118349   9.441   7.944   1.966
 2770SOL    HW218350   9.520   8.072   2.028
 2771SOL     OW18351   0.129   0.923   0.879
 2771SOL    HW118352   0.112   0.839   0.827
 2771SOL    HW218353   0.190   0.903   0.955
 2772SOL     OW18354   1.979   4.292   0.736
 2772SOL    HW118355   1.946   4.260   0.647
 2772SOL    HW218356   2.045   4.367   0.722
 2773SOL     OW18357   2.641   9.118   1.466
 2773SOL    HW118358   2.569   9.167   1.417
 2773SOL    HW218359   2.606   9.030   1.497
 2774SOL     OW18360   8.505   0.174   1.941
 2774SOL    HW118361   8.475   0.238   1.871
 2774SOL    HW218362   8.457   0.193   2.026
 2775SOL     OW18363   8.858   0.564   2.223
 2775SOL    HW118364   8.956   0.566   2.240
 2775SOL    HW218365   8.825   0.470   2.223
 2776SOL     OW18366   2.533   8.871   1.528
 2776SOL    HW118367   2.578   8.790   1.567
 2776SOL    HW218368   2.438   8.849   1.506
 2777SOL     OW18369   1.462   1.410   2.150
 2777SOL    HW118370   1.463   1.507   2.123
 2777SOL    HW218371   1.551   1.386   2.190
 2778SOL     OW18372   1.892   4.215   0.487
 2778SOL    HW118373   1.811   4.158   0.476
 2778SOL    HW218374   1.888   4.291   0.421
 2779SOL     OW18375   4.166   3.826   1.391
 2779SOL    HW118376   4.067   3.824   1.399
 2779SOL    HW218377   4.201   3.910   1.432
 2780SOL     OW18378   4.443   3.615   1.125
 2780SOL    HW118379   4.540   3.609   1.098
 2780SOL    HW218380   4.437   3.639   1.221
 2781SOL     OW18381   3.541   8.882   1.394
 2781SOL    HW118382   3.567   8.928   1.310
 2781SOL    HW218383   3.515   8.788   1.374
 2782SOL     OW18384   2.576   0.540   1.701
 2782SOL    HW118385   2.552   0.445   1.721
 2782SOL    HW218386   2.634   0.576   1.775
 2783SOL     OW18387   1.909   1.045   0.930
 2783SOL    HW118388   1.894   1.139   0.901
 2783SOL    HW218389   2.000   1.037   0.970
 2784SOL     OW18390   1.477   2.668   1.255
 2784SOL    HW118391   1.488   2.614   1.172
 2784SOL    HW218392   1.438   2.758   1.231
 2785SOL     OW18393   4.089   3.685   1.164
 2785SOL    HW118394   4.132   3.731   1.241
 2785SOL    HW218395   4.147   3.610   1.133
 2786SOL     OW18396   1.303   3.830   0.769
 2786SOL    HW118397   1.326   3.922   0.800
 2786SOL    HW218398   1.210   3.829   0.732
 2787SOL     OW18399   3.525   2.437   1.796
 2787SOL    HW118400   3.436   2.402   1.826
 2787SOL    HW218401   3.529   2.536   1.812
 2788SOL     OW18402   2.068   5.560   1.448
 2788SOL    HW118403   1.993   5.535   1.386
 2788SOL    HW218404   2.055   5.514   1.536
 2789SOL     OW18405   9.187   9.286   1.055
 2789SOL    HW118406   9.111   9.254   1.112
 2789SOL    HW218407   9.155   9.297   0.960
 2790SOL     OW18408   9.351   9.833   2.232
 2790SOL    HW118409   9.423   9.861   2.169
 2790SOL    HW218410   9.363   9.736   2.256
 2791SOL     OW18411   2.261   9.531   1.478
 2791SOL    HW118412   2.175   9.578   1.458
 2791SOL    HW218413   2.327   9.595   1.517
 2792SOL     OW18414   3.771   1.670   1.138
 2792SOL    HW118415   3.822   1.713   1.212
 2792SOL    HW218416   3.760   1.572   1.157
 2793SOL     OW18417   1.180   0.807   1.226
 2793SOL    HW118418   1.082   0.787   1.219
 2793SOL    HW218419   1.199   0.895   1.183
 2794SOL     OW18420   9.362   4.957   1.022
 2794SOL    HW118421   9.296   4.886   1.046
 2794SOL    HW218422   9.438   4.956   1.087
 2795SOL     OW18423   2.890   4.464   0.884
 2795SOL    HW118424   2.816   4.403   0.856
 2795SOL    HW218425   2.976   4.434   0.842
 2796SOL     OW18426   3.663   4.487   2.102
 2796SOL    HW118427   3.713   4.401   2.088
 2796SOL    HW218428   3.565   4.467   2.112
 2797SOL     OW18429   9.650   8.701   0.996
 2797SOL    HW118430   9.660   8.702   0.897
 2797SOL    HW218431   9.626   8.609   1.027
 2798SOL     OW18432   3.420   8.658   2.137
 2798SOL    HW118433   3.516   8.684   2.123
 2798SOL    HW218434   3.416   8.578   2.197
 2799SOL     OW18435   1.034   4.171   2.338
 2799SOL    HW118436   1.036   4.262   2.380
 2799SOL    HW218437   1.019   4.102   2.409
 2800SOL     OW18438   7.623   0.574   1.105
 2800SOL    HW118439   7.634   0.645   1.036
 2800SOL    HW218440   7.671   0.601   1.188
 2801SOL     OW18441   8.309   9.961   0.967
 2801SOL    HW118442   8.251   9.993   0.892
 2801SOL    HW218443   8.271   9.993   1.054
 2802SOL     OW18444   0.677   4.510   1.550
 2802SOL    HW118445   0.656   4.417   1.580
 2802SOL    HW218446   0.770   4.534   1.578
 2803SOL     OW18447   3.829   3.606   1.233
 2803SOL    HW118448   3.777   3.617   1.148
 2803SOL    HW218449   3.927   3.614   1.213
 2804SOL     OW18450   3.425   8.288   0.944
 2804SOL    HW118451   3.393   8.239   0.863
 2804SOL    HW218452   3.347   8.329   0.991
 2805SOL     OW18453   1.321   7.208   2.124
 2805SOL    HW118454   1.337   7.147   2.047
 2805SOL    HW218455   1.382   7.287   2.118
 2806SOL     OW18456   8.838   8.472   1.716
 2806SOL    HW118457   8.819   8.427   1.804
 2806SOL    HW218458   8.769   8.445   1.650
 2807SOL     OW18459   1.258   0.019   1.815
 2807SOL    HW118460   1.260   9.972   1.903
 2807SOL    HW218461   1.346   0.065   1.799
 2808SOL     OW18462   1.146   8.276   0.539
 2808SOL    HW118463   1.086   8.273   0.459
 2808SOL    HW218464   1.239   8.252   0.513
 2809SOL     OW18465   1.093   2.432   1.092
 2809SOL    HW118466   1.000   2.402   1.110
 2809SOL    HW218467   1.093   2.530   1.071
 2810SOL     OW18468   4.535   2.327   0.732
 2810SOL    HW118469   4.476   2.292   0.805
 2810SOL    HW218470   4.547   2.256   0.663
 2811SOL     OW18471   1.716   3.571   0.564
 2811SOL    HW118472   1.730   3.670   0.564
 2811SOL    HW218473   1.662   3.544   0.484
 2812SOL     OW18474   7.734   0.518   2.059
 2812SOL    HW118475   7.717   0.462   2.141
 2812SOL    HW218476   7.677   0.485   1.984
 2813SOL     OW18477   9.492   1.630   0.887
 2813SOL    HW118478   9.547   1.603   0.966
 2813SOL    HW218479   9.549   1.635   0.806
 2814SOL     OW18480   2.668   5.625   2.283
 2814SOL    HW118481   2.674   5.690   2.359
 2814SOL    HW218482   2.603   5.659   2.215
 2815SOL     OW18483   4.351   0.939   1.915
 2815SOL    HW118484   4.357   1.028   1.869
 2815SOL    HW218485   4.269   0.937   1.972
 2816SOL     OW18486   2.635   9.043   0.931
 2816SOL    HW118487   2.709   9.081   0.987
 2816SOL    HW218488   2.655   9.059   0.835
 2817SOL     OW18489   1.470   4.545   1.373
 2817SOL    HW118490   1.434   4.630   1.336
 2817SOL    HW218491   1.569   4.547   1.374
 2818SOL     OW18492   8.603   9.098   0.495
 2818SOL    HW118493   8.582   9.001   0.485
 2818SOL    HW218494   8.519   9.150   0.504
 2819SOL     OW18495   9.858   5.554   0.712
 2819SOL    HW118496   9.856   5.488   0.787
 2819SOL    HW218497   9.935   5.616   0.724
 2820SOL     OW18498   2.938   0.771   2.001
 2820SOL    HW118499   3.007   0.732   2.061
 2820SOL    HW218500   2.944   0.728   1.911
 2821SOL     OW18501   9.056   5.209   1.922
 2821SOL    HW118502   9.073   5.230   1.826
 2821SOL    HW218503   8.976   5.260   1.953
 2822SOL     OW18504   1.989   0.531   0.509
 2822SOL    HW118505   1.957   0.607   0.565
 2822SOL    HW218506   2.074   0.557   0.462
 2823SOL     OW18507   1.945   1.221   2.220
 2823SOL    HW118508   1.993   1.255   2.139
 2823SOL    HW218509   2.010   1.172   2.279
 2824SOL     OW18510   3.763   0.394   2.164
 2824SOL    HW118511   3.746   0.321   2.229
 2824SOL    HW218512   3.692   0.463   2.172
 2825SOL     OW18513   0.722   4.300   0.680
 2825SOL    HW118514   0.655   4.238   0.640
 2825SOL    HW218515   0.698   4.317   0.776
 2826SOL     OW18516   0.542   8.970   1.228
 2826SOL    HW118517   0.581   8.930   1.145
 2826SOL    HW218518   0.457   9.018   1.205
 2827SOL     OW18519   0.681   8.072   1.308
 2827SOL    HW118520   0.633   8.080   1.221
 2827SOL    HW218521   0.728   8.158   1.328
 2828SOL     OW18522   9.500   6.687   1.640
 2828SOL    HW118523   9.457   6.761   1.690
 2828SOL    HW218524   9.503   6.605   1.698
 2829SOL     OW18525   8.192   1.645   1.310
 2829SOL    HW118526   8.277   1.695   1.296
 2829SOL    HW218527   8.159   1.609   1.223
 2830SOL     OW18528   3.390   3.585   2.218
 2830SOL    HW118529   3.349   3.628   2.137
 2830SOL    HW218530   3.326   3.591   2.294
 2831SOL     OW18531   1.687   3.429   2.108
 2831SOL    HW118532   1.611   3.411   2.170
 2831SOL    HW218533   1.660   3.497   2.040
 2832SOL     OW18534   8.647   9.746   0.519
 2832SOL    HW118535   8.747   9.744   0.513
 2832SOL    HW218536   8.614   9.654   0.539
 2833SOL     OW18537   0.637   6.219   1.589
 2833SOL    HW118538   0.692   6.174   1.518
 2833SOL    HW218539   0.684   6.211   1.676
 2834SOL     OW18540   8.710   8.682   0.457
 2834SOL    HW118541   8.791   8.735   0.433
 2834SOL    HW218542   8.630   8.742   0.455
 2835SOL     OW18543   0.329   7.721   0.812
 2835SOL    HW118544   0.275   7.645   0.848
 2835SOL    HW218545   0.412   7.686   0.769
 2836SOL     OW18546   2.196   8.941   2.336
 2836SOL    HW118547   2.295   8.931   2.342
 2836SOL    HW218548   2.173   9.039   2.332
 2837SOL     OW18549   0.650   8.068   1.959
 2837SOL    HW118550   0.566   8.088   2.010
 2837SOL    HW218551   0.644   7.975   1.921
 2838SOL     OW18552   9.958   8.411   0.569
 2838SOL    HW118553   9.920   8.344   0.633
 2838SOL    HW218554   9.956   8.502   0.610
 2839SOL     OW18555   3.894   3.822   1.397
 2839SOL    HW118556   3.826   3.894   1.384
 2839SOL    HW218557   3.865   3.739   1.349
 2840SOL     OW18558   3.259   3.930   2.170
 2840SOL    HW118559   3.338   3.959   2.223
 2840SOL    HW218560   3.238   3.998   2.101
 2841SOL     OW18561   2.703   7.929   2.240
 2841SOL    HW118562   2.723   7.950   2.336
 2841SOL    HW218563   2.637   7.994   2.204
 2842SOL     OW18564   9.219   2.926   1.651
 2842SOL    HW118565   9.290   2.856   1.639
 2842SOL    HW218566   9.228   2.996   1.580
 2843SOL     OW18567   9.321   3.797   1.457
 2843SOL    HW118568   9.350   3.747   1.539
 2843SOL    HW218569   9.268   3.736   1.398
 2844SOL     OW18570   0.455   6.031   0.547
 2844SOL    HW118571   0.387   6.085   0.597
 2844SOL    HW218572   0.538   6.085   0.534
 2845SOL     OW18573   4.776   2.806   0.647
 2845SOL    HW118574   4.700   2.766   0.699
 2845SOL    HW218575   4.840   2.735   0.620
 2846SOL     OW18576   1.539   9.948   0.505
 2846SOL    HW118577   1.573   9.859   0.476
 2846SOL    HW218578   1.453   9.936   0.556
 2847SOL     OW18579   2.768   2.660   1.070
 2847SOL    HW118580   2.859   2.674   1.110
 2847SOL    HW218581   2.750   2.562   1.062
 2848SOL     OW18582   3.735   4.953   0.447
 2848SOL    HW118583   3.643   4.939   0.482
 2848SOL    HW218584   3.731   4.989   0.354
 2849SOL     OW18585   9.128   0.569   2.281
 2849SOL    HW118586   9.185   0.503   2.232
 2849SOL    HW218587   9.135   0.553   2.379
 2850SOL     OW18588   2.592   5.703   1.841
 2850SOL    HW118589   2.549   5.662   1.761
 2850SOL    HW218590   2.674   5.650   1.865
 2851SOL     OW18591   3.651   9.164   2.191
 2851SOL    HW118592   3.572   9.154   2.130
 2851SOL    HW218593   3.620   9.163   2.286
 2852SOL     OW18594   0.646   0.478   1.017
 2852SOL    HW118595   0.582   0.554   1.027
 2852SOL    HW218596   0.720   0.504   0.956
 2853SOL     OW18597   2.400   7.928   1.092
 2853SOL    HW118598   2.315   7.933   1.144
 2853SOL    HW218599   2.379   7.915   0.995
 2854SOL     OW18600   9.617   0.497   0.493
 2854SOL    HW118601   9.666   0.428   0.440
 2854SOL    HW218602   9.570   0.452   0.569
 2855SOL     OW18603   8.207   0.507   2.183
 2855SOL    HW118604   8.122   0.455   2.173
 2855SOL    HW218605   8.195   0.577   2.253
 2856SOL     OW18606   0.731   3.021   1.403
 2856SOL    HW118607   0.693   2.940   1.447
 2856SOL    HW218608   0.692   3.103   1.443
 2857SOL     OW18609   1.685   2.193   1.768
 2857SOL    HW118610   1.586   2.177   1.771
 2857SOL    HW218611   1.704   2.279   1.721
 2858SOL     OW18612   3.336   3.970   1.053
 2858SOL    HW118613   3.419   3.924   1.084
 2858SOL    HW218614   3.277   3.905   1.005
 2859SOL     OW18615   9.817   1.469   0.541
 2859SOL    HW118616   9.780   1.377   0.552
 2859SOL    HW218617   9.848   1.481   0.446
 2860SOL     OW18618   9.086   7.317   1.130
 2860SOL    HW118619   9.120   7.223   1.132
 2860SOL    HW218620   9.038   7.333   1.043
 2861SOL     OW18621   2.432   5.286   2.030
 2861SOL    HW118622   2.382   5.363   2.068
 2861SOL    HW218623   2.493   5.248   2.099
 2862SOL     OW18624   1.123   6.944   0.611
 2862SOL    HW118625   1.026   6.918   0.611
 2862SOL    HW218626   1.140   7.007   0.687
 2863SOL     OW18627   0.138   3.868   2.110
 2863SOL    HW118628   0.208   3.804   2.080
 2863SOL    HW218629   0.053   3.818   2.128
 2864SOL     OW18630   9.246   3.991   2.269
 2864SOL    HW118631   9.202   4.018   2.355
 2864SOL    HW218632   9.328   4.046   2.255
 2865SOL     OW18633   2.240   1.059   2.224
 2865SOL    HW118634   2.189   1.022   2.146
 2865SOL    HW218635   2.299   0.987   2.261
 2866SOL     OW18636   9.684   6.385   1.484
 2866SOL    HW118637   9.701   6.482   1.463
 2866SOL    HW218638   9.706   6.329   1.404
 2867SOL     OW18639   0.012   0.303   0.379
 2867SOL    HW118640   0.033   0.364   0.455
 2867SOL    HW218641   9.914   0.304   0.361
 2868SOL     OW18642   8.693   3.414   1.480
 2868SOL    HW118643   8.624   3.343   1.495
 2868SOL    HW218644   8.708   3.463   1.566
 2869SOL     OW18645   2.242   6.293   0.670
 2869SOL    HW118646   2.201   6.311   0.759
 2869SOL    HW218647   2.170   6.286   0.601
 2870SOL     OW18648   8.357   0.979   0.716
 2870SOL    HW118649   8.436   1.019   0.762
 2870SOL    HW218650   8.377   0.885   0.689
 2871SOL     OW18651   1.856   8.883   0.465
 2871SOL    HW118652   1.862   8.870   0.564
 2871SOL    HW218653   1.761   8.868   0.435
 2872SOL     OW18654   9.251   7.492   1.716
 2872SOL    HW118655   9.261   7.474   1.813
 2872SOL    HW218656   9.221   7.586   1.702
 2873SOL     OW18657   0.610   1.116   2.243
 2873SOL    HW118658   0.697   1.103   2.196
 2873SOL    HW218659   0.561   1.030   2.248
 2874SOL     OW18660   9.017   2.786   0.741
 2874SOL    HW118661   8.917   2.791   0.745
 2874SOL    HW218662   9.044   2.714   0.676
 2875SOL     OW18663   1.696   2.616   1.436
 2875SOL    HW118664   1.699   2.530   1.487
 2875SOL    HW218665   1.621   2.613   1.369
 2876SOL     OW18666   9.759   4.758   0.584
 2876SOL    HW118667   9.842   4.714   0.619
 2876SOL    HW218668   9.700   4.783   0.661
 2877SOL     OW18669   0.645   4.095   1.943
 2877SOL    HW118670   0.615   4.115   2.036
 2877SOL    HW218671   0.566   4.093   1.881
 2878SOL     OW18672   9.991   6.538   1.514
 2878SOL    HW118673   9.899   6.579   1.512
 2878SOL    HW218674   9.993   6.463   1.580
 2879SOL     OW18675   1.346   3.096   0.326
 2879SOL    HW118676   1.348   3.146   0.239
 2879SOL    HW218677   1.253   3.102   0.365
 2880SOL     OW18678   1.708   4.396   1.577
 2880SOL    HW118679   1.728   4.461   1.503
 2880SOL    HW218680   1.674   4.311   1.538
 2881SOL     OW18681   2.436   2.474   0.937
 2881SOL    HW118682   2.516   2.464   0.878
 2881SOL    HW218683   2.432   2.397   1.001
 2882SOL     OW18684   2.916   9.608   0.966
 2882SOL    HW118685   2.863   9.687   0.935
 2882SOL    HW218686   2.994   9.594   0.904
 2883SOL     OW18687   1.398   0.288   0.905
 2883SOL    HW118688   1.340   0.358   0.864
 2883SOL    HW218689   1.488   0.327   0.925
 2884SOL     OW18690   2.002   7.679   0.474
 2884SOL    HW118691   2.070   7.745   0.441
 2884SOL    HW218692   1.911   7.712   0.451
 2885SOL     OW18693   1.790   1.481   1.813
 2885SOL    HW118694   1.827   1.388   1.820
 2885SOL    HW218695   1.784   1.521   1.904
 2886SOL     OW18696   9.998   1.507   1.800
 2886SOL    HW118697   0.035   1.534   1.711
 2886SOL    HW218698   9.968   1.588   1.850
 2887SOL     OW18699   1.991   2.035   0.672
 2887SOL    HW118700   2.018   2.103   0.604
 2887SOL    HW218701   2.007   2.071   0.764
 2888SOL     OW18702   3.515   4.626   1.553
 2888SOL    HW118703   3.529   4.590   1.645
 2888SOL    HW218704   3.427   4.674   1.549
 2889SOL     OW18705   0.323   7.516   0.507
 2889SOL    HW118706   0.233   7.552   0.529
 2889SOL    HW218707   0.390   7.550   0.573
 2890SOL     OW18708   9.840   4.251   1.872
 2890SOL    HW118709   9.758   4.248   1.930
 2890SOL    HW218710   9.917   4.285   1.925
 2891SOL     OW18711   9.084   6.672   1.601
 2891SOL    HW118712   9.064   6.653   1.505
 2891SOL    HW218713   9.040   6.757   1.629
 2892SOL     OW18714   0.531   4.481   0.414
 2892SOL    HW118715   0.625   4.446   0.413
 2892SOL    HW218716   0.514   4.535   0.331
 2893SOL     OW18717   0.426   7.947   1.755
 2893SOL    HW118718   0.476   8.000   1.687
 2893SOL    HW218719   0.489   7.883   1.799
 2894SOL     OW18720   1.179   3.394   1.580
 2894SOL    HW118721   1.240   3.321   1.610
 2894SOL    HW218722   1.230   3.459   1.523
 2895SOL     OW18723   3.520   3.835   1.733
 2895SOL    HW118724   3.604   3.874   1.697
 2895SOL    HW218725   3.509   3.741   1.699
 2896SOL     OW18726   8.074   8.865   0.507
 2896SOL    HW118727   8.098   8.773   0.539
 2896SOL    HW218728   7.976   8.870   0.492
 2897SOL     OW18729   2.042   2.901   0.471
 2897SOL    HW118730   2.121   2.942   0.425
 2897SOL    HW218731   2.073   2.827   0.531
 2898SOL     OW18732   1.117   2.826   1.568
 2898SOL    HW118733   1.206   2.789   1.540
 2898SOL    HW218734   1.067   2.856   1.487
 2899SOL     OW18735   9.414   0.180   1.055
 2899SOL    HW118736   9.446   0.086   1.050
 2899SOL    HW218737   9.348   0.197   0.982
 2900SOL     OW18738   2.266   6.954   0.661
 2900SOL    HW118739   2.197   7.001   0.606
 2900SOL    HW218740   2.256   6.981   0.757
 2901SOL     OW18741   1.899   1.224   1.837
 2901SOL    HW118742   1.869   1.129   1.826
 2901SOL    HW218743   1.975   1.228   1.902
 2902SOL     OW18744   0.983   9.030   1.334
 2902SOL    HW118745   0.960   9.119   1.294
 2902SOL    HW218746   0.991   9.039   1.433
 2903SOL     OW18747   1.946   4.024   1.627
 2903SOL    HW118748   1.937   4.060   1.720
 2903SOL    HW218749   1.876   3.953   1.612
 2904SOL     OW18750   3.396   5.300   1.422
 2904SOL    HW118751   3.377   5.397   1.410
 2904SOL    HW218752   3.312   5.248   1.405
 2905SOL     OW18753   9.759   1.348   1.271
 2905SOL    HW118754   9.697   1.283   1.226
 2905SOL    HW218755   9.742   1.347   1.369
 2906SOL     OW18756   3.692   8.834   0.722
 2906SOL    HW118757   3.644   8.858   0.806
 2906SOL    HW218758   3.791   8.837   0.738
 2907SOL     OW18759   4.385   3.343   0.489
 2907SOL    HW118760   4.448   3.412   0.452
 2907SOL    HW218761   4.401   3.333   0.587
 2908SOL     OW18762   2.983   8.180   2.015
 2908SOL    HW118763   3.043   8.148   1.942
 2908SOL    HW218764   3.027   8.254   2.066
 2909SOL     OW18765   1.617   8.963   1.686
 2909SOL    HW118766   1.671   8.981   1.769
 2909SOL    HW218767   1.654   8.882   1.640
 2910SOL     OW18768   2.766   3.933   0.497
 2910SOL    HW118769   2.730   3.873   0.425
 2910SOL    HW218770   2.837   3.885   0.548
 2911SOL     OW18771   2.094   8.691   2.283
 2911SOL    HW118772   2.126   8.782   2.308
 2911SOL    HW218773   2.005   8.698   2.238
 2912SOL     OW18774   3.449   8.623   1.371
 2912SOL    HW118775   3.516   8.589   1.305
 2912SOL    HW218776   3.359   8.584   1.351
 2913SOL     OW18777   4.071   4.029   1.738
 2913SOL    HW118778   3.989   4.076   1.768
 2913SOL    HW218779   4.096   3.958   1.804
 2914SOL     OW18780   0.515   5.827   1.671
 2914SOL    HW118781   0.505   5.913   1.721
 2914SOL    HW218782   0.585   5.771   1.714
 2915SOL     OW18783   0.297   1.290   0.972
 2915SOL    HW118784   0.290   1.218   1.042
 2915SOL    HW218785   0.296   1.379   1.017
 2916SOL     OW18786   9.945   9.244   1.770
 2916SOL    HW118787   9.921   9.340   1.780
 2916SOL    HW218788   9.972   9.226   1.675
 2917SOL     OW18789   3.940   8.702   2.206
 2917SOL    HW118790   3.981   8.768   2.143
 2917SOL    HW218791   3.996   8.696   2.289
 2918SOL     OW18792   0.528   8.100   1.082
 2918SOL    HW118793   0.458   8.030   1.083
 2918SOL    HW218794   0.559   8.116   0.988
 2919SOL     OW18795   0.890   9.449   0.833
 2919SOL    HW118796   0.906   9.546   0.818
 2919SOL    HW218797   0.938   9.420   0.916
 2920SOL     OW18798   2.737   2.444   1.694
 2920SOL    HW118799   2.707   2.349   1.685
 2920SOL    HW218800   2.676   2.503   1.641
 2921SOL     OW18801   9.956   3.335   1.468
 2921SOL    HW118802   9.932   3.390   1.388
 2921SOL    HW218803   0.055   3.341   1.484
 2922SOL     OW18804   0.330   8.628   1.056
 2922SOL    HW118805   0.297   8.712   1.014
 2922SOL    HW218806   0.316   8.633   1.155
 2923SOL     OW18807   1.766   0.697   1.680
 2923SOL    HW118808   1.775   0.628   1.751
 2923SOL    HW218809   1.839   0.686   1.612
 2924SOL     OW18810   0.538   3.480   0.919
 2924SOL    HW118811   0.526   3.456   0.822
 2924SOL    HW218812   0.634   3.470   0.944
 2925SOL     OW18813   2.241   9.090   1.700
 2925SOL    HW118814   2.175   9.015   1.704
 2925SOL    HW218815   2.203   9.165   1.646
 2926SOL     OW18816   9.651   0.313   1.084
 2926SOL    HW118817   9.557   0.279   1.093
 2926SOL    HW218818   9.682   0.347   1.173
 2927SOL     OW18819   2.628   3.431   1.093
 2927SOL    HW118820   2.702   3.389   1.146
 2927SOL    HW218821   2.666   3.474   1.011
 2928SOL     OW18822   3.058   1.320   1.997
 2928SOL    HW118823   3.070   1.394   1.932
 2928SOL    HW218824   3.061   1.232   1.950
 2929SOL     OW18825   9.007   1.425   2.282
 2929SOL    HW118826   8.942   1.501   2.290
 2929SOL    HW218827   8.958   1.339   2.290
 2930SOL     OW18828   0.904   9.518   1.497
 2930SOL    HW118829   0.812   9.554   1.481
 2930SOL    HW218830   0.971   9.591   1.482
 2931SOL     OW18831   2.620   9.613   1.177
 2931SOL    HW118832   2.674   9.534   1.148
 2931SOL    HW218833   2.590   9.600   1.272
 2932SOL     OW18834   1.757   8.141   0.838
 2932SOL    HW118835   1.716   8.069   0.783
 2932SOL    HW218836   1.783   8.218   0.779
 2933SOL     OW18837   0.427   5.481   1.858
 2933SOL    HW118838   0.519   5.456   1.890
 2933SOL    HW218839   0.375   5.520   1.934
 2934SOL     OW18840   9.026   7.658   2.065
 2934SOL    HW118841   9.016   7.561   2.085
 2934SOL    HW218842   9.122   7.684   2.073
 2935SOL     OW18843   1.607   8.757   0.805
 2935SOL    HW118844   1.548   8.792   0.877
 2935SOL    HW218845   1.551   8.730   0.726
 2936SOL     OW18846   0.283   2.103   1.721
 2936SOL    HW118847   0.293   2.019   1.668
 2936SOL    HW218848   0.296   2.083   1.818
 2937SOL     OW18849   1.876   4.276   2.244
 2937SOL    HW118850   1.971   4.305   2.249
 2937SOL    HW218851   1.845   4.279   2.149
 2938SOL     OW18852   9.092   3.241   0.779
 2938SOL    HW118853   9.123   3.298   0.855
 2938SOL    HW218854   9.131   3.149   0.789
 2939SOL     OW18855   9.421   8.446   1.251
 2939SOL    HW118856   9.434   8.450   1.152
 2939SOL    HW218857   9.454   8.358   1.286
 2940SOL     OW18858   4.503   2.966   0.972
 2940SOL    HW118859   4.479   2.876   1.010
 2940SOL    HW218860   4.488   3.037   1.041
 2941SOL     OW18861   2.193   1.805   1.460
 2941SOL    HW118862   2.271   1.785   1.519
 2941SOL    HW218863   2.135   1.724   1.453
 2942SOL     OW18864   1.914   2.957   0.939
 2942SOL    HW118865   1.829   3.004   0.965
 2942SOL    HW218866   1.981   2.964   1.013
 2943SOL     OW18867   1.026   2.885   1.811
 2943SOL    HW118868   1.063   2.863   1.720
 2943SOL    HW218869   0.955   2.819   1.835
 2944SOL     OW18870   1.975   5.203   1.805
 2944SOL    HW118871   1.879   5.176   1.797
 2944SOL    HW218872   2.034   5.131   1.769
 2945SOL     OW18873   0.415   6.872   1.337
 2945SOL    HW118874   0.393   6.910   1.427
 2945SOL    HW218875   0.411   6.773   1.342
 2946SOL     OW18876   0.962   9.857   2.032
 2946SOL    HW118877   0.928   9.844   1.939
 2946SOL    HW218878   0.903   9.922   2.080
 2947SOL     OW18879   9.786   2.688   1.307
 2947SOL    HW118880   9.869   2.697   1.362
 2947SOL    HW218881   9.759   2.591   1.303
 2948SOL     OW18882   8.926   8.138   1.559
 2948SOL    HW118883   8.898   8.131   1.655
 2948SOL    HW218884   8.855   8.186   1.507
 2949SOL     OW18885   9.660   1.713   1.794
 2949SOL    HW118886   9.611   1.793   1.829
 2949SOL    HW218887   9.752   1.710   1.832
 2950SOL     OW18888   2.101   3.174   2.076
 2950SOL    HW118889   2.145   3.092   2.113
 2950SOL    HW218890   2.170   3.242   2.054
 2951SOL     OW18891   1.235   9.669   2.233
 2951SOL    HW118892   1.308   9.606   2.257
 2951SOL    HW218893   1.147   9.620   2.231
 2952SOL     OW18894   9.411   9.919   0.350
 2952SOL    HW118895   9.442   9.833   0.391
 2952SOL    HW218896   9.373   9.978   0.421
 2953SOL     OW18897   0.483   8.388   1.929
 2953SOL    HW118898   0.469   8.388   2.028
 2953SOL    HW218899   0.535   8.306   1.903
 2954SOL     OW18900   0.965   5.753   1.867
 2954SOL    HW118901   1.039   5.716   1.811
 2954SOL    HW218902   0.964   5.852   1.859
 2955SOL     OW18903   8.377   8.794   2.062
 2955SOL    HW118904   8.434   8.815   2.141
 2955SOL    HW218905   8.332   8.878   2.031
 2956SOL     OW18906   1.355   8.509   1.818
 2956SOL    HW118907   1.276   8.484   1.762
 2956SOL    HW218908   1.325   8.572   1.890
 2957SOL     OW18909   2.499   5.161   0.854
 2957SOL    HW118910   2.570   5.094   0.874
 2957SOL    HW218911   2.413   5.134   0.897
 2958SOL     OW18912   1.312   9.367   1.063
 2958SOL    HW118913   1.353   9.341   1.150
 2958SOL    HW218914   1.372   9.432   1.017
 2959SOL     OW18915   4.666   2.134   1.826
 2959SOL    HW118916   4.651   2.036   1.841
 2959SOL    HW218917   4.633   2.185   1.905
 2960SOL     OW18918   3.625   9.031   1.789
 2960SOL    HW118919   3.682   8.979   1.725
 2960SOL    HW218920   3.566   9.094   1.738
 2961SOL     OW18921   1.997   2.709   1.849
 2961SOL    HW118922   1.985   2.651   1.930
 2961SOL    HW218923   2.065   2.779   1.868
 2962SOL     OW18924   9.381   1.903   0.931
 2962SOL    HW118925   9.445   1.839   0.889
 2962SOL    HW218926   9.352   1.868   1.021
 2963SOL     OW18927   0.963   6.610   0.591
 2963SOL    HW118928   1.057   6.629   0.562
 2963SOL    HW218929   0.913   6.697   0.599
 2964SOL     OW18930   1.632   7.807   2.138
 2964SOL    HW118931   1.691   7.874   2.093
 2964SOL    HW218932   1.539   7.842   2.142
 2965SOL     OW18933   0.239   9.003   1.750
 2965SOL    HW118934   0.252   9.092   1.706
 2965SOL    HW218935   0.181   9.014   1.831
 2966SOL     OW18936   1.709   5.694   2.035
 2966SOL    HW118937   1.728   5.620   2.100
 2966SOL    HW218938   1.792   5.715   1.983
 2967SOL     OW18939   3.114   4.190   0.360
 2967SOL    HW118940   3.030   4.190   0.414
 2967SOL    HW218941   3.113   4.266   0.296
 2968SOL     OW18942   2.351   7.247   1.364
 2968SOL    HW118943   2.341   7.330   1.419
 2968SOL    HW218944   2.303   7.171   1.409
 2969SOL     OW18945   2.790   8.296   0.976
 2969SOL    HW118946   2.822   8.227   1.040
 2969SOL    HW218947   2.713   8.347   1.016
 2970SOL     OW18948   1.756   1.582   2.071
 2970SOL    HW118949   1.752   1.508   2.138
 2970SOL    HW218950   1.669   1.632   2.071
 2971SOL     OW18951   3.645   0.872   1.622
 2971SOL    HW118952   3.545   0.869   1.615
 2971SOL    HW218953   3.684   0.915   1.541
 2972SOL     OW18954   2.983   1.041   0.664
 2972SOL    HW118955   3.008   1.136   0.684
 2972SOL    HW218956   2.884   1.035   0.652
 2973SOL     OW18957   0.213   8.551   2.182
 2973SOL    HW118958   0.149   8.559   2.106
 2973SOL    HW218959   0.274   8.631   2.183
 2974SOL     OW18960   3.821   4.568   1.170
 2974SOL    HW118961   3.760   4.527   1.237
 2974SOL    HW218962   3.795   4.663   1.154
 2975SOL     OW18963   4.333   9.303   1.574
 2975SOL    HW118964   4.410   9.348   1.619
 2975SOL    HW218965   4.249   9.351   1.596
 2976SOL     OW18966   3.175   9.124   1.136
 2976SOL    HW118967   3.133   9.161   1.054
 2976SOL    HW218968   3.197   9.028   1.123
 2977SOL     OW18969   3.120   9.577   0.786
 2977SOL    HW118970   3.073   9.494   0.758
 2977SOL    HW218971   3.219   9.566   0.774
 2978SOL     OW18972   7.668   0.332   0.984
 2978SOL    HW118973   7.639   0.414   1.033
 2978SOL    HW218974   7.766   0.337   0.965
 2979SOL     OW18975   9.247   4.861   2.275
 2979SOL    HW118976   9.162   4.900   2.240
 2979SOL    HW218977   9.248   4.762   2.257
 2980SOL     OW18978   1.007   2.821   0.684
 2980SOL    HW118979   1.080   2.821   0.616
 2980SOL    HW218980   0.986   2.726   0.709
 2981SOL     OW18981   8.683   1.311   1.870
 2981SOL    HW118982   8.764   1.269   1.911
 2981SOL    HW218983   8.605   1.249   1.879
 2982SOL     OW18984   1.486   2.509   1.022
 2982SOL    HW118985   1.515   2.475   0.933
 2982SOL    HW218986   1.495   2.437   1.090
 2983SOL     OW18987   8.173   2.162   1.128
 2983SOL    HW118988   8.168   2.235   1.196
 2983SOL    HW218989   8.135   2.195   1.042
 2984SOL     OW18990   0.265   7.538   1.219
 2984SOL    HW118991   0.250   7.459   1.159
 2984SOL    HW218992   0.238   7.515   1.312
 2985SOL     OW18993   1.318   0.151   1.142
 2985SOL    HW118994   1.302   0.198   1.229
 2985SOL    HW218995   1.342   0.218   1.072
 2986SOL     OW18996   4.495   3.188   1.137
 2986SOL    HW118997   4.560   3.222   1.069
 2986SOL    HW218998   4.513   3.232   1.225
 2987SOL     OW18999   9.152   6.468   0.849
 2987SOL    HW119000   9.221   6.464   0.776
 2987SOL    HW219001   9.195   6.449   0.937
 2988SOL     OW19002   2.438   9.804   0.705
 2988SOL    HW119003   2.344   9.833   0.723
 2988SOL    HW219004   2.472   9.751   0.783
 2989SOL     OW19005   1.657   2.398   0.418
 2989SOL    HW119006   1.716   2.319   0.403
 2989SOL    HW219007   1.713   2.479   0.437
 2990SOL     OW19008   8.393   0.164   0.463
 2990SOL    HW119009   8.406   0.067   0.444
 2990SOL    HW219010   8.473   0.200   0.511
 2991SOL     OW19011   3.108   0.044   0.980
 2991SOL    HW119012   3.179   0.108   1.010
 2991SOL    HW219013   3.052   0.088   0.910
 2992SOL     OW19014   1.188   2.485   1.531
 2992SOL    HW119015   1.210   2.440   1.444
 2992SOL    HW219016   1.232   2.574   1.534
 2993SOL     OW19017   9.909   7.607   1.396
 2993SOL    HW119018   9.949   7.648   1.314
 2993SOL    HW219019   9.809   7.605   1.387
 2994SOL     OW19020   1.014   3.604   0.951
 2994SOL    HW119021   1.033   3.553   0.867
 2994SOL    HW219022   1.099   3.637   0.991
 2995SOL     OW19023   2.607   3.485   1.764
 2995SOL    HW119024   2.572   3.392   1.759
 2995SOL    HW219025   2.585   3.525   1.853
 2996SOL     OW19026   0.078   9.079   0.724
 2996SOL    HW119027   0.039   9.032   0.802
 2996SOL    HW219028   0.115   9.167   0.753
 2997SOL     OW19029   0.255   0.572   0.912
 2997SOL    HW119030   0.182   0.507   0.933
 2997SOL    HW219031   0.227   0.630   0.836
 2998SOL     OW19032   2.791   8.790   1.242
 2998SOL    HW119033   2.817   8.774   1.147
 2998SOL    HW219034   2.819   8.881   1.270
 2999SOL     OW19035   0.080   8.553   1.487
 2999SOL    HW119036   0.104   8.609   1.566
 2999SOL    HW219037   0.107   8.458   1.504
 3000SOL     OW19038   3.526   4.173   1.028
 3000SOL    HW119039   3.458   4.101   1.042
 3000SOL    HW219040   3.617   4.132   1.020
 3001SOL     OW19041   2.055   1.378   1.652
 3001SOL    HW119042   1.995   1.308   1.691
 3001SOL    HW219043   2.099   1.428   1.726
 3002SOL     OW19044   2.940   8.964   1.743
 3002SOL    HW119045   3.006   9.031   1.779
 3002SOL    HW219046   2.849   8.983   1.781
 3003SOL     OW19047   0.014   1.042   1.457
 3003SOL    HW119048   0.088   0.976   1.467
 3003SOL    HW219049   0.045   1.132   1.490
 3004SOL     OW19050   8.000   0.913   1.127
 3004SOL    HW119051   8.073   0.946   1.067
 3004SOL    HW219052   7.979   0.983   1.195
 3005SOL     OW19053   1.499   5.258   1.175
 3005SOL    HW119054   1.458   5.343   1.208
 3005SOL    HW219055   1.543   5.274   1.087
 3006SOL     OW19056   1.103   7.826   2.056
 3006SOL    HW119057   1.016   7.865   2.085
 3006SOL    HW219058   1.100   7.806   1.958
 3007SOL     OW19059   9.044   8.466   2.068
 3007SOL    HW119060   9.127   8.419   2.098
 3007SOL    HW219061   9.068   8.539   2.004
 3008SOL     OW19062   3.808   0.301   0.534
 3008SOL    HW119063   3.715   0.302   0.497
 3008SOL    HW219064   3.809   0.253   0.621
 3009SOL     OW19065   9.515   6.907   0.828
 3009SOL    HW119066   9.553   6.824   0.868
 3009SOL    HW219067   9.562   6.926   0.741
 3010SOL     OW19068   3.928   2.548   2.043
 3010SOL    HW119069   4.014   2.498   2.058
 3010SOL    HW219070   3.862   2.488   1.997
 3011SOL     OW19071   0.673   9.975   1.715
 3011SOL    HW119072   0.717   0.060   1.686
 3011SOL    HW219073   0.743   9.909   1.743
 3012SOL     OW19074   2.531   9.998   1.796
 3012SOL    HW119075   2.445   9.980   1.749
 3012SOL    HW219076   2.605   0.003   1.729
 3013SOL     OW19077   1.904   2.063   1.852
 3013SOL    HW119078   1.819   2.109   1.827
 3013SOL    HW219079   1.900   2.036   1.948
 3014SOL     OW19080   3.305   0.593   0.527
 3014SOL    HW119081   3.366   0.640   0.464
 3014SOL    HW219082   3.210   0.619   0.508
 3015SOL     OW19083   0.848   6.840   1.526
 3015SOL    HW119084   0.881   6.814   1.435
 3015SOL    HW219085   0.799   6.927   1.521
 3016SOL     OW19086   0.054   1.526   0.677
 3016SOL    HW119087   0.055   1.465   0.756
 3016SOL    HW219088   9.967   1.518   0.629
 3017SOL     OW19089   0.149   7.758   1.934
 3017SOL    HW119090   0.168   7.795   1.843
 3017SOL    HW219091   0.183   7.821   2.003
 3018SOL     OW19092   0.059   1.112   2.271
 3018SOL    HW119093   0.091   1.066   2.354
 3018SOL    HW219094   0.019   1.201   2.295
 3019SOL     OW19095   0.305   5.602   2.073
 3019SOL    HW119096   0.341   5.556   2.154
 3019SOL    HW219097   0.316   5.701   2.083
 3020SOL     OW19098   0.093   0.701   0.714
 3020SOL    HW119099   0.007   0.744   0.686
 3020SOL    HW219100   0.162   0.716   0.644
 3021SOL     OW19101   8.610   7.793   2.021
 3021SOL    HW119102   8.643   7.823   1.932
 3021SOL    HW219103   8.543   7.859   2.056
 3022SOL     OW19104   3.847   2.401   0.880
 3022SOL    HW119105   3.896   2.441   0.958
 3022SOL    HW219106   3.898   2.419   0.796
 3023SOL     OW19107   2.868   1.204   1.519
 3023SOL    HW119108   2.961   1.223   1.489
 3023SOL    HW219109   2.806   1.272   1.480
 3024SOL     OW19110   9.958   3.866   1.366
 3024SOL    HW119111   0.046   3.855   1.320
 3024SOL    HW219112   9.936   3.782   1.417
 3025SOL     OW19113   9.562   5.835   1.804
 3025SOL    HW119114   9.556   5.908   1.735
 3025SOL    HW219115   9.656   5.801   1.809
 3026SOL     OW19116   2.698   0.171   0.690
 3026SOL    HW119117   2.638   0.115   0.632
 3026SOL    HW219118   2.656   0.182   0.780
 3027SOL     OW19119   2.507   6.820   2.293
 3027SOL    HW119120   2.490   6.864   2.381
 3027SOL    HW219121   2.500   6.721   2.302
 3028SOL     OW19122   3.646   0.838   0.461
 3028SOL    HW119123   3.612   0.746   0.447
 3028SOL    HW219124   3.743   0.834   0.486
 3029SOL     OW19125   9.605   3.216   1.206
 3029SOL    HW119126   9.596   3.291   1.271
 3029SOL    HW219127   9.564   3.133   1.245
 3030SOL     OW19128   9.028   5.371   0.932
 3030SOL    HW119129   9.061   5.368   1.027
 3030SOL    HW219130   9.104   5.393   0.871
 3031SOL     OW19131   2.093   7.526   1.840
 3031SOL    HW119132   2.165   7.593   1.826
 3031SOL    HW219133   2.034   7.522   1.759
 3032SOL     OW19134   3.309   4.180   1.519
 3032SOL    HW119135   3.298   4.120   1.440
 3032SOL    HW219136   3.221   4.221   1.542
 3033SOL     OW19137   0.231   9.870   1.559
 3033SOL    HW119138   0.169   9.853   1.636
 3033SOL    HW219139   0.216   9.963   1.524
 3034SOL     OW19140   3.450   9.709   2.241
 3034SOL    HW119141   3.544   9.717   2.207
 3034SOL    HW219142   3.413   9.800   2.259
 3035SOL     OW19143   1.636   1.279   0.733
 3035SOL    HW119144   1.593   1.346   0.672
 3035SOL    HW219145   1.634   1.189   0.690
 3036SOL     OW19146   1.156   3.826   1.712
 3036SOL    HW119147   1.194   3.905   1.760
 3036SOL    HW219148   1.061   3.812   1.739
 3037SOL     OW19149   9.679   4.472   2.138
 3037SOL    HW119150   9.614   4.521   2.196
 3037SOL    HW219151   9.637   4.387   2.106
 3038SOL     OW19152   9.955   9.170   2.189
 3038SOL    HW119153   9.902   9.252   2.171
 3038SOL    HW219154   0.047   9.195   2.218
 3039SOL     OW19155   3.932   2.426   0.598
 3039SOL    HW119156   3.905   2.522   0.585
 3039SOL    HW219157   4.031   2.420   0.602
 3040SOL     OW19158   1.814   6.958   1.044
 3040SOL    HW119159   1.765   6.908   1.115
 3040SOL    HW219160   1.862   6.893   0.985
 3041SOL     OW19161   2.672   6.333   1.591
 3041SOL    HW119162   2.708   6.246   1.624
 3041SOL    HW219163   2.593   6.317   1.533
 3042SOL     OW19164   2.512   2.569   0.585
 3042SOL    HW119165   2.417   2.538   0.583
 3042SOL    HW219166   2.565   2.511   0.646
 3043SOL     OW19167   3.934   9.303   1.807
 3043SOL    HW119168   3.893   9.316   1.897
 3043SOL    HW219169   3.982   9.215   1.805
 3044SOL     OW19170   0.183   5.534   1.458
 3044SOL    HW119171   0.249   5.485   1.402
 3044SOL    HW219172   0.231   5.583   1.531
 3045SOL     OW19173   2.313   3.130   1.089
 3045SOL    HW119174   2.317   3.229   1.098
 3045SOL    HW219175   2.402   3.091   1.113
 3046SOL     OW19176   8.796   1.603   2.276
 3046SOL    HW119177   8.749   1.573   2.193
 3046SOL    HW219178   8.785   1.702   2.287
 3047SOL     OW19179   3.292   7.937   2.018
 3047SOL    HW119180   3.334   7.972   2.102
 3047SOL    HW219181   3.249   8.012   1.969
 3048SOL     OW19182   1.544   3.853   1.140
 3048SOL    HW119183   1.448   3.873   1.158
 3048SOL    HW219184   1.554   3.757   1.113
 3049SOL     OW19185   1.649   3.966   1.793
 3049SOL    HW119186   1.674   3.915   1.711
 3049SOL    HW219187   1.550   3.978   1.796
 3050SOL     OW19188   2.619   4.994   1.468
 3050SOL    HW119189   2.613   5.043   1.555
 3050SOL    HW219190   2.605   5.057   1.392
 3051SOL     OW19191   3.898   4.907   1.419
 3051SOL    HW119192   3.855   4.991   1.386
 3051SOL    HW219193   3.993   4.905   1.389
 3052SOL     OW19194   3.429   0.431   1.864
 3052SOL    HW119195   3.398   0.474   1.948
 3052SOL    HW219196   3.361   0.446   1.792
 3053SOL     OW19197   9.381   4.897   1.681
 3053SOL    HW119198   9.435   4.944   1.611
 3053SOL    HW219199   9.352   4.963   1.750
 3054SOL     OW19200   3.241   4.574   2.297
 3054SOL    HW119201   3.275   4.593   2.389
 3054SOL    HW219202   3.244   4.658   2.242
 3055SOL     OW19203   0.419   4.611   1.773
 3055SOL    HW119204   0.483   4.687   1.778
 3055SOL    HW219205   0.449   4.546   1.703
 3056SOL     OW19206   0.786   0.037   2.138
 3056SOL    HW119207   0.699   9.990   2.152
 3056SOL    HW219208   0.769   0.125   2.094
 3057SOL     OW19209   9.268   2.664   1.104
 3057SOL    HW119210   9.295   2.643   1.198
 3057SOL    HW219211   9.348   2.663   1.045
 3058SOL     OW19212   0.149   9.781   1.299
 3058SOL    HW119213   0.197   9.860   1.261
 3058SOL    HW219214   0.163   9.778   1.398
 3059SOL     OW19215   3.067   2.050   2.233
 3059SOL    HW119216   3.085   1.953   2.248
 3059SOL    HW219217   2.969   2.067   2.245
 3060SOL     OW19218   3.530   2.702   1.852
 3060SOL    HW119219   3.512   2.701   1.950
 3060SOL    HW219220   3.460   2.757   1.806
 3061SOL     OW19221   3.310   4.013   1.743
 3061SOL    HW119222   3.383   3.944   1.741
 3061SOL    HW219223   3.319   4.073   1.664
 3062SOL     OW19224   1.611   8.151   1.817
 3062SOL    HW119225   1.536   8.097   1.778
 3062SOL    HW219226   1.645   8.216   1.749
 3063SOL     OW19227   0.468   6.077   1.778
 3063SOL    HW119228   0.480   6.134   1.697
 3063SOL    HW219229   0.370   6.068   1.798
 3064SOL     OW19230   3.337   7.532   0.825
 3064SOL    HW119231   3.261   7.529   0.760
 3064SOL    HW219232   3.424   7.524   0.775
 3065SOL     OW19233   9.238   7.809   0.502
 3065SOL    HW119234   9.167   7.880   0.505
 3065SOL    HW219235   9.250   7.771   0.594
 3066SOL     OW19236   2.409   6.277   1.163
 3066SOL    HW119237   2.442   6.370   1.148
 3066SOL    HW219238   2.458   6.213   1.103
 3067SOL     OW19239   2.892   7.902   1.950
 3067SOL    HW119240   2.820   7.850   1.997
 3067SOL    HW219241   2.913   7.985   2.001
 3068SOL     OW19242   0.333   7.914   1.029
 3068SOL    HW119243   0.234   7.929   1.021
 3068SOL    HW219244   0.360   7.841   0.967
 3069SOL     OW19245   2.574   6.038   1.398
 3069SOL    HW119246   2.651   5.981   1.427
 3069SOL    HW219247   2.608   6.124   1.360
 3070SOL     OW19248   0.466   3.737   0.986
 3070SOL    HW119249   0.489   3.643   0.965
 3070SOL    HW219250   0.415   3.778   0.910
 3071SOL     OW19251   1.150   0.426   1.148
 3071SOL    HW119252   1.234   0.480   1.136
 3071SOL    HW219253   1.100   0.423   1.061
 3072SOL     OW19254   2.539   1.938   2.092
 3072SOL    HW119255   2.619   1.992   2.117
 3072SOL    HW219256   2.540   1.851   2.141
 3073SOL     OW19257   3.233   4.939   1.530
 3073SOL    HW119258   3.329   4.964   1.515
 3073SOL    HW219259   3.186   4.935   1.442
 3074SOL     OW19260   2.378   5.523   0.583
 3074SOL    HW119261   2.283   5.532   0.614
 3074SOL    HW219262   2.406   5.427   0.591
 3075SOL     OW19263   4.334   0.074   0.695
 3075SOL    HW119264   4.353   0.058   0.598
 3075SOL    HW219265   4.260   0.013   0.724
 3076SOL     OW19266   0.534   9.308   1.725
 3076SOL    HW119267   0.444   9.268   1.705
 3076SOL    HW219268   0.524   9.406   1.738
 3077SOL     OW19269   9.072   9.367   1.467
 3077SOL    HW119270   9.167   9.336   1.466
 3077SOL    HW219271   9.053   9.421   1.385
 3078SOL     OW19272   4.291   4.880   0.829
 3078SOL    HW119273   4.384   4.881   0.864
 3078SOL    HW219274   4.275   4.796   0.777
 3079SOL     OW19275   2.341   7.611   0.799
 3079SOL    HW119276   2.308   7.581   0.889
 3079SOL    HW219277   2.280   7.576   0.728
 3080SOL     OW19278   1.023   1.544   1.213
 3080SOL    HW119279   1.107   1.565   1.163
 3080SOL    HW219280   1.036   1.562   1.311
 3081SOL     OW19281   2.267   3.031   0.374
 3081SOL    HW119282   2.284   3.070   0.465
 3081SOL    HW219283   2.308   3.090   0.305
 3082SOL     OW19284   0.544   6.062   1.245
 3082SOL    HW119285   0.506   6.154   1.244
 3082SOL    HW219286   0.558   6.030   1.151
 3083SOL     OW19287   8.879   8.706   1.860
 3083SOL    HW119288   8.855   8.628   1.801
 3083SOL    HW219289   8.977   8.703   1.880
 3084SOL     OW19290   3.349   5.544   0.766
 3084SOL    HW119291   3.307   5.461   0.731
 3084SOL    HW219292   3.360   5.536   0.865
 3085SOL     OW19293   1.710   9.380   1.067
 3085SOL    HW119294   1.655   9.379   1.150
 3085SOL    HW219295   1.727   9.286   1.037
 3086SOL     OW19296   0.507   4.943   0.774
 3086SOL    HW119297   0.589   4.889   0.796
 3086SOL    HW219298   0.474   4.918   0.683
 3087SOL     OW19299   7.710   0.554   1.652
 3087SOL    HW119300   7.648   0.541   1.575
 3087SOL    HW219301   7.801   0.520   1.628
 3088SOL     OW19302   1.512   3.375   1.246
 3088SOL    HW119303   1.415   3.392   1.228
 3088SOL    HW219304   1.529   3.277   1.247
 3089SOL     OW19305   3.078   4.051   0.713
 3089SOL    HW119306   3.088   4.064   0.812
 3089SOL    HW219307   3.043   3.960   0.694
 3090SOL     OW19308   1.766   6.747   1.917
 3090SOL    HW119309   1.851   6.729   1.967
 3090SOL    HW219310   1.729   6.836   1.944
 3091SOL     OW19311   1.322   5.829   0.433
 3091SOL    HW119312   1.334   5.839   0.532
 3091SOL    HW219313   1.399   5.777   0.396
 3092SOL     OW19314   0.268   1.397   2.122
 3092SOL    HW119315   0.203   1.455   2.172
 3092SOL    HW219316   0.349   1.382   2.179
 3093SOL     OW19317   8.800   1.503   1.708
 3093SOL    HW119318   8.821   1.574   1.775
 3093SOL    HW219319   8.756   1.425   1.754
 3094SOL     OW19320   1.075   2.683   0.979
 3094SOL    HW119321   1.034   2.649   0.894
 3094SOL    HW219322   1.169   2.711   0.962
 3095SOL     OW19323   1.051   3.035   0.870
 3095SOL    HW119324   0.975   3.101   0.868
 3095SOL    HW219325   1.029   2.958   0.811
 3096SOL     OW19326   0.204   1.778   1.048
 3096SOL    HW119327   0.304   1.773   1.050
 3096SOL    HW219328   0.173   1.777   0.953
 3097SOL     OW19329   3.616   1.940   0.818
 3097SOL    HW119330   3.673   2.010   0.860
 3097SOL    HW219331   3.593   1.870   0.886
 3098SOL     OW19332   8.846   6.544   1.679
 3098SOL    HW119333   8.785   6.567   1.603
 3098SOL    HW219334   8.934   6.589   1.666
 3099SOL     OW19335   3.659   1.642   0.502
 3099SOL    HW119336   3.750   1.667   0.535
 3099SOL    HW219337   3.591   1.705   0.539
 3100SOL     OW19338   2.529   4.711   1.885
 3100SOL    HW119339   2.543   4.727   1.983
 3100SOL    HW219340   2.446   4.657   1.872
 3101SOL     OW19341   4.360   9.250   1.303
 3101SOL    HW119342   4.291   9.306   1.257
 3101SOL    HW219343   4.356   9.267   1.401
 3102SOL     OW19344   9.286   2.595   2.069
 3102SOL    HW119345   9.360   2.635   2.014
 3102SOL    HW219346   9.213   2.563   2.009
 3103SOL     OW19347   0.531   7.574   0.695
 3103SOL    HW119348   0.556   7.478   0.680
 3103SOL    HW219349   0.614   7.628   0.709
 3104SOL     OW19350   2.042   7.668   1.134
 3104SOL    HW119351   1.983   7.676   1.054
 3104SOL    HW219352   2.015   7.736   1.202
 3105SOL     OW19353   3.658   9.816   1.659
 3105SOL    HW119354   3.706   9.884   1.605
 3105SOL    HW219355   3.707   9.729   1.654
 3106SOL     OW19356   8.504   0.473   1.300
 3106SOL    HW119357   8.519   0.557   1.352
 3106SOL    HW219358   8.429   0.488   1.234
 3107SOL     OW19359   3.771   2.146   0.946
 3107SOL    HW119360   3.800   2.236   0.914
 3107SOL    HW219361   3.850   2.084   0.945
 3108SOL     OW19362   2.822   0.785   1.072
 3108SOL    HW119363   2.745   0.729   1.102
 3108SOL    HW219364   2.821   0.872   1.123
 3109SOL     OW19365   3.754   3.063   0.979
 3109SOL    HW119366   3.826   3.012   0.931
 3109SOL    HW219367   3.738   3.150   0.934
 3110SOL     OW19368   1.845   0.989   2.091
 3110SOL    HW119369   1.750   0.958   2.093
 3110SOL    HW219370   1.853   1.075   2.142
 3111SOL     OW19371   2.352   5.148   1.802
 3111SOL    HW119372   2.439   5.112   1.769
 3111SOL    HW219373   2.366   5.193   1.890
 3112SOL     OW19374   9.668   6.708   0.940
 3112SOL    HW119375   9.751   6.762   0.952
 3112SOL    HW219376   9.631   6.683   1.029
 3113SOL     OW19377   2.101   0.544   1.873
 3113SOL    HW119378   2.134   0.480   1.803
 3113SOL    HW219379   2.169   0.616   1.885
 3114SOL     OW19380   0.317   2.065   1.995
 3114SOL    HW119381   0.412   2.094   1.984
 3114SOL    HW219382   0.268   2.132   2.051
 3115SOL     OW19383   0.144   2.604   0.850
 3115SOL    HW119384   0.140   2.545   0.769
 3115SOL    HW219385   0.060   2.593   0.903
 3116SOL     OW19386   3.734   1.409   0.721
 3116SOL    HW119387   3.665   1.449   0.782
 3116SOL    HW219388   3.697   1.404   0.628
 3117SOL     OW19389   2.737   1.423   1.407
 3117SOL    HW119390   2.731   1.465   1.498
 3117SOL    HW219391   2.713   1.492   1.338
 3118SOL     OW19392   8.063   0.654   1.058
 3118SOL    HW119393   8.035   0.742   1.096
 3118SOL    HW219394   8.092   0.666   0.963
 3119SOL     OW19395   9.313   4.903   0.748
 3119SOL    HW119396   9.325   4.926   0.844
 3119SOL    HW219397   9.239   4.957   0.709
 3120SOL     OW19398   0.077   1.282   1.583
 3120SOL    HW119399   0.059   1.366   1.532
 3120SOL    HW219400   0.012   1.274   1.659
 3121SOL     OW19401   2.174   9.896   0.753
 3121SOL    HW119402   2.117   9.970   0.717
 3121SOL    HW219403   2.138   9.808   0.724
 3122SOL     OW19404   8.782   0.613   1.961
 3122SOL    HW119405   8.799   0.711   1.948
 3122SOL    HW219406   8.793   0.590   2.058
 3123SOL     OW19407   3.355   2.861   1.699
 3123SOL    HW119408   3.363   2.958   1.718
 3123SOL    HW219409   3.420   2.834   1.628
 3124SOL     OW19410   1.233   3.050   1.883
 3124SOL    HW119411   1.159   2.987   1.858
 3124SOL    HW219412   1.221   3.078   1.979
 3125SOL     OW19413   3.389   8.222   1.330
 3125SOL    HW119414   3.400   8.320   1.345
 3125SOL    HW219415   3.326   8.185   1.399
 3126SOL     OW19416   1.092   1.050   1.962
 3126SOL    HW119417   1.136   0.981   1.905
 3126SOL    HW219418   1.157   1.123   1.982
 3127SOL     OW19419   0.968   0.234   2.225
 3127SOL    HW119420   0.908   0.291   2.168
 3127SOL    HW219421   0.928   0.143   2.234
 3128SOL     OW19422   0.172   7.880   1.688
 3128SOL    HW119423   0.258   7.924   1.713
 3128SOL    HW219424   0.192   7.796   1.637
 3129SOL     OW19425   8.366   8.518   1.611
 3129SOL    HW119426   8.437   8.449   1.598
 3129SOL    HW219427   8.391   8.578   1.687
 3130SOL     OW19428   9.435   3.214   0.769
 3130SOL    HW119429   9.416   3.117   0.752
 3130SOL    HW219430   9.374   3.270   0.712
 3131SOL     OW19431   8.920   6.876   1.659
 3131SOL    HW119432   8.843   6.859   1.721
 3131SOL    HW219433   8.888   6.922   1.577
 3132SOL     OW19434   8.350   1.955   1.098
 3132SOL    HW119435   8.282   2.022   1.127
 3132SOL    HW219436   8.376   1.898   1.176
 3133SOL     OW19437   1.530   5.469   0.555
 3133SOL    HW119438   1.477   5.403   0.608
 3133SOL    HW219439   1.543   5.553   0.607
 3134SOL     OW19440   9.243   8.706   1.648
 3134SOL    HW119441   9.253   8.806   1.654
 3134SOL    HW219442   9.292   8.672   1.568
 3135SOL     OW19443   8.090   9.004   0.743
 3135SOL    HW119444   8.184   9.033   0.762
 3135SOL    HW219445   8.087   8.954   0.657
 3136SOL     OW19446   1.422   6.748   0.354
 3136SOL    HW119447   1.519   6.742   0.377
 3136SOL    HW219448   1.407   6.708   0.263
 3137SOL     OW19449   4.011   4.727   2.123
 3137SOL    HW119450   4.039   4.795   2.054
 3137SOL    HW219451   4.090   4.704   2.180
 3138SOL     OW19452   2.047   9.170   1.031
 3138SOL    HW119453   2.134   9.211   1.059
 3138SOL    HW219454   2.056   9.134   0.938
 3139SOL     OW19455   8.290   1.782   2.182
 3139SOL    HW119456   8.264   1.706   2.121
 3139SOL    HW219457   8.249   1.768   2.272
 3140SOL     OW19458   3.238   0.256   2.081
 3140SOL    HW119459   3.173   0.190   2.119
 3140SOL    HW219460   3.331   0.228   2.105
 3141SOL     OW19461   9.046   9.470   1.947
 3141SOL    HW119462   8.975   9.414   1.990
 3141SOL    HW219463   9.022   9.567   1.957
 3142SOL     OW19464   3.550   1.750   1.007
 3142SOL    HW119465   3.636   1.722   1.050
 3142SOL    HW219466   3.492   1.793   1.076
 3143SOL     OW19467   4.011   4.179   0.676
 3143SOL    HW119468   4.093   4.185   0.733
 3143SOL    HW219469   3.934   4.223   0.723
 3144SOL     OW19470   9.066   2.345   0.454
 3144SOL    HW119471   9.052   2.436   0.493
 3144SOL    HW219472   8.982   2.313   0.411
 3145SOL     OW19473   2.303   3.360   1.943
 3145SOL    HW119474   2.226   3.394   1.890
 3145SOL    HW219475   2.369   3.315   1.883
 3146SOL     OW19476   0.527   7.639   1.126
 3146SOL    HW119477   0.436   7.617   1.160
 3146SOL    HW219478   0.595   7.616   1.196
 3147SOL     OW19479   8.107   0.060   1.596
 3147SOL    HW119480   8.075   0.118   1.672
 3147SOL    HW219481   8.028   0.014   1.555
 3148SOL     OW19482   0.904   4.440   0.939
 3148SOL    HW119483   0.811   4.404   0.942
 3148SOL    HW219484   0.950   4.405   0.857
 3149SOL     OW19485   3.925   2.191   0.443
 3149SOL    HW119486   3.917   2.278   0.491
 3149SOL    HW219487   3.836   2.166   0.404
 3150SOL     OW19488   2.342   8.364   1.957
 3150SOL    HW119489   2.433   8.378   1.997
 3150SOL    HW219490   2.274   8.410   2.013
 3151SOL     OW19491   0.097   5.368   1.063
 3151SOL    HW119492   0.062   5.408   1.148
 3151SOL    HW219493   0.150   5.286   1.085
 3152SOL     OW19494   0.834   5.702   0.523
 3152SOL    HW119495   0.809   5.742   0.612
 3152SOL    HW219496   0.932   5.711   0.510
 3153SOL     OW19497   2.484   3.241   1.775
 3153SOL    HW119498   2.449   3.221   1.684
 3153SOL    HW219499   2.521   3.157   1.816
 3154SOL     OW19500   9.703   2.347   2.003
 3154SOL    HW119501   9.621   2.290   1.995
 3154SOL    HW219502   9.742   2.361   1.912
 3155SOL     OW19503   1.941   5.875   1.104
 3155SOL    HW119504   1.867   5.848   1.164
 3155SOL    HW219505   1.964   5.972   1.120
 3156SOL     OW19506   1.450   2.764   0.685
 3156SOL    HW119507   1.470   2.831   0.614
 3156SOL    HW219508   1.390   2.693   0.647
 3157SOL     OW19509   7.668   9.700   0.715
 3157SOL    HW119510   7.768   9.705   0.717
 3157SOL    HW219511   7.636   9.647   0.793
 3158SOL     OW19512   2.498   1.807   0.447
 3158SOL    HW119513   2.545   1.819   0.534
 3158SOL    HW219514   2.431   1.733   0.456
 3159SOL     OW19515   2.180   5.782   2.102
 3159SOL    HW119516   2.193   5.704   2.040
 3159SOL    HW219517   2.267   5.830   2.113
 3160SOL     OW19518   2.780   6.651   0.784
 3160SOL    HW119519   2.685   6.624   0.798
 3160SOL    HW219520   2.816   6.692   0.868
 3161SOL     OW19521   2.552   5.977   1.835
 3161SOL    HW119522   2.454   5.990   1.849
 3161SOL    HW219523   2.574   5.879   1.838
 3162SOL     OW19524   3.188   0.181   1.321
 3162SOL    HW119525   3.122   0.107   1.305
 3162SOL    HW219526   3.236   0.202   1.236
 3163SOL     OW19527   2.118   8.767   0.396
 3163SOL    HW119528   2.134   8.864   0.378
 3163SOL    HW219529   2.022   8.751   0.416
 3164SOL     OW19530   8.462   9.114   1.495
 3164SOL    HW119531   8.369   9.151   1.491
 3164SOL    HW219532   8.490   9.082   1.405
 3165SOL     OW19533   0.781   5.999   2.157
 3165SOL    HW119534   0.849   6.067   2.129
 3165SOL    HW219535   0.696   6.045   2.182
 3166SOL     OW19536   8.676   1.624   1.216
 3166SOL    HW119537   8.716   1.564   1.146
 3166SOL    HW219538   8.678   1.578   1.304
 3167SOL     OW19539   1.249   5.277   2.114
 3167SOL    HW119540   1.261   5.325   2.201
 3167SOL    HW219541   1.203   5.338   2.049
 3168SOL     OW19542   3.435   4.277   0.793
 3168SOL    HW119543   3.503   4.272   0.721
 3168SOL    HW219544   3.472   4.236   0.877
 3169SOL     OW19545   0.415   3.649   0.505
 3169SOL    HW119546   0.350   3.668   0.431
 3169SOL    HW219547   0.417   3.727   0.568
 3170SOL     OW19548   0.344   4.224   2.246
 3170SOL    HW119549   0.287   4.226   2.328
 3170SOL    HW219550   0.295   4.175   2.173
 3171SOL     OW19551   9.431   0.785   0.866
 3171SOL    HW119552   9.529   0.805   0.865
 3171SOL    HW219553   9.417   0.688   0.880
 3172SOL     OW19554   9.597   5.729   1.271
 3172SOL    HW119555   9.570   5.692   1.360
 3172SOL    HW219556   9.611   5.828   1.279
 3173SOL     OW19557   9.618   4.988   1.219
 3173SOL    HW119558   9.651   4.897   1.246
 3173SOL    HW219559   9.684   5.031   1.159
 3174SOL     OW19560   2.897   2.498   0.834
 3174SOL    HW119561   2.963   2.504   0.760
 3174SOL    HW219562   2.943   2.511   0.922
 3175SOL     OW19563   4.343   9.311   0.505
 3175SOL    HW119564   4.339   9.411   0.496
 3175SOL    HW219565   4.322   9.286   0.599
 3176SOL     OW19566   9.200   5.906   1.080
 3176SOL    HW119567   9.286   5.953   1.096
 3176SOL    HW219568   9.166   5.868   1.166
 3177SOL     OW19569   9.335   9.291   1.420
 3177SOL    HW119570   9.335   9.193   1.400
 3177SOL    HW219571   9.356   9.342   1.337
 3178SOL     OW19572   0.923   9.728   0.819
 3178SOL    HW119573   0.993   9.735   0.890
 3178SOL    HW219574   0.833   9.742   0.859
 3179SOL     OW19575   0.879   1.744   1.089
 3179SOL    HW119576   0.926   1.670   1.138
 3179SOL    HW219577   0.800   1.707   1.040
 3180SOL     OW19578   9.494   3.272   2.195
 3180SOL    HW119579   9.542   3.353   2.161
 3180SOL    HW219580   9.537   3.190   2.159
 3181SOL     OW19581   9.629   1.211   1.960
 3181SOL    HW119582   9.548   1.246   1.912
 3181SOL    HW219583   9.615   1.114   1.982
 3182SOL     OW19584   2.976   4.003   1.286
 3182SOL    HW119585   2.960   3.907   1.261
 3182SOL    HW219586   2.942   4.063   1.214
 3183SOL     OW19587   0.553   7.145   2.247
 3183SOL    HW119588   0.474   7.195   2.282
 3183SOL    HW219589   0.637   7.189   2.279
 3184SOL     OW19590   8.488   2.864   0.782
 3184SOL    HW119591   8.517   2.947   0.830
 3184SOL    HW219592   8.411   2.823   0.830
 3185SOL     OW19593   0.407   0.508   1.666
 3185SOL    HW119594   0.366   0.463   1.586
 3185SOL    HW219595   0.499   0.539   1.642
 3186SOL     OW19596   0.485   7.276   1.199
 3186SOL    HW119597   0.533   7.364   1.209
 3186SOL    HW219598   0.456   7.243   1.289
 3187SOL     OW19599   0.866   7.968   0.975
 3187SOL    HW119600   0.773   7.931   0.981
 3187SOL    HW219601   0.866   8.063   1.005
 3188SOL     OW19602   3.341   1.376   0.712
 3188SOL    HW119603   3.380   1.292   0.675
 3188SOL    HW219604   3.406   1.419   0.774
 3189SOL     OW19605   3.014   2.679   1.182
 3189SOL    HW119606   2.998   2.694   1.279
 3189SOL    HW219607   3.102   2.719   1.156
 3190SOL     OW19608   9.842   5.806   1.778
 3190SOL    HW119609   9.840   5.906   1.779
 3190SOL    HW219610   9.833   5.775   1.683
 3191SOL     OW19611   9.285   9.659   0.627
 3191SOL    HW119612   9.372   9.682   0.583
 3191SOL    HW219613   9.230   9.742   0.638
 3192SOL     OW19614   9.731   9.376   0.848
 3192SOL    HW119615   9.680   9.373   0.933
 3192SOL    HW219616   9.765   9.469   0.833
 3193SOL     OW19617   3.518   8.082   1.922
 3193SOL    HW119618   3.460   8.002   1.936
 3193SOL    HW219619   3.545   8.087   1.825
 3194SOL     OW19620   4.241   1.961   2.239
 3194SOL    HW119621   4.281   2.050   2.216
 3194SOL    HW219622   4.299   1.916   2.307
 3195SOL     OW19623   3.201   8.410   0.731
 3195SOL    HW119624   3.114   8.367   0.752
 3195SOL    HW219625   3.270   8.340   0.713
 3196SOL     OW19626   1.076   6.495   1.844
 3196SOL    HW119627   1.100   6.436   1.767
 3196SOL    HW219628   1.026   6.575   1.811
 3197SOL     OW19629   9.365   5.238   1.535
 3197SOL    HW119630   9.436   5.306   1.553
 3197SOL    HW219631   9.408   5.148   1.521
 3198SOL     OW19632   2.832   7.047   1.125
 3198SOL    HW119633   2.754   7.017   1.181
 3198SOL    HW219634   2.813   7.137   1.088
 3199SOL     OW19635   7.553   0.509   1.431
 3199SOL    HW119636   7.471   0.537   1.380
 3199SOL    HW219637   7.578   0.416   1.405
 3200SOL     OW19638   2.184   4.321   1.035
 3200SOL    HW119639   2.279   4.297   1.055
 3200SOL    HW219640   2.124   4.248   1.067
 3201SOL     OW19641   0.013   2.190   0.776
 3201SOL    HW119642   9.921   2.175   0.810
 3201SOL    HW219643   0.078   2.190   0.853
 3202SOL     OW19644   1.006   6.644   1.047
 3202SOL    HW119645   1.064   6.722   1.021
 3202SOL    HW219646   1.014   6.573   0.978
 3203SOL     OW19647   2.457   7.515   1.733
 3203SOL    HW119648   2.392   7.582   1.768
 3203SOL    HW219649   2.543   7.522   1.784
 3204SOL     OW19650   8.371   9.691   0.977
 3204SOL    HW119651   8.335   9.783   0.969
 3204SOL    HW219652   8.390   9.670   1.074
 3205SOL     OW19653   7.765   0.589   0.727
 3205SOL    HW119654   7.825   0.595   0.648
 3205SOL    HW219655   7.728   0.679   0.749
 3206SOL     OW19656   0.682   8.985   0.683
 3206SOL    HW119657   0.709   9.075   0.650
 3206SOL    HW219658   0.752   8.950   0.745
 3207SOL     OW19659   9.022   4.945   2.146
 3207SOL    HW119660   8.962   4.868   2.121
 3207SOL    HW219661   9.015   5.017   2.077
 3208SOL     OW19662   9.175   9.873   1.132
 3208SOL    HW119663   9.136   9.794   1.084
 3208SOL    HW219664   9.101   9.938   1.153
 3209SOL     OW19665   2.142   0.886   1.357
 3209SOL    HW119666   2.046   0.864   1.341
 3209SOL    HW219667   2.150   0.948   1.436
 3210SOL     OW19668   2.158   4.197   1.840
 3210SOL    HW119669   2.121   4.268   1.900
 3210SOL    HW219670   2.139   4.221   1.745
 3211SOL     OW19671   0.574   5.457   1.622
 3211SOL    HW119672   0.546   5.390   1.553
 3211SOL    HW219673   0.508   5.458   1.697
 3212SOL     OW19674   1.600   9.336   0.576
 3212SOL    HW119675   1.565   9.421   0.617
 3212SOL    HW219676   1.526   9.291   0.525
 3213SOL     OW19677   9.685   4.405   0.384
 3213SOL    HW119678   9.756   4.414   0.315
 3213SOL    HW219679   9.632   4.490   0.388
 3214SOL     OW19680   2.961   1.894   1.231
 3214SOL    HW119681   3.008   1.927   1.149
 3214SOL    HW219682   2.997   1.804   1.256
 3215SOL     OW19683   1.367   8.364   0.942
 3215SOL    HW119684   1.425   8.378   0.862
 3215SOL    HW219685   1.313   8.446   0.959
 3216SOL     OW19686   2.048   2.220   1.672
 3216SOL    HW119687   2.051   2.319   1.686
 3216SOL    HW219688   1.994   2.178   1.745
 3217SOL     OW19689   0.990   5.098   0.526
 3217SOL    HW119690   1.007   5.087   0.428
 3217SOL    HW219691   0.895   5.128   0.540
 3218SOL     OW19692   8.482   7.530   0.616
 3218SOL    HW119693   8.497   7.459   0.684
 3218SOL    HW219694   8.531   7.508   0.532
 3219SOL     OW19695   0.189   4.781   0.496
 3219SOL    HW119696   0.175   4.685   0.470
 3219SOL    HW219697   0.125   4.806   0.568
 3220SOL     OW19698   2.709   6.684   1.297
 3220SOL    HW119699   2.699   6.652   1.391
 3220SOL    HW219700   2.690   6.782   1.292
 3221SOL     OW19701   4.462   4.017   1.033
 3221SOL    HW119702   4.499   3.988   1.121
 3221SOL    HW219703   4.440   3.936   0.978
 3222SOL     OW19704   4.128   2.343   2.055
 3222SOL    HW119705   4.066   2.273   2.091
 3222SOL    HW219706   4.136   2.331   1.956
 3223SOL     OW19707   1.372   7.986   0.684
 3223SOL    HW119708   1.318   7.903   0.666
 3223SOL    HW219709   1.470   7.962   0.685
 3224SOL     OW19710   2.704   1.020   0.661
 3224SOL    HW119711   2.696   1.078   0.742
 3224SOL    HW219712   2.643   0.941   0.669
 3225SOL     OW19713   8.614   2.461   1.174
 3225SOL    HW119714   8.553   2.396   1.218
 3225SOL    HW219715   8.633   2.537   1.237
 3226SOL     OW19716   3.408   9.872   1.567
 3226SOL    HW119717   3.496   9.840   1.602
 3226SOL    HW219718   3.372   9.805   1.502
 3227SOL     OW19719   3.242   5.326   0.633
 3227SOL    HW119720   3.269   5.246   0.580
 3227SOL    HW219721   3.185   5.386   0.576
 3228SOL     OW19722   2.061   8.689   0.839
 3228SOL    HW119723   2.081   8.711   0.935
 3228SOL    HW219724   2.128   8.622   0.806
 3229SOL     OW19725   0.420   2.142   1.301
 3229SOL    HW119726   0.449   2.167   1.393
 3229SOL    HW219727   0.479   2.068   1.266
 3230SOL     OW19728   1.251   4.048   1.852
 3230SOL    HW119729   1.189   4.111   1.898
 3230SOL    HW219730   1.293   3.987   1.920
 3231SOL     OW19731   2.038   2.490   0.415
 3231SOL    HW119732   1.959   2.538   0.452
 3231SOL    HW219733   2.064   2.532   0.328
 3232SOL     OW19734   8.364   9.218   0.532
 3232SOL    HW119735   8.295   9.177   0.472
 3232SOL    HW219736   8.337   9.311   0.555
 3233SOL     OW19737   8.669   1.203   1.068
 3233SOL    HW119738   8.718   1.290   1.066
 3233SOL    HW219739   8.712   1.142   1.136
 3234SOL     OW19740   8.343   9.896   1.337
 3234SOL    HW119741   8.268   9.945   1.292
 3234SOL    HW219742   8.331   9.902   1.436
 3235SOL     OW19743   8.560   8.332   1.582
 3235SOL    HW119744   8.549   8.249   1.638
 3235SOL    HW219745   8.631   8.316   1.514
 3236SOL     OW19746   2.517   4.066   0.919
 3236SOL    HW119747   2.469   3.981   0.943
 3236SOL    HW219748   2.478   4.142   0.970
 3237SOL     OW19749   8.913   7.751   1.356
 3237SOL    HW119750   8.950   7.658   1.349
 3237SOL    HW219751   8.872   7.764   1.446
 3238SOL     OW19752   2.756   0.532   1.913
 3238SOL    HW119753   2.803   0.460   1.861
 3238SOL    HW219754   2.733   0.497   2.004
 3239SOL     OW19755   3.678   4.749   1.366
 3239SOL    HW119756   3.758   4.804   1.389
 3239SOL    HW219757   3.633   4.719   1.450
 3240SOL     OW19758   9.979   4.635   0.695
 3240SOL    HW119759   9.950   4.548   0.735
 3240SOL    HW219760   0.031   4.687   0.762
 3241SOL     OW19761   0.068   5.465   2.065
 3241SOL    HW119762   0.149   5.522   2.064
 3241SOL    HW219763   9.995   5.510   2.013
 3242SOL     OW19764   1.108   4.366   0.750
 3242SOL    HW119765   1.101   4.411   0.661
 3242SOL    HW219766   1.205   4.363   0.777
 3243SOL     OW19767   9.217   6.509   1.776
 3243SOL    HW119768   9.189   6.580   1.712
 3243SOL    HW219769   9.150   6.436   1.776
 3244SOL     OW19770   1.078   1.642   1.468
 3244SOL    HW119771   1.054   1.600   1.555
 3244SOL    HW219772   1.042   1.735   1.465
 3245SOL     OW19773   4.012   0.713   2.172
 3245SOL    HW119774   4.000   0.760   2.260
 3245SOL    HW219775   3.924   0.703   2.127
 3246SOL     OW19776   2.242   9.818   0.448
 3246SOL    HW119777   2.178   9.765   0.504
 3246SOL    HW219778   2.323   9.763   0.428
 3247SOL     OW19779   1.277   6.825   1.891
 3247SOL    HW119780   1.320   6.915   1.898
 3247SOL    HW219781   1.346   6.754   1.900
 3248SOL     OW19782   4.110   0.296   1.992
 3248SOL    HW119783   4.161   0.268   1.911
 3248SOL    HW219784   4.013   0.272   1.981
 3249SOL     OW19785   3.610   9.043   1.177
 3249SOL    HW119786   3.535   9.110   1.182
 3249SOL    HW219787   3.697   9.090   1.192
 3250SOL     OW19788   1.870   0.817   1.367
 3250SOL    HW119789   1.785   0.857   1.333
 3250SOL    HW219790   1.862   0.718   1.370
 3251SOL     OW19791   2.625   4.622   1.641
 3251SOL    HW119792   2.582   4.644   1.728
 3251SOL    HW219793   2.723   4.645   1.645
 3252SOL     OW19794   2.062   0.482   2.133
 3252SOL    HW119795   2.081   0.513   2.040
 3252SOL    HW219796   1.965   0.499   2.154
 3253SOL     OW19797   3.814   4.259   2.054
 3253SOL    HW119798   3.824   4.204   1.971
 3253SOL    HW219799   3.894   4.317   2.067
 3254SOL     OW19800   2.666   3.804   1.459
 3254SOL    HW119801   2.695   3.708   1.456
 3254SOL    HW219802   2.614   3.826   1.377
 3255SOL     OW19803   1.233   1.289   2.050
 3255SOL    HW119804   1.155   1.306   2.111
 3255SOL    HW219805   1.316   1.327   2.091
 3256SOL     OW19806   0.383   1.019   1.402
 3256SOL    HW119807   0.471   1.018   1.354
 3256SOL    HW219808   0.384   1.092   1.471
 3257SOL     OW19809   8.290   7.666   2.137
 3257SOL    HW119810   8.360   7.694   2.202
 3257SOL    HW219811   8.298   7.567   2.119
 3258SOL     OW19812   1.984   3.352   1.402
 3258SOL    HW119813   2.083   3.360   1.408
 3258SOL    HW219814   1.942   3.440   1.424
 3259SOL     OW19815   1.493   4.235   2.042
 3259SOL    HW119816   1.469   4.189   2.127
 3259SOL    HW219817   1.413   4.285   2.008
 3260SOL     OW19818   2.037   8.290   1.392
 3260SOL    HW119819   1.980   8.221   1.346
 3260SOL    HW219820   2.122   8.301   1.341
 3261SOL     OW19821   2.570   2.804   0.710
 3261SOL    HW119822   2.509   2.800   0.789
 3261SOL    HW219823   2.555   2.723   0.653
 3262SOL     OW19824   2.362   4.857   0.677
 3262SOL    HW119825   2.346   4.929   0.609
 3262SOL    HW219826   2.452   4.815   0.661
 3263SOL     OW19827   0.218   2.854   0.406
 3263SOL    HW119828   0.259   2.946   0.402
 3263SOL    HW219829   0.122   2.863   0.431
 3264SOL     OW19830   9.010   3.052   1.942
 3264SOL    HW119831   9.065   3.042   2.025
 3264SOL    HW219832   8.946   2.976   1.935
 3265SOL     OW19833   2.153   3.885   1.301
 3265SOL    HW119834   2.168   3.954   1.230
 3265SOL    HW219835   2.064   3.842   1.287
 3266SOL     OW19836   0.870   4.346   1.928
 3266SOL    HW119837   0.832   4.435   1.903
 3266SOL    HW219838   0.863   4.284   1.850
 3267SOL     OW19839   4.682   3.344   2.095
 3267SOL    HW119840   4.769   3.360   2.142
 3267SOL    HW219841   4.698   3.293   2.010
 3268SOL     OW19842   4.000   3.137   0.301
 3268SOL    HW119843   3.933   3.064   0.284
 3268SOL    HW219844   4.020   3.184   0.215
 3269SOL     OW19845   4.040   0.246   1.574
 3269SOL    HW119846   4.079   0.269   1.485
 3269SOL    HW219847   3.941   0.254   1.570
 3270SOL     OW19848   0.279   1.618   1.536
 3270SOL    HW119849   0.183   1.591   1.527
 3270SOL    HW219850   0.308   1.609   1.631
 3271SOL     OW19851   9.585   4.240   1.983
 3271SOL    HW119852   9.536   4.324   1.958
 3271SOL    HW219853   9.555   4.165   1.924
 3272SOL     OW19854   3.393   1.638   1.590
 3272SOL    HW119855   3.380   1.652   1.688
 3272SOL    HW219856   3.483   1.671   1.563
 3273SOL     OW19857   1.453   9.512   2.277
 3273SOL    HW119858   1.495   9.531   2.188
 3273SOL    HW219859   1.524   9.483   2.342
 3274SOL     OW19860   9.978   4.053   1.063
 3274SOL    HW119861   0.019   3.963   1.074
 3274SOL    HW219862   9.879   4.047   1.079
 3275SOL     OW19863   2.995   2.406   1.214
 3275SOL    HW119864   3.012   2.505   1.206
 3275SOL    HW219865   2.903   2.386   1.181
 3276SOL     OW19866   1.461   4.076   2.281
 3276SOL    HW119867   1.414   4.035   2.359
 3276SOL    HW219868   1.558   4.086   2.302
 3277SOL     OW19869   0.506   7.148   1.985
 3277SOL    HW119870   0.594   7.147   1.938
 3277SOL    HW219871   0.521   7.144   2.084
 3278SOL     OW19872   1.879   4.899   1.635
 3278SOL    HW119873   1.972   4.937   1.638
 3278SOL    HW219874   1.855   4.879   1.540
 3279SOL     OW19875   0.571   2.159   1.953
 3279SOL    HW119876   0.573   2.251   1.913
 3279SOL    HW219877   0.637   2.101   1.907
 3280SOL     OW19878   4.308   2.556   1.157
 3280SOL    HW119879   4.337   2.498   1.233
 3280SOL    HW219880   4.230   2.612   1.186
 3281SOL     OW19881   9.795   6.336   0.564
 3281SOL    HW119882   9.756   6.271   0.629
 3281SOL    HW219883   9.887   6.305   0.537
 3282SOL     OW19884   8.365   0.346   0.933
 3282SOL    HW119885   8.348   0.408   1.009
 3282SOL    HW219886   8.281   0.335   0.879
 3283SOL     OW19887   4.426   3.710   2.304
 3283SOL    HW119888   4.403   3.622   2.345
 3283SOL    HW219889   4.351   3.775   2.321
 3284SOL     OW19890   2.482   4.663   2.329
 3284SOL    HW119891   2.454   4.573   2.297
 3284SOL    HW219892   2.519   4.716   2.252
 3285SOL     OW19893   2.628   6.718   1.805
 3285SOL    HW119894   2.697   6.779   1.844
 3285SOL    HW219895   2.538   6.760   1.814
 3286SOL     OW19896   0.195   2.310   1.299
 3286SOL    HW119897   0.268   2.374   1.322
 3286SOL    HW219898   0.233   2.218   1.286
 3287SOL     OW19899   3.414   8.838   1.765
 3287SOL    HW119900   3.352   8.869   1.837
 3287SOL    HW219901   3.501   8.887   1.772
 3288SOL     OW19902   9.340   5.629   1.204
 3288SOL    HW119903   9.278   5.695   1.247
 3288SOL    HW219904   9.433   5.664   1.207
 3289SOL     OW19905   0.662   1.084   0.590
 3289SOL    HW119906   0.748   1.086   0.640
 3289SOL    HW219907   0.662   1.155   0.520
 3290SOL     OW19908   3.804   0.294   1.388
 3290SOL    HW119909   3.859   0.237   1.326
 3290SOL    HW219910   3.829   0.390   1.377
 3291SOL     OW19911   2.512   8.271   0.563
 3291SOL    HW119912   2.582   8.315   0.620
 3291SOL    HW219913   2.436   8.333   0.549
 3292SOL     OW19914   1.081   1.284   0.761
 3292SOL    HW119915   1.029   1.355   0.714
 3292SOL    HW219916   1.019   1.215   0.797
 3293SOL     OW19917   4.144   9.633   2.175
 3293SOL    HW119918   4.059   9.675   2.143
 3293SOL    HW219919   4.135   9.534   2.175
 3294SOL     OW19920   8.104   9.728   1.583
 3294SOL    HW119921   8.184   9.783   1.604
 3294SOL    HW219922   8.110   9.640   1.630
 3295SOL     OW19923   4.498   2.689   1.010
 3295SOL    HW119924   4.586   2.645   1.028
 3295SOL    HW219925   4.426   2.641   1.062
 3296SOL     OW19926   0.933   9.605   2.151
 3296SOL    HW119927   0.905   9.541   2.080
 3296SOL    HW219928   0.953   9.694   2.110
 3297SOL     OW19929   8.869   7.814   0.449
 3297SOL    HW119930   8.935   7.889   0.449
 3297SOL    HW219931   8.882   7.758   0.530
 3298SOL     OW19932   9.036   5.341   0.538
 3298SOL    HW119933   9.134   5.361   0.534
 3298SOL    HW219934   8.984   5.425   0.523
 3299SOL     OW19935   9.984   8.027   1.832
 3299SOL    HW119936   0.043   7.977   1.769
 3299SOL    HW219937   9.900   7.975   1.848
 3300SOL     OW19938   0.469   3.132   1.173
 3300SOL    HW119939   0.420   3.111   1.089
 3300SOL    HW219940   0.474   3.231   1.186
 3301SOL     OW19941   2.858   5.128   1.180
 3301SOL    HW119942   2.910   5.152   1.098
 3301SOL    HW219943   2.916   5.075   1.242
 3302SOL     OW19944   2.984   7.322   0.518
 3302SOL    HW119945   2.978   7.236   0.467
 3302SOL    HW219946   2.893   7.349   0.549
 3303SOL     OW19947   0.314   8.663   0.490
 3303SOL    HW119948   0.263   8.584   0.456
 3303SOL    HW219949   0.256   8.716   0.552
 3304SOL     OW19950   4.382   9.003   1.197
 3304SOL    HW119951   4.379   9.095   1.237
 3304SOL    HW219952   4.473   8.986   1.160
 3305SOL     OW19953   1.476   5.744   1.314
 3305SOL    HW119954   1.505   5.693   1.395
 3305SOL    HW219955   1.403   5.807   1.338
 3306SOL     OW19956   4.592   3.944   0.725
 3306SOL    HW119957   4.655   3.964   0.650
 3306SOL    HW219958   4.644   3.918   0.807
 3307SOL     OW19959   3.157   3.010   1.298
 3307SOL    HW119960   3.096   3.069   1.246
 3307SOL    HW219961   3.176   2.927   1.246
 3308SOL     OW19962   8.127   8.560   0.907
 3308SOL    HW119963   8.088   8.535   0.996
 3308SOL    HW219964   8.212   8.611   0.921
 3309SOL     OW19965   2.739   5.222   0.612
 3309SOL    HW119966   2.644   5.244   0.590
 3309SOL    HW219967   2.779   5.297   0.665
 3310SOL     OW19968   4.547   3.101   2.278
 3310SOL    HW119969   4.607   3.086   2.199
 3310SOL    HW219970   4.520   3.197   2.282
 3311SOL     OW19971   4.375   8.797   0.769
 3311SOL    HW119972   4.367   8.869   0.700
 3311SOL    HW219973   4.356   8.708   0.728
 3312SOL     OW19974   8.841   9.320   2.052
 3312SOL    HW119975   8.823   9.234   2.100
 3312SOL    HW219976   8.763   9.381   2.064
 3313SOL     OW19977   9.277   8.737   2.262
 3313SOL    HW119978   9.178   8.727   2.272
 3313SOL    HW219979   9.297   8.786   2.177
 3314SOL     OW19980   2.827   8.816   0.458
 3314SOL    HW119981   2.920   8.821   0.420
 3314SOL    HW219982   2.823   8.745   0.528
 3315SOL     OW19983   0.188   2.253   2.148
 3315SOL    HW119984   0.263   2.291   2.202
 3315SOL    HW219985   0.104   2.251   2.202
 3316SOL     OW19986   1.376   7.913   2.104
 3316SOL    HW119987   1.277   7.896   2.106
 3316SOL    HW219988   1.395   8.006   2.136
 3317SOL     OW19989   9.808   5.131   1.069
 3317SOL    HW119990   9.815   5.216   1.017
 3317SOL    HW219991   9.815   5.053   1.007
 3318SOL     OW19992   2.106   5.852   0.638
 3318SOL    HW119993   2.120   5.753   0.640
 3318SOL    HW219994   2.194   5.897   0.620
 3319SOL     OW19995   9.150   3.009   2.187
 3319SOL    HW119996   9.131   3.047   2.278
 3319SOL    HW219997   9.126   2.912   2.186
 3320SOL     OW19998   2.375   6.845   1.854
 3320SOL    HW119999   2.371   6.944   1.866
 3320SOL    HW220000   2.343   6.800   1.937
 3321SOL     OW20001   3.569   0.594   2.181
 3321SOL    HW120002   3.480   0.566   2.144
 3321SOL    HW220003   3.557   0.630   2.274
 3322SOL     OW20004   1.390   9.001   0.794
 3322SOL    HW120005   1.480   9.044   0.787
 3322SOL    HW220006   1.388   8.940   0.873
 3323SOL     OW20007   8.188   1.028   1.644
 3323SOL    HW120008   8.156   0.957   1.707
 3323SOL    HW220009   8.254   0.989   1.580
 3324SOL     OW20010   2.604   3.891   1.832
 3324SOL    HW120011   2.544   3.860   1.906
 3324SOL    HW220012   2.549   3.917   1.753
 3325SOL     OW20013   1.525   2.205   0.565
 3325SOL    HW120014   1.572   2.279   0.518
 3325SOL    HW220015   1.567   2.118   0.539
 3326SOL     OW20016   8.612   8.654   1.091
 3326SOL    HW120017   8.651   8.716   1.022
 3326SOL    HW220018   8.686   8.612   1.144
 3327SOL     OW20019   9.616   3.642   1.293
 3327SOL    HW120020   9.626   3.737   1.319
 3327SOL    HW220021   9.601   3.636   1.194
 3328SOL     OW20022   0.894   0.408   1.835
 3328SOL    HW120023   0.988   0.388   1.864
 3328SOL    HW220024   0.889   0.501   1.799
 3329SOL     OW20025   8.066   8.539   2.314
 3329SOL    HW120026   8.056   8.448   2.275
 3329SOL    HW220027   8.163   8.556   2.334
 3330SOL     OW20028   3.085   1.085   1.850
 3330SOL    HW120029   3.139   1.000   1.847
 3330SOL    HW220030   2.994   1.068   1.812
 3331SOL     OW20031   3.624   3.877   1.982
 3331SOL    HW120032   3.606   3.971   2.010
 3331SOL    HW220033   3.575   3.857   1.898
 3332SOL     OW20034   3.077   4.512   1.554
 3332SOL    HW120035   3.082   4.536   1.457
 3332SOL    HW220036   3.064   4.413   1.563
 3333SOL     OW20037   0.466   2.506   0.617
 3333SOL    HW120038   0.403   2.439   0.578
 3333SOL    HW220039   0.419   2.595   0.624
 3334SOL     OW20040   9.602   2.651   2.259
 3334SOL    HW120041   9.537   2.575   2.263
 3334SOL    HW220042   9.554   2.734   2.230
 3335SOL     OW20043   2.356   5.041   0.462
 3335SOL    HW120044   2.401   4.993   0.386
 3335SOL    HW220045   2.291   5.108   0.424
 3336SOL     OW20046   2.059   9.391   1.797
 3336SOL    HW120047   2.131   9.436   1.849
 3336SOL    HW220048   2.096   9.357   1.711
 3337SOL     OW20049   9.151   2.123   1.625
 3337SOL    HW120050   9.152   2.106   1.527
 3337SOL    HW220051   9.151   2.036   1.674
 3338SOL     OW20052   1.219   3.569   1.788
 3338SOL    HW120053   1.208   3.664   1.759
 3338SOL    HW220054   1.190   3.508   1.714
 3339SOL     OW20055   3.331   3.407   1.183
 3339SOL    HW120056   3.357   3.313   1.206
 3339SOL    HW220057   3.248   3.432   1.233
 3340SOL     OW20058   9.436   5.839   0.520
 3340SOL    HW120059   9.457   5.841   0.423
 3340SOL    HW220060   9.516   5.808   0.571
 3341SOL     OW20061   9.201   6.741   0.753
 3341SOL    HW120062   9.162   6.814   0.810
 3341SOL    HW220063   9.178   6.652   0.792
 3342SOL     OW20064   1.694   4.525   0.473
 3342SOL    HW120065   1.743   4.554   0.555
 3342SOL    HW220066   1.760   4.501   0.402
 3343SOL     OW20067   9.469   3.899   2.038
 3343SOL    HW120068   9.467   3.938   2.130
 3343SOL    HW220069   9.450   3.801   2.043
 3344SOL     OW20070   0.447   4.538   0.901
 3344SOL    HW120071   0.360   4.495   0.923
 3344SOL    HW220072   0.470   4.606   0.970
 3345SOL     OW20073   1.924   7.028   1.486
 3345SOL    HW120074   1.839   7.071   1.518
 3345SOL    HW220075   1.939   7.052   1.390
 3346SOL     OW20076   9.225   1.887   2.119
 3346SOL    HW120077   9.198   1.976   2.081
 3346SOL    HW220078   9.295   1.901   2.189
 3347SOL     OW20079   0.040   1.360   0.898
 3347SOL    HW120080   9.989   1.278   0.922
 3347SOL    HW220081   0.137   1.346   0.919
 3348SOL     OW20082   9.224   2.311   1.809
 3348SOL    HW120083   9.315   2.349   1.790
 3348SOL    HW220084   9.197   2.250   1.735
 3349SOL     OW20085   2.648   2.984   0.521
 3349SOL    HW120086   2.623   2.923   0.596
 3349SOL    HW220087   2.569   2.996   0.460
 3350SOL     OW20088   9.742   2.749   0.521
 3350SOL    HW120089   9.775   2.658   0.543
 3350SOL    HW220090   9.819   2.812   0.515
 3351SOL     OW20091   0.557   8.089   1.561
 3351SOL    HW120092   0.514   8.178   1.544
 3351SOL    HW220093   0.605   8.059   1.479
 3352SOL     OW20094   9.122   8.303   1.466
 3352SOL    HW120095   9.052   8.236   1.491
 3352SOL    HW220096   9.141   8.362   1.544
 3353SOL     OW20097   8.926   8.300   2.269
 3353SOL    HW120098   8.975   8.362   2.208
 3353SOL    HW220099   8.961   8.207   2.255
 3354SOL     OW20100   3.654   1.377   0.455
 3354SOL    HW120101   3.746   1.363   0.419
 3354SOL    HW220102   3.634   1.475   0.458
 3355SOL     OW20103   3.263   7.654   0.452
 3355SOL    HW120104   3.189   7.637   0.518
 3355SOL    HW220105   3.323   7.575   0.448
 3356SOL     OW20106   4.170   1.441   0.963
 3356SOL    HW120107   4.122   1.481   0.885
 3356SOL    HW220108   4.133   1.478   1.048
 3357SOL     OW20109   0.848   7.914   2.107
 3357SOL    HW120110   0.809   7.995   2.066
 3357SOL    HW220111   0.776   7.847   2.127
 3358SOL     OW20112   0.706   8.423   0.749
 3358SOL    HW120113   0.746   8.473   0.672
 3358SOL    HW220114   0.645   8.483   0.800
 3359SOL     OW20115   1.859   3.991   1.954
 3359SOL    HW120116   1.888   3.903   1.991
 3359SOL    HW220117   1.779   3.978   1.896
 3360SOL     OW20118   7.853   9.432   2.060
 3360SOL    HW120119   7.946   9.394   2.064
 3360SOL    HW220120   7.786   9.359   2.073
 3361SOL     OW20121   3.365   1.666   1.867
 3361SOL    HW120122   3.459   1.695   1.883
 3361SOL    HW220123   3.302   1.731   1.911
 3362SOL     OW20124   2.865   4.719   2.183
 3362SOL    HW120125   2.900   4.631   2.216
 3362SOL    HW220126   2.928   4.792   2.209
 3363SOL     OW20127   5.190   3.021   2.156
 3363SOL    HW120128   5.206   3.035   2.058
 3363SOL    HW220129   5.204   3.108   2.205
 3364SOL     OW20130   1.243   8.746   1.581
 3364SOL    HW120131   1.153   8.783   1.605
 3364SOL    HW220132   1.240   8.646   1.582
 3365SOL     OW20133   8.410   8.137   1.416
 3365SOL    HW120134   8.363   8.129   1.329
 3365SOL    HW220135   8.421   8.233   1.440
 3366SOL     OW20136   3.094   3.397   1.636
 3366SOL    HW120137   3.009   3.441   1.664
 3366SOL    HW220138   3.083   3.298   1.635
 3367SOL     OW20139   0.259   1.535   0.488
 3367SOL    HW120140   0.187   1.522   0.557
 3367SOL    HW220141   0.255   1.629   0.453
 3368SOL     OW20142   9.987   0.119   1.718
 3368SOL    HW120143   9.896   0.142   1.683
 3368SOL    HW220144   0.042   0.202   1.726
 3369SOL     OW20145   1.414   4.669   1.035
 3369SOL    HW120146   1.413   4.714   1.124
 3369SOL    HW220147   1.339   4.704   0.979
 3370SOL     OW20148   1.275   3.874   1.183
 3370SOL    HW120149   1.259   3.794   1.126
 3370SOL    HW220150   1.242   3.856   1.276
 3371SOL     OW20151   1.953   1.493   1.043
 3371SOL    HW120152   2.017   1.557   1.000
 3371SOL    HW220153   1.881   1.543   1.089
 3372SOL     OW20154   0.966   1.898   1.453
 3372SOL    HW120155   0.952   1.959   1.531
 3372SOL    HW220156   0.974   1.953   1.369
 3373SOL     OW20157   2.179   7.323   2.005
 3373SOL    HW120158   2.152   7.392   1.939
 3373SOL    HW220159   2.098   7.273   2.036
 3374SOL     OW20160   9.220   4.332   1.649
 3374SOL    HW120161   9.221   4.248   1.704
 3374SOL    HW220162   9.129   4.373   1.655
 3375SOL     OW20163   8.230   0.995   2.011
 3375SOL    HW120164   8.180   0.944   1.941
 3375SOL    HW220165   8.167   1.055   2.061
 3376SOL     OW20166   0.938   3.198   2.076
 3376SOL    HW120167   0.889   3.283   2.097
 3376SOL    HW220168   0.898   3.123   2.128
 3377SOL     OW20169   2.891   4.178   1.096
 3377SOL    HW120170   2.976   4.179   1.043
 3377SOL    HW220171   2.894   4.250   1.165
 3378SOL     OW20172   9.394   2.455   2.275
 3378SOL    HW120173   9.353   2.500   2.195
 3378SOL    HW220174   9.349   2.487   2.358
 3379SOL     OW20175   3.850   9.608   1.393
 3379SOL    HW120176   3.804   9.533   1.346
 3379SOL    HW220177   3.805   9.695   1.370
 3380SOL     OW20178   1.795   6.443   0.879
 3380SOL    HW120179   1.843   6.369   0.834
 3380SOL    HW220180   1.858   6.492   0.939
 3381SOL     OW20181   9.469   0.550   1.997
 3381SOL    HW120182   9.488   0.602   2.079
 3381SOL    HW220183   9.469   0.611   1.918
 3382SOL     OW20184   2.091   8.029   0.569
 3382SOL    HW120185   2.076   7.983   0.657
 3382SOL    HW220186   2.143   7.969   0.508
 3383SOL     OW20187   2.411   6.607   1.447
 3383SOL    HW120188   2.354   6.675   1.493
 3383SOL    HW220189   2.504   6.612   1.484
 3384SOL     OW20190   3.801   4.290   0.815
 3384SOL    HW120191   3.796   4.375   0.867
 3384SOL    HW220192   3.738   4.294   0.738
 3385SOL     OW20193   2.783   9.826   0.864
 3385SOL    HW120194   2.820   9.856   0.776
 3385SOL    HW220195   2.779   9.903   0.927
 3386SOL     OW20196   3.251   8.658   0.834
 3386SOL    HW120197   3.236   8.569   0.790
 3386SOL    HW220198   3.317   8.647   0.909
 3387SOL     OW20199   2.567   2.603   1.549
 3387SOL    HW120200   2.623   2.671   1.502
 3387SOL    HW220201   2.502   2.648   1.610
 3388SOL     OW20202   0.592   5.977   0.988
 3388SOL    HW120203   0.640   6.020   0.911
 3388SOL    HW220204   0.637   5.890   1.010
 3389SOL     OW20205   8.745   2.334   2.080
 3389SOL    HW120206   8.803   2.284   2.015
 3389SOL    HW220207   8.649   2.314   2.062
 3390SOL     OW20208   0.745   1.976   1.842
 3390SOL    HW120209   0.718   1.895   1.896
 3390SOL    HW220210   0.845   1.986   1.846
 3391SOL     OW20211   8.670   8.416   0.397
 3391SOL    HW120212   8.633   8.409   0.305
 3391SOL    HW220213   8.686   8.512   0.419
 3392SOL     OW20214   8.140   1.218   1.446
 3392SOL    HW120215   8.161   1.156   1.522
 3392SOL    HW220216   8.139   1.313   1.479
 3393SOL     OW20217   1.054   6.038   0.995
 3393SOL    HW120218   1.021   5.949   1.026
 3393SOL    HW220219   0.977   6.102   0.990
 3394SOL     OW20220   0.335   5.397   1.268
 3394SOL    HW120221   0.310   5.311   1.223
 3394SOL    HW220222   0.332   5.471   1.201
 3395SOL     OW20223   0.834   8.113   0.450
 3395SOL    HW120224   0.781   8.186   0.406
 3395SOL    HW220225   0.808   8.107   0.547
 3396SOL     OW20226   9.463   0.388   0.706
 3396SOL    HW120227   9.386   0.368   0.646
 3396SOL    HW220228   9.430   0.438   0.786
 3397SOL     OW20229   2.323   6.033   0.617
 3397SOL    HW120230   2.365   5.992   0.699
 3397SOL    HW220231   2.300   6.128   0.636
 3398SOL     OW20232   3.380   9.253   0.806
 3398SOL    HW120233   3.441   9.318   0.851
 3398SOL    HW220234   3.351   9.289   0.718
 3399SOL     OW20235   1.824   3.187   2.132
 3399SOL    HW120236   1.923   3.197   2.121
 3399SOL    HW220237   1.781   3.277   2.132
 3400SOL     OW20238   8.653   2.638   1.384
 3400SOL    HW120239   8.719   2.689   1.328
 3400SOL    HW220240   8.699   2.602   1.465
 3401SOL     OW20241   0.052   9.402   0.420
 3401SOL    HW120242   9.987   9.458   0.472
 3401SOL    HW220243   0.058   9.436   0.327
 3402SOL     OW20244   2.264   0.644   1.378
 3402SOL    HW120245   2.235   0.598   1.295
 3402SOL    HW220246   2.228   0.738   1.379
 3403SOL     OW20247   2.638   1.630   1.260
 3403SOL    HW120248   2.613   1.724   1.285
 3403SOL    HW220249   2.645   1.623   1.161
 3404SOL     OW20250   1.237   7.549   1.684
 3404SOL    HW120251   1.268   7.486   1.613
 3404SOL    HW220252   1.293   7.536   1.766
 3405SOL     OW20253   0.633   7.319   0.662
 3405SOL    HW120254   0.720   7.315   0.613
 3405SOL    HW220255   0.570   7.252   0.622
 3406SOL     OW20256   2.466   0.419   1.299
 3406SOL    HW120257   2.532   0.462   1.361
 3406SOL    HW220258   2.373   0.444   1.329
 3407SOL     OW20259   2.069   3.653   1.645
 3407SOL    HW120260   2.079   3.565   1.691
 3407SOL    HW220261   2.105   3.725   1.704
 3408SOL     OW20262   1.528   5.604   1.534
 3408SOL    HW120263   1.467   5.531   1.566
 3408SOL    HW220264   1.622   5.582   1.559
 3409SOL     OW20265   1.245   1.458   1.829
 3409SOL    HW120266   1.240   1.394   1.906
 3409SOL    HW220267   1.152   1.487   1.804
 3410SOL     OW20268   8.854   1.193   2.275
 3410SOL    HW120269   8.865   1.100   2.312
 3410SOL    HW220270   8.757   1.211   2.259
 3411SOL     OW20271   0.190   2.676   1.857
 3411SOL    HW120272   0.164   2.583   1.883
 3411SOL    HW220273   0.242   2.718   1.931
 3412SOL     OW20274   0.741   7.047   0.463
 3412SOL    HW120275   0.740   6.999   0.376
 3412SOL    HW220276   0.649   7.079   0.485
 3413SOL     OW20277   0.133   4.246   1.182
 3413SOL    HW120278   0.073   4.179   1.138
 3413SOL    HW220279   0.209   4.199   1.226
 3414SOL     OW20280   2.047   7.323   1.075
 3414SOL    HW120281   2.119   7.391   1.059
 3414SOL    HW220282   2.045   7.258   1.000
 3415SOL     OW20283   7.751   8.790   1.519
 3415SOL    HW120284   7.844   8.769   1.487
 3415SOL    HW220285   7.698   8.705   1.524
 3416SOL     OW20286   8.517   0.829   1.149
 3416SOL    HW120287   8.518   0.771   1.231
 3416SOL    HW220288   8.509   0.771   1.067
 3417SOL     OW20289   2.291   1.118   0.768
 3417SOL    HW120290   2.331   1.209   0.771
 3417SOL    HW220291   2.242   1.106   0.682
 3418SOL     OW20292   3.433   1.165   1.542
 3418SOL    HW120293   3.529   1.171   1.570
 3418SOL    HW220294   3.410   1.245   1.486
 3419SOL     OW20295   4.332   2.231   2.204
 3419SOL    HW120296   4.265   2.274   2.144
 3419SOL    HW220297   4.335   2.280   2.291
 3420SOL     OW20298   8.818   2.551   1.588
 3420SOL    HW120299   8.796   2.466   1.636
 3420SOL    HW220300   8.894   2.536   1.526
 3421SOL     OW20301   8.536   1.781   2.059
 3421SOL    HW120302   8.452   1.778   2.114
 3421SOL    HW220303   8.575   1.689   2.054
 3422SOL     OW20304   8.790   2.177   0.643
 3422SOL    HW120305   8.818   2.081   0.653
 3422SOL    HW220306   8.691   2.184   0.655
 3423SOL     OW20307   2.347   1.558   0.399
 3423SOL    HW120308   2.423   1.529   0.342
 3423SOL    HW220309   2.298   1.478   0.433
 3424SOL     OW20310   9.288   1.113   0.580
 3424SOL    HW120311   9.366   1.157   0.625
 3424SOL    HW220312   9.256   1.037   0.636
 3425SOL     OW20313   1.351   8.469   1.383
 3425SOL    HW120314   1.276   8.515   1.334
 3425SOL    HW220315   1.408   8.420   1.318
 3426SOL     OW20316   9.288   4.033   1.313
 3426SOL    HW120317   9.365   4.025   1.250
 3426SOL    HW220318   9.290   3.956   1.377
 3427SOL     OW20319   1.747   7.776   0.406
 3427SOL    HW120320   1.696   7.766   0.320
 3427SOL    HW220321   1.790   7.867   0.408
 3428SOL     OW20322   3.299   1.092   1.108
 3428SOL    HW120323   3.383   1.068   1.157
 3428SOL    HW220324   3.251   1.009   1.080
 3429SOL     OW20325   1.477   2.881   0.434
 3429SOL    HW120326   1.435   2.962   0.393
 3429SOL    HW220327   1.576   2.885   0.421
 3430SOL     OW20328   2.446   2.240   1.508
 3430SOL    HW120329   2.527   2.226   1.566
 3430SOL    HW220330   2.378   2.170   1.531
 3431SOL     OW20331   8.329   9.344   0.892
 3431SOL    HW120332   8.325   9.257   0.842
 3431SOL    HW220333   8.376   9.330   0.979
 3432SOL     OW20334   3.041   0.301   1.528
 3432SOL    HW120335   2.944   0.287   1.507
 3432SOL    HW220336   3.097   0.258   1.457
 3433SOL     OW20337   3.839   5.099   0.956
 3433SOL    HW120338   3.850   5.182   1.010
 3433SOL    HW220339   3.923   5.080   0.906
 3434SOL     OW20340   3.569   2.785   1.538
 3434SOL    HW120341   3.587   2.687   1.539
 3434SOL    HW220342   3.648   2.834   1.576
 3435SOL     OW20343   8.924   3.139   1.130
 3435SOL    HW120344   8.982   3.088   1.193
 3435SOL    HW220345   8.946   3.237   1.136
 3436SOL     OW20346   0.739   4.789   0.772
 3436SOL    HW120347   0.681   4.718   0.732
 3436SOL    HW220348   0.798   4.749   0.842
 3437SOL     OW20349   2.252   2.462   0.586
 3437SOL    HW120350   2.290   2.371   0.570
 3437SOL    HW220351   2.178   2.479   0.522
 3438SOL     OW20352   8.421   9.651   1.248
 3438SOL    HW120353   8.362   9.576   1.274
 3438SOL    HW220354   8.384   9.737   1.284
 3439SOL     OW20355   0.670   0.067   0.481
 3439SOL    HW120356   0.763   0.049   0.446
 3439SOL    HW220357   0.628   9.980   0.506
 3440SOL     OW20358   8.448   7.812   1.557
 3440SOL    HW120359   8.390   7.888   1.589
 3440SOL    HW220360   8.523   7.849   1.502
 3441SOL     OW20361   0.439   3.765   1.348
 3441SOL    HW120362   0.472   3.673   1.371
 3441SOL    HW220363   0.504   3.808   1.285
 3442SOL     OW20364   9.629   7.632   1.442
 3442SOL    HW120365   9.653   7.611   1.536
 3442SOL    HW220366   9.575   7.716   1.439
 3443SOL     OW20367   1.197   8.892   1.197
 3443SOL    HW120368   1.127   8.958   1.224
 3443SOL    HW220369   1.157   8.800   1.196
 3444SOL     OW20370   3.954   2.924   0.857
 3444SOL    HW120371   4.037   2.980   0.863
 3444SOL    HW220372   3.979   2.827   0.860
 3445SOL     OW20373   8.109   0.052   0.797
 3445SOL    HW120374   8.073   0.045   0.704
 3445SOL    HW220375   8.046   0.007   0.861
 3446SOL     OW20376   3.205   0.960   0.527
 3446SOL    HW120377   3.282   1.000   0.577
 3446SOL    HW220378   3.119   0.992   0.568
 3447SOL     OW20379   9.158   2.046   0.853
 3447SOL    HW120380   9.243   1.998   0.874
 3447SOL    HW220381   9.080   1.988   0.872
 3448SOL     OW20382   3.771   8.981   2.018
 3448SOL    HW120383   3.745   9.046   2.089
 3448SOL    HW220384   3.725   9.005   1.932
 3449SOL     OW20385   9.861   0.380   1.926
 3449SOL    HW120386   9.927   0.336   1.987
 3449SOL    HW220387   9.768   0.352   1.951
 3450SOL     OW20388   7.741   1.064   0.489
 3450SOL    HW120389   7.763   1.147   0.541
 3450SOL    HW220390   7.656   1.025   0.525
 3451SOL     OW20391   3.025   2.261   0.503
 3451SOL    HW120392   2.929   2.234   0.515
 3451SOL    HW220393   3.043   2.276   0.405
 3452SOL     OW20394   8.619   0.550   1.748
 3452SOL    HW120395   8.672   0.553   1.833
 3452SOL    HW220396   8.671   0.593   1.674
 3453SOL     OW20397   9.855   4.062   0.412
 3453SOL    HW120398   9.777   4.093   0.358
 3453SOL    HW220399   9.830   4.059   0.509
 3454SOL     OW20400   0.183   6.974   1.232
 3454SOL    HW120401   0.198   7.007   1.139
 3454SOL    HW220402   0.268   6.935   1.267
 3455SOL     OW20403   1.596   2.051   2.111
 3455SOL    HW120404   1.604   2.147   2.084
 3455SOL    HW220405   1.568   1.996   2.033
 3456SOL     OW20406   1.627   4.046   0.960
 3456SOL    HW120407   1.612   3.988   1.039
 3456SOL    HW220408   1.539   4.072   0.919
 3457SOL     OW20409   9.462   4.462   1.905
 3457SOL    HW120410   9.380   4.513   1.933
 3457SOL    HW220411   9.471   4.465   1.806
 3458SOL     OW20412   8.606   9.483   0.597
 3458SOL    HW120413   8.605   9.516   0.692
 3458SOL    HW220414   8.668   9.405   0.590
 3459SOL     OW20415   9.600   0.312   1.990
 3459SOL    HW120416   9.538   0.242   1.954
 3459SOL    HW220417   9.555   0.401   1.987
 3460SOL     OW20418   3.699   3.879   0.446
 3460SOL    HW120419   3.676   3.785   0.469
 3460SOL    HW220420   3.786   3.904   0.489
 3461SOL     OW20421   2.930   8.161   1.181
 3461SOL    HW120422   3.027   8.143   1.169
 3461SOL    HW220423   2.917   8.244   1.235
 3462SOL     OW20424   0.967   6.331   2.160
 3462SOL    HW120425   1.049   6.312   2.105
 3462SOL    HW220426   0.968   6.427   2.188
 3463SOL     OW20427   9.313   1.437   0.620
 3463SOL    HW120428   9.230   1.396   0.582
 3463SOL    HW220429   9.290   1.523   0.665
 3464SOL     OW20430   0.940   8.764   0.402
 3464SOL    HW120431   0.856   8.817   0.413
 3464SOL    HW220432   0.962   8.755   0.305
 3465SOL     OW20433   0.573   8.788   1.955
 3465SOL    HW120434   0.552   8.831   1.867
 3465SOL    HW220435   0.655   8.732   1.946
 3466SOL     OW20436   9.734   5.508   1.165
 3466SOL    HW120437   9.817   5.496   1.219
 3466SOL    HW220438   9.686   5.591   1.194
 3467SOL     OW20439   2.705   2.804   1.426
 3467SOL    HW120440   2.654   2.813   1.341
 3467SOL    HW220441   2.728   2.895   1.461
 3468SOL     OW20442   4.935   3.403   2.195
 3468SOL    HW120443   4.953   3.501   2.191
 3468SOL    HW220444   5.021   3.353   2.195
 3469SOL     OW20445   3.614   4.450   1.351
 3469SOL    HW120446   3.581   4.518   1.417
 3469SOL    HW220447   3.544   4.435   1.281
 3470SOL     OW20448   8.895   7.495   0.437
 3470SOL    HW120449   8.890   7.547   0.522
 3470SOL    HW220450   8.981   7.516   0.390
 3471SOL     OW20451   9.656   0.048   0.353
 3471SOL    HW120452   9.687   0.001   0.435
 3471SOL    HW220453   9.570   0.008   0.322
 3472SOL     OW20454   2.280   6.034   1.839
 3472SOL    HW120455   2.285   6.095   1.760
 3472SOL    HW220456   2.261   5.941   1.809
 3473SOL     OW20457   9.925   0.169   1.383
 3473SOL    HW120458   9.872   0.176   1.467
 3473SOL    HW220459   0.020   0.146   1.406
 3474SOL     OW20460   7.761   0.164   0.516
 3474SOL    HW120461   7.711   0.219   0.583
 3474SOL    HW220462   7.722   0.072   0.511
 3475SOL     OW20463   8.666   9.969   0.681
 3475SOL    HW120464   8.650   9.889   0.623
 3475SOL    HW220465   8.628   9.952   0.772
 3476SOL     OW20466   1.150   7.107   1.708
 3476SOL    HW120467   1.249   7.109   1.722
 3476SOL    HW220468   1.112   7.197   1.727
 3477SOL     OW20469   2.082   8.644   1.608
 3477SOL    HW120470   2.144   8.580   1.654
 3477SOL    HW220471   2.010   8.594   1.561
 3478SOL     OW20472   8.727   1.872   2.251
 3478SOL    HW120473   8.663   1.862   2.175
 3478SOL    HW220474   8.748   1.968   2.265
 3479SOL     OW20475   2.781   3.980   0.938
 3479SOL    HW120476   2.683   3.997   0.929
 3479SOL    HW220477   2.823   4.054   0.991
 3480SOL     OW20478   2.250   9.551   1.953
 3480SOL    HW120479   2.319   9.546   1.882
 3480SOL    HW220480   2.295   9.561   2.042
 3481SOL     OW20481   0.963   7.468   1.214
 3481SOL    HW120482   1.048   7.507   1.249
 3481SOL    HW220483   0.967   7.462   1.115
 3482SOL     OW20484   4.356   8.961   0.542
 3482SOL    HW120485   4.395   9.041   0.497
 3482SOL    HW220486   4.373   8.880   0.486
 3483SOL     OW20487   0.628   3.066   1.732
 3483SOL    HW120488   0.606   3.120   1.651
 3483SOL    HW220489   0.719   3.091   1.765
 3484SOL     OW20490   8.141   8.627   0.636
 3484SOL    HW120491   8.157   8.538   0.594
 3484SOL    HW220492   8.114   8.614   0.732
 3485SOL     OW20493   0.839   1.414   1.582
 3485SOL    HW120494   0.892   1.335   1.553
 3485SOL    HW220495   0.764   1.385   1.642
 3486SOL     OW20496   3.891   1.822   1.337
 3486SOL    HW120497   3.808   1.878   1.338
 3486SOL    HW220498   3.943   1.838   1.421
 3487SOL     OW20499   1.360   0.014   2.237
 3487SOL    HW120500   1.327   9.965   2.157
 3487SOL    HW220501   1.341   9.959   2.319
 3488SOL     OW20502   1.305   3.134   0.805
 3488SOL    HW120503   1.217   3.090   0.825
 3488SOL    HW220504   1.303   3.173   0.713
 3489SOL     OW20505   3.940   5.128   1.988
 3489SOL    HW120506   3.906   5.140   2.081
 3489SOL    HW220507   4.002   5.050   1.984
 3490SOL     OW20508   1.841   0.541   1.367
 3490SOL    HW120509   1.920   0.539   1.428
 3490SOL    HW220510   1.777   0.468   1.392
 3491SOL     OW20511   9.599   9.340   1.082
 3491SOL    HW120512   9.658   9.290   1.145
 3491SOL    HW220513   9.526   9.385   1.133
 3492SOL     OW20514   2.444   1.514   1.741
 3492SOL    HW120515   2.491   1.521   1.829
 3492SOL    HW220516   2.422   1.418   1.723
 3493SOL     OW20517   2.983   1.534   1.571
 3493SOL    HW120518   3.040   1.528   1.653
 3493SOL    HW220519   2.887   1.542   1.597
 3494SOL     OW20520   8.445   1.359   0.766
 3494SOL    HW120521   8.513   1.430   0.785
 3494SOL    HW220522   8.359   1.382   0.812
 3495SOL     OW20523   2.183   1.040   1.770
 3495SOL    HW120524   2.272   0.997   1.754
 3495SOL    HW220525   2.123   1.025   1.691
 3496SOL     OW20526   2.233   3.837   1.774
 3496SOL    HW120527   2.226   3.910   1.706
 3496SOL    HW220528   2.309   3.777   1.752
 3497SOL     OW20529   0.687   8.347   0.415
 3497SOL    HW120530   0.596   8.357   0.455
 3497SOL    HW220531   0.749   8.415   0.454
 3498SOL     OW20532   8.956   3.972   1.694
 3498SOL    HW120533   8.920   4.051   1.743
 3498SOL    HW220534   8.880   3.916   1.662
 3499SOL     OW20535   8.793   9.264   0.581
 3499SOL    HW120536   8.720   9.202   0.551
 3499SOL    HW220537   8.833   9.228   0.665
 3500SOL     OW20538   0.184   5.448   0.818
 3500SOL    HW120539   0.255   5.519   0.821
 3500SOL    HW220540   0.154   5.428   0.912
 3501SOL     OW20541   1.213   6.071   0.774
 3501SOL    HW120542   1.169   6.127   0.704
 3501SOL    HW220543   1.150   6.060   0.852
 3502SOL     OW20544   0.209   4.405   0.973
 3502SOL    HW120545   0.177   4.354   0.893
 3502SOL    HW220546   0.189   4.353   1.056
 3503SOL     OW20547   4.207   2.411   0.632
 3503SOL    HW120548   4.282   2.460   0.587
 3503SOL    HW220549   4.211   2.429   0.731
 3504SOL     OW20550   1.493   1.906   1.902
 3504SOL    HW120551   1.466   1.827   1.847
 3504SOL    HW220552   1.466   1.990   1.855
 3505SOL     OW20553   0.655   9.649   2.201
 3505SOL    HW120554   0.754   9.634   2.206
 3505SOL    HW220555   0.615   9.586   2.135
 3506SOL     OW20556   1.239   9.227   0.832
 3506SOL    HW120557   1.267   9.273   0.917
 3506SOL    HW220558   1.297   9.147   0.817
 3507SOL     OW20559   0.712   1.809   1.409
 3507SOL    HW120560   0.809   1.829   1.417
 3507SOL    HW220561   0.662   1.858   1.481
 3508SOL     OW20562   8.888   0.902   2.292
 3508SOL    HW120563   8.891   0.804   2.315
 3508SOL    HW220564   8.803   0.923   2.245
 3509SOL     OW20565   8.733   6.423   0.805
 3509SOL    HW120566   8.776   6.344   0.760
 3509SOL    HW220567   8.797   6.463   0.870
 3510SOL     OW20568   0.347   1.916   0.661
 3510SOL    HW120569   0.378   2.003   0.698
 3510SOL    HW220570   0.424   1.851   0.661
 3511SOL     OW20571   9.458   2.096   1.257
 3511SOL    HW120572   9.520   2.155   1.308
 3511SOL    HW220573   9.475   2.000   1.282
 3512SOL     OW20574   2.437   0.751   2.168
 3512SOL    HW120575   2.396   0.668   2.207
 3512SOL    HW220576   2.537   0.741   2.167
 3513SOL     OW20577   4.262   3.512   0.772
 3513SOL    HW120578   4.213   3.594   0.803
 3513SOL    HW220579   4.197   3.436   0.761
 3514SOL     OW20580   0.344   2.759   0.631
 3514SOL    HW120581   0.319   2.778   0.536
 3514SOL    HW220582   0.272   2.794   0.692
 3515SOL     OW20583   0.532   0.051   1.292
 3515SOL    HW120584   0.609   0.053   1.228
 3515SOL    HW220585   0.550   0.112   1.369
 3516SOL     OW20586   9.716   9.991   1.299
 3516SOL    HW120587   9.718   9.937   1.216
 3516SOL    HW220588   9.797   0.049   1.303
 3517SOL     OW20589   1.776   9.126   0.994
 3517SOL    HW120590   1.874   9.133   1.011
 3517SOL    HW220591   1.741   9.041   1.034
 3518SOL     OW20592   7.928   8.761   1.138
 3518SOL    HW120593   7.970   8.671   1.126
 3518SOL    HW220594   7.919   8.806   1.049
 3519SOL     OW20595   8.240   1.580   2.010
 3519SOL    HW120596   8.244   1.629   1.923
 3519SOL    HW220597   8.217   1.484   1.994
 3520SOL     OW20598   9.920   4.328   1.342
 3520SOL    HW120599  10.000   4.323   1.282
 3520SOL    HW220600   9.924   4.254   1.409
 3521SOL     OW20601   0.941   2.719   2.125
 3521SOL    HW120602   0.904   2.722   2.032
 3521SOL    HW220603   0.875   2.675   2.186
 3522SOL     OW20604   3.957   0.144   1.224
 3522SOL    HW120605   4.038   0.191   1.257
 3522SOL    HW220606   3.983   0.081   1.151
 3523SOL     OW20607   3.418   9.238   1.185
 3523SOL    HW120608   3.447   9.309   1.121
 3523SOL    HW220609   3.327   9.205   1.159
 3524SOL     OW20610   8.477   8.461   0.831
 3524SOL    HW120611   8.553   8.506   0.784
 3524SOL    HW220612   8.411   8.530   0.861
 3525SOL     OW20613   4.211   0.453   0.594
 3525SOL    HW120614   4.132   0.470   0.654
 3525SOL    HW220615   4.286   0.415   0.649
 3526SOL     OW20616   1.424   7.192   0.818
 3526SOL    HW120617   1.498   7.190   0.886
 3526SOL    HW220618   1.441   7.266   0.753
 3527SOL     OW20619   2.788   2.839   1.756
 3527SOL    HW120620   2.885   2.825   1.736
 3527SOL    HW220621   2.767   2.802   1.847
 3528SOL     OW20622   3.757   3.833   0.791
 3528SOL    HW120623   3.820   3.858   0.717
 3528SOL    HW220624   3.745   3.911   0.853
 3529SOL     OW20625   9.968   8.946   0.936
 3529SOL    HW120626   9.945   8.876   1.003
 3529SOL    HW220627   9.889   9.004   0.919
 3530SOL     OW20628   4.269   3.206   1.499
 3530SOL    HW120629   4.217   3.231   1.581
 3530SOL    HW220630   4.294   3.109   1.503
 3531SOL     OW20631   9.107   5.042   0.635
 3531SOL    HW120632   9.108   5.131   0.588
 3531SOL    HW220633   9.013   5.018   0.659
 3532SOL     OW20634   9.246   8.196   0.459
 3532SOL    HW120635   9.260   8.289   0.495
 3532SOL    HW220636   9.327   8.141   0.478
 3533SOL     OW20637   1.192   5.037   0.934
 3533SOL    HW120638   1.103   5.019   0.975
 3533SOL    HW220639   1.182   5.106   0.862
 3534SOL     OW20640   9.231   0.957   0.808
 3534SOL    HW120641   9.256   1.045   0.849
 3534SOL    HW220642   9.303   0.890   0.827
 3535SOL     OW20643   0.477   6.333   0.682
 3535SOL    HW120644   0.538   6.354   0.758
 3535SOL    HW220645   0.514   6.372   0.598
 3536SOL     OW20646   1.024   1.995   1.855
 3536SOL    HW120647   1.072   1.915   1.819
 3536SOL    HW220648   1.083   2.043   1.920
 3537SOL     OW20649   1.582   4.177   1.448
 3537SOL    HW120650   1.528   4.218   1.375
 3537SOL    HW220651   1.523   4.160   1.528
 3538SOL     OW20652   3.299   3.586   0.774
 3538SOL    HW120653   3.331   3.653   0.708
 3538SOL    HW220654   3.294   3.496   0.731
 3539SOL     OW20655   8.817   1.859   1.215
 3539SOL    HW120656   8.787   1.915   1.138
 3539SOL    HW220657   8.766   1.773   1.216
 3540SOL     OW20658   1.949   9.497   0.998
 3540SOL    HW120659   1.869   9.447   1.032
 3540SOL    HW220660   2.018   9.501   1.070
 3541SOL     OW20661   0.184   9.474   1.784
 3541SOL    HW120662   0.208   9.396   1.726
 3541SOL    HW220663   0.087   9.495   1.774
 3542SOL     OW20664   4.721   3.230   1.843
 3542SOL    HW120665   4.663   3.149   1.833
 3542SOL    HW220666   4.701   3.295   1.769
 3543SOL     OW20667   3.163   8.768   2.133
 3543SOL    HW120668   3.100   8.696   2.102
 3543SOL    HW220669   3.255   8.730   2.142
 3544SOL     OW20670   2.848   3.014   2.082
 3544SOL    HW120671   2.936   2.997   2.037
 3544SOL    HW220672   2.846   3.108   2.116
 3545SOL     OW20673   0.395   8.757   2.167
 3545SOL    HW120674   0.373   8.849   2.200
 3545SOL    HW220675   0.455   8.764   2.087
 3546SOL     OW20676   9.005   6.336   1.766
 3546SOL    HW120677   8.979   6.293   1.853
 3546SOL    HW220678   8.932   6.398   1.737
 3547SOL     OW20679   1.302   1.928   1.110
 3547SOL    HW120680   1.346   2.003   1.061
 3547SOL    HW220681   1.202   1.935   1.100
 3548SOL     OW20682   9.739   6.661   1.500
 3548SOL    HW120683   9.766   6.752   1.469
 3548SOL    HW220684   9.657   6.669   1.557
 3549SOL     OW20685   2.902   4.747   0.456
 3549SOL    HW120686   2.828   4.681   0.446
 3549SOL    HW220687   2.870   4.826   0.507
 3550SOL     OW20688   9.007   7.497   1.323
 3550SOL    HW120689   9.026   7.430   1.251
 3550SOL    HW220690   9.028   7.457   1.412
 3551SOL     OW20691   3.320   9.862   0.980
 3551SOL    HW120692   3.377   9.886   0.901
 3551SOL    HW220693   3.235   9.914   0.978
 3552SOL     OW20694   3.254   3.615   1.737
 3552SOL    HW120695   3.196   3.539   1.706
 3552SOL    HW220696   3.343   3.609   1.692
 3553SOL     OW20697   9.682   1.328   1.533
 3553SOL    HW120698   9.593   1.284   1.545
 3553SOL    HW220699   9.740   1.307   1.612
 3554SOL     OW20700   0.268   0.675   1.851
 3554SOL    HW120701   0.174   0.644   1.865
 3554SOL    HW220702   0.311   0.620   1.780
 3555SOL     OW20703   2.303   0.839   0.458
 3555SOL    HW120704   2.271   0.746   0.441
 3555SOL    HW220705   2.370   0.865   0.389
 3556SOL     OW20706   2.756   2.119   2.134
 3556SOL    HW120707   2.699   2.199   2.150
 3556SOL    HW220708   2.831   2.143   2.073
 3557SOL     OW20709   4.322   9.805   0.355
 3557SOL    HW120710   4.313   9.803   0.255
 3557SOL    HW220711   4.332   9.900   0.384
 3558SOL     OW20712   8.751   4.378   1.107
 3558SOL    HW120713   8.769   4.476   1.122
 3558SOL    HW220714   8.667   4.367   1.054
 3559SOL     OW20715   1.708   3.127   0.589
 3559SOL    HW120716   1.652   3.159   0.665
 3559SOL    HW220717   1.803   3.118   0.620
 3560SOL     OW20718   2.063   7.062   0.500
 3560SOL    HW120719   2.098   7.047   0.408
 3560SOL    HW220720   1.968   7.030   0.505
 3561SOL     OW20721   0.282   1.715   2.246
 3561SOL    HW120722   0.208   1.648   2.257
 3561SOL    HW220723   0.271   1.789   2.313
 3562SOL     OW20724   4.007   4.460   2.036
 3562SOL    HW120725   3.991   4.551   2.074
 3562SOL    HW220726   3.977   4.458   1.941
 3563SOL     OW20727   9.271   7.646   0.723
 3563SOL    HW120728   9.282   7.565   0.665
 3563SOL    HW220729   9.330   7.638   0.803
 3564SOL     OW20730   3.725   1.402   1.188
 3564SOL    HW120731   3.629   1.381   1.169
 3564SOL    HW220732   3.783   1.352   1.123
 3565SOL     OW20733   1.130   4.780   1.365
 3565SOL    HW120734   1.075   4.698   1.350
 3565SOL    HW220735   1.224   4.762   1.336
 3566SOL     OW20736   9.347   9.529   0.862
 3566SOL    HW120737   9.320   9.577   0.778
 3566SOL    HW220738   9.379   9.437   0.839
 3567SOL     OW20739   2.131   1.676   0.951
 3567SOL    HW120740   2.218   1.686   0.998
 3567SOL    HW220741   2.077   1.760   0.963
 3568SOL     OW20742   0.973   8.275   2.271
 3568SOL    HW120743   1.044   8.345   2.260
 3568SOL    HW220744   1.016   8.188   2.293
 3569SOL     OW20745   8.752   7.671   0.883
 3569SOL    HW120746   8.659   7.657   0.916
 3569SOL    HW220747   8.817   7.657   0.958
 3570SOL     OW20748   8.437   0.843   2.111
 3570SOL    HW120749   8.359   0.896   2.078
 3570SOL    HW220750   8.419   0.746   2.097
 3571SOL     OW20751   3.439   1.399   1.922
 3571SOL    HW120752   3.386   1.345   1.857
 3571SOL    HW220753   3.423   1.496   1.906
 3572SOL     OW20754   9.872   0.963   2.125
 3572SOL    HW120755   9.928   0.881   2.124
 3572SOL    HW220756   9.919   1.035   2.176
 3573SOL     OW20757   9.690   2.555   0.840
 3573SOL    HW120758   9.714   2.539   0.744
 3573SOL    HW220759   9.774   2.565   0.893
 3574SOL     OW20760   0.050   0.475   2.264
 3574SOL    HW120761   0.055   0.400   2.197
 3574SOL    HW220762   9.955   0.487   2.292
 3575SOL     OW20763   9.902   2.062   1.810
 3575SOL    HW120764   9.942   2.153   1.799
 3575SOL    HW220765   9.886   2.021   1.720
 3576SOL     OW20766   1.843   8.348   0.679
 3576SOL    HW120767   1.827   8.425   0.742
 3576SOL    HW220768   1.940   8.346   0.653
 3577SOL     OW20769   3.297   9.548   2.081
 3577SOL    HW120770   3.346   9.610   2.142
 3577SOL    HW220771   3.224   9.598   2.035
 3578SOL     OW20772   2.912   9.419   1.352
 3578SOL    HW120773   2.854   9.405   1.272
 3578SOL    HW220774   2.874   9.370   1.431
 3579SOL     OW20775   3.492   5.034   1.463
 3579SOL    HW120776   3.466   5.130   1.455
 3579SOL    HW220777   3.526   5.002   1.375
 3580SOL     OW20778   7.492   9.343   0.650
 3580SOL    HW120779   7.491   9.381   0.742
 3580SOL    HW220780   7.517   9.414   0.585
 3581SOL     OW20781   0.268   2.712   1.309
 3581SOL    HW120782   0.272   2.700   1.210
 3581SOL    HW220783   0.316   2.796   1.334
 3582SOL     OW20784   0.771   0.262   0.647
 3582SOL    HW120785   0.728   0.187   0.596
 3582SOL    HW220786   0.778   0.342   0.588
 3583SOL     OW20787   7.898   0.373   0.397
 3583SOL    HW120788   7.835   0.302   0.427
 3583SOL    HW220789   7.992   0.337   0.396
 3584SOL     OW20790   0.045   9.862   1.768
 3584SOL    HW120791   0.024   9.958   1.752
 3584SOL    HW220792   9.963   9.815   1.799
 3585SOL     OW20793   9.621   5.247   0.802
 3585SOL    HW120794   9.721   5.246   0.804
 3585SOL    HW220795   9.589   5.194   0.724
 3586SOL     OW20796   0.852   2.977   2.206
 3586SOL    HW120797   0.764   2.953   2.247
 3586SOL    HW220798   0.900   2.894   2.177
 3587SOL     OW20799   2.462   8.425   1.523
 3587SOL    HW120800   2.520   8.348   1.497
 3587SOL    HW220801   2.519   8.502   1.551
 3588SOL     OW20802   1.574   3.200   0.818
 3588SOL    HW120803   1.484   3.159   0.819
 3588SOL    HW220804   1.627   3.166   0.896
 3589SOL     OW20805   8.292   8.872   1.165
 3589SOL    HW120806   8.235   8.952   1.147
 3589SOL    HW220807   8.272   8.836   1.256
 3590SOL     OW20808   2.084   2.995   1.153
 3590SOL    HW120809   2.171   3.040   1.131
 3590SOL    HW220810   2.102   2.915   1.210
 3591SOL     OW20811   1.857   8.019   0.423
 3591SOL    HW120812   1.943   8.030   0.473
 3591SOL    HW220813   1.800   8.100   0.437
 3592SOL     OW20814   1.467   9.013   1.982
 3592SOL    HW120815   1.563   9.001   1.954
 3592SOL    HW220816   1.407   8.988   1.906
 3593SOL     OW20817   3.560   0.093   1.098
 3593SOL    HW120818   3.528   0.020   1.158
 3593SOL    HW220819   3.637   0.060   1.043
 3594SOL     OW20820   0.125   3.201   2.041
 3594SOL    HW120821   0.124   3.105   2.069
 3594SOL    HW220822   0.219   3.231   2.026
 3595SOL     OW20823   4.786   3.876   0.916
 3595SOL    HW120824   4.860   3.832   0.866
 3595SOL    HW220825   4.819   3.960   0.958
 3596SOL     OW20826   8.896   0.897   0.403
 3596SOL    HW120827   8.804   0.863   0.387
 3596SOL    HW220828   8.891   0.988   0.444
 3597SOL     OW20829   4.122   0.943   2.063
 3597SOL    HW120830   4.050   0.973   2.001
 3597SOL    HW220831   4.098   0.854   2.102
 3598SOL     OW20832   2.173   3.915   2.026
 3598SOL    HW120833   2.191   3.882   1.933
 3598SOL    HW220834   2.134   4.007   2.021
 3599SOL     OW20835   0.339   6.992   1.566
 3599SOL    HW120836   0.239   6.989   1.566
 3599SOL    HW220837   0.374   6.941   1.645
 3600SOL     OW20838   1.954   3.066   0.683
 3600SOL    HW120839   1.956   3.021   0.773
 3600SOL    HW220840   1.998   3.006   0.616
 3601SOL     OW20841   1.527   6.895   1.554
 3601SOL    HW120842   1.584   6.977   1.552
 3601SOL    HW220843   1.583   6.815   1.534
 3602SOL     OW20844   2.629   0.211   1.255
 3602SOL    HW120845   2.702   0.235   1.190
 3602SOL    HW220846   2.565   0.287   1.264
 3603SOL     OW20847   9.214   1.453   2.104
 3603SOL    HW120848   9.146   1.454   2.178
 3603SOL    HW220849   9.214   1.363   2.060
 3604SOL     OW20850   8.307   1.399   0.522
 3604SOL    HW120851   8.356   1.406   0.609
 3604SOL    HW220852   8.330   1.312   0.477
 3605SOL     OW20853   8.746   2.050   1.028
 3605SOL    HW120854   8.782   2.126   1.081
 3605SOL    HW220855   8.658   2.077   0.988
 3606SOL     OW20856   0.270   0.640   2.251
 3606SOL    HW120857   0.192   0.581   2.272
 3606SOL    HW220858   0.348   0.583   2.222
 3607SOL     OW20859   3.092   4.982   0.622
 3607SOL    HW120860   3.124   4.906   0.565
 3607SOL    HW220861   2.992   4.981   0.625
 3608SOL     OW20862   8.160   0.038   1.191
 3608SOL    HW120863   8.124   0.121   1.234
 3608SOL    HW220864   8.091  10.000   1.129
 3609SOL     OW20865   0.935   8.584   1.680
 3609SOL    HW120866   1.018   8.533   1.655
 3609SOL    HW220867   0.950   8.682   1.665
 3610SOL     OW20868   8.909   3.247   1.529
 3610SOL    HW120869   8.893   3.152   1.501
 3610SOL    HW220870   8.829   3.302   1.505
 3611SOL     OW20871   4.660   3.251   0.918
 3611SOL    HW120872   4.704   3.335   0.886
 3611SOL    HW220873   4.705   3.172   0.877
 3612SOL     OW20874   2.921   6.286   2.188
 3612SOL    HW120875   2.899   6.258   2.094
 3612SOL    HW220876   2.981   6.219   2.230
 3613SOL     OW20877   1.963   6.003   0.459
 3613SOL    HW120878   2.013   5.945   0.523
 3613SOL    HW220879   1.909   5.945   0.397
 3614SOL     OW20880   9.081   1.875   1.299
 3614SOL    HW120881   9.082   1.843   1.393
 3614SOL    HW220882   8.989   1.866   1.262
 3615SOL     OW20883   8.709   8.808   0.888
 3615SOL    HW120884   8.694   8.736   0.820
 3615SOL    HW220885   8.803   8.841   0.882
 3616SOL     OW20886   9.147   5.882   1.686
 3616SOL    HW120887   9.138   5.942   1.765
 3616SOL    HW220888   9.117   5.931   1.604
 3617SOL     OW20889   2.588   7.900   1.297
 3617SOL    HW120890   2.550   7.854   1.377
 3617SOL    HW220891   2.519   7.902   1.224
 3618SOL     OW20892   4.620   2.934   0.463
 3618SOL    HW120893   4.550   2.971   0.524
 3618SOL    HW220894   4.687   2.883   0.517
 3619SOL     OW20895   9.932   0.289   0.783
 3619SOL    HW120896   9.840   0.327   0.793
 3619SOL    HW220897   9.988   0.316   0.861
 3620SOL     OW20898   4.866   3.548   1.587
 3620SOL    HW120899   4.833   3.626   1.534
 3620SOL    HW220900   4.910   3.581   1.671
 3621SOL     OW20901   1.724   1.381   2.260
 3621SOL    HW120902   1.726   1.415   2.354
 3621SOL    HW220903   1.801   1.319   2.246
 3622SOL     OW20904   2.149   9.560   1.180
 3622SOL    HW120905   2.199   9.641   1.147
 3622SOL    HW220906   2.110   9.579   1.269
 3623SOL     OW20907   8.362   0.943   1.443
 3623SOL    HW120908   8.446   0.998   1.450
 3623SOL    HW220909   8.314   0.966   1.358
 3624SOL     OW20910   8.764   7.278   0.763
 3624SOL    HW120911   8.808   7.261   0.675
 3624SOL    HW220912   8.830   7.318   0.826
 3625SOL     OW20913   8.623   7.768   0.342
 3625SOL    HW120914   8.716   7.790   0.371
 3625SOL    HW220915   8.608   7.670   0.351
 3626SOL     OW20916   9.794   3.246   0.998
 3626SOL    HW120917   9.725   3.232   1.069
 3626SOL    HW220918   9.749   3.260   0.910
 3627SOL     OW20919   9.512   8.488   1.934
 3627SOL    HW120920   9.519   8.571   1.878
 3627SOL    HW220921   9.492   8.513   2.028
 3628SOL     OW20922   3.263   0.875   1.842
 3628SOL    HW120923   3.332   0.892   1.912
 3628SOL    HW220924   3.305   0.885   1.751
 3629SOL     OW20925   1.162   9.759   0.959
 3629SOL    HW120926   1.141   9.856   0.974
 3629SOL    HW220927   1.231   9.729   1.024
 3630SOL     OW20928   1.141   0.383   0.551
 3630SOL    HW120929   1.153   0.319   0.627
 3630SOL    HW220930   1.228   0.396   0.503
 3631SOL     OW20931   0.836   7.609   1.827
 3631SOL    HW120932   0.855   7.535   1.892
 3631SOL    HW220933   0.918   7.665   1.815
 3632SOL     OW20934   0.416   5.887   1.415
 3632SOL    HW120935   0.459   5.869   1.504
 3632SOL    HW220936   0.467   5.958   1.367
 3633SOL     OW20937   1.828   0.506   1.868
 3633SOL    HW120938   1.801   0.507   1.965
 3633SOL    HW220939   1.926   0.521   1.861
 3634SOL     OW20940   9.034   0.140   1.929
 3634SOL    HW120941   9.072   0.052   1.901
 3634SOL    HW220942   9.085   0.214   1.885
 3635SOL     OW20943   0.413   0.971   0.588
 3635SOL    HW120944   0.352   1.036   0.633
 3635SOL    HW220945   0.507   1.006   0.589
 3636SOL     OW20946   1.106   2.341   0.833
 3636SOL    HW120947   1.070   2.248   0.824
 3636SOL    HW220948   1.110   2.366   0.930
 3637SOL     OW20949   0.805   3.398   1.374
 3637SOL    HW120950   0.851   3.344   1.304
 3637SOL    HW220951   0.844   3.377   1.464
 3638SOL     OW20952   1.251   0.313   1.373
 3638SOL    HW120953   1.204   0.360   1.299
 3638SOL    HW220954   1.297   0.381   1.432
 3639SOL     OW20955   3.988   9.224   1.025
 3639SOL    HW120956   4.049   9.146   1.024
 3639SOL    HW220957   3.923   9.215   1.101
 3640SOL     OW20958   8.722   0.984   1.243
 3640SOL    HW120959   8.657   0.923   1.199
 3640SOL    HW220960   8.687   1.012   1.333
 3641SOL     OW20961   0.882   9.812   1.776
 3641SOL    HW120962   0.951   9.860   1.721
 3641SOL    HW220963   0.899   9.713   1.772
 3642SOL     OW20964   1.529   7.900   1.156
 3642SOL    HW120965   1.494   7.963   1.225
 3642SOL    HW220966   1.593   7.836   1.199
 3643SOL     OW20967   3.874   1.252   1.016
 3643SOL    HW120968   3.907   1.266   0.923
 3643SOL    HW220969   3.861   1.154   1.032
 3644SOL     OW20970   1.936   4.679   1.793
 3644SOL    HW120971   1.867   4.608   1.809
 3644SOL    HW220972   1.896   4.753   1.739
 3645SOL     OW20973   1.699   7.527   0.526
 3645SOL    HW120974   1.711   7.621   0.495
 3645SOL    HW220975   1.740   7.464   0.460
 3646SOL     OW20976   8.568   1.120   0.825
 3646SOL    HW120977   8.525   1.204   0.791
 3646SOL    HW220978   8.611   1.139   0.913
 3647SOL     OW20979   2.640   8.620   1.630
 3647SOL    HW120980   2.671   8.569   1.710
 3647SOL    HW220981   2.715   8.626   1.564
 3648SOL     OW20982   2.361   1.277   1.317
 3648SOL    HW120983   2.287   1.287   1.251
 3648SOL    HW220984   2.382   1.366   1.358
 3649SOL     OW20985   0.120   2.934   2.121
 3649SOL    HW120986   0.054   2.881   2.175
 3649SOL    HW220987   0.198   2.876   2.099
 3650SOL     OW20988   3.300   1.306   2.141
 3650SOL    HW120989   3.205   1.311   2.109
 3650SOL    HW220990   3.361   1.345   2.071
 3651SOL     OW20991   0.675   1.593   0.972
 3651SOL    HW120992   0.711   1.521   1.032
 3651SOL    HW220993   0.679   1.562   0.877
 3652SOL     OW20994   1.597   1.562   1.354
 3652SOL    HW120995   1.499   1.585   1.348
 3652SOL    HW220996   1.625   1.559   1.449
 3653SOL     OW20997   8.127   0.327   0.797
 3653SOL    HW120998   8.045   0.363   0.841
 3653SOL    HW220999   8.122   0.227   0.794
 3654SOL     OW21000   2.732   0.356   0.487
 3654SOL    HW121001   2.726   0.291   0.563
 3654SOL    HW221002   2.737   0.305   0.401
 3655SOL     OW21003   0.507   5.409   0.696
 3655SOL    HW121004   0.531   5.323   0.740
 3655SOL    HW221005   0.435   5.393   0.628
 3656SOL     OW21006   8.763   9.242   1.011
 3656SOL    HW121007   8.814   9.229   0.926
 3656SOL    HW221008   8.753   9.339   1.030
 3657SOL     OW21009   8.019   1.207   0.926
 3657SOL    HW121010   8.082   1.280   0.900
 3657SOL    HW221011   8.070   1.122   0.939
 3658SOL     OW21012   2.809   3.316   1.270
 3658SOL    HW121013   2.739   3.261   1.316
 3658SOL    HW221014   2.826   3.400   1.322
 3659SOL     OW21015   2.646   9.527   1.458
 3659SOL    HW121016   2.698   9.462   1.514
 3659SOL    HW221017   2.676   9.620   1.477
 3660SOL     OW21018   1.407   5.010   1.111
 3660SOL    HW121019   1.334   5.016   1.043
 3660SOL    HW221020   1.436   5.102   1.138
 3661SOL     OW21021   0.872   8.410   2.053
 3661SOL    HW121022   0.881   8.359   2.138
 3661SOL    HW221023   0.863   8.345   1.977
 3662SOL     OW21024   8.499   2.131   0.942
 3662SOL    HW121025   8.440   2.079   1.004
 3662SOL    HW221026   8.480   2.229   0.953
 3663SOL     OW21027   9.561   8.779   1.873
 3663SOL    HW121028   9.584   8.794   1.777
 3663SOL    HW221029   9.643   8.792   1.929
 3664SOL     OW21030   7.621   0.256   1.350
 3664SOL    HW121031   7.671   0.230   1.267
 3664SOL    HW221032   7.656   0.202   1.427
 3665SOL     OW21033   4.441   2.392   1.822
 3665SOL    HW121034   4.501   2.464   1.786
 3665SOL    HW221035   4.484   2.348   1.900
 3666SOL     OW21036   9.393   5.233   0.961
 3666SOL    HW121037   9.478   5.235   0.907
 3666SOL    HW221038   9.368   5.139   0.981
 3667SOL     OW21039   8.096   9.299   2.118
 3667SOL    HW121040   8.062   9.207   2.098
 3667SOL    HW221041   8.108   9.308   2.217
 3668SOL     OW21042   1.237   9.861   2.043
 3668SOL    HW121043   1.138   9.871   2.028
 3668SOL    HW221044   1.253   9.785   2.106
 3669SOL     OW21045   2.256   5.780   1.763
 3669SOL    HW121046   2.223   5.700   1.813
 3669SOL    HW221047   2.271   5.755   1.667
 3670SOL     OW21048   9.556   3.401   1.400
 3670SOL    HW121049   9.579   3.493   1.368
 3670SOL    HW221050   9.463   3.401   1.438
 3671SOL     OW21051   2.886   9.934   0.632
 3671SOL    HW121052   2.831   9.919   0.550
 3671SOL    HW221053   2.894   0.033   0.648
 3672SOL     OW21054   0.750   0.818   1.945
 3672SOL    HW121055   0.821   0.812   2.015
 3672SOL    HW221056   0.663   0.789   1.984
 3673SOL     OW21057   2.969   8.500   1.044
 3673SOL    HW121058   2.930   8.590   1.026
 3673SOL    HW221059   2.905   8.429   1.013
 3674SOL     OW21060   0.176   9.319   0.815
 3674SOL    HW121061   0.259   9.285   0.860
 3674SOL    HW221062   0.147   9.404   0.859
 3675SOL     OW21063   8.650   1.546   0.790
 3675SOL    HW121064   8.716   1.536   0.716
 3675SOL    HW221065   8.617   1.641   0.792
 3676SOL     OW21066   4.283   8.872   1.421
 3676SOL    HW121067   4.214   8.802   1.406
 3676SOL    HW221068   4.315   8.908   1.334
 3677SOL     OW21069   8.599   0.232   0.871
 3677SOL    HW121070   8.610   0.241   0.772
 3677SOL    HW221071   8.512   0.275   0.898
 3678SOL     OW21072   8.057   7.897   1.429
 3678SOL    HW121073   8.099   7.806   1.421
 3678SOL    HW221074   8.039   7.933   1.337
 3679SOL     OW21075   2.009   8.113   0.966
 3679SOL    HW121076   1.918   8.142   0.935
 3679SOL    HW221077   2.060   8.192   1.000
 3680SOL     OW21078   1.690   9.804   1.423
 3680SOL    HW121079   1.766   9.806   1.358
 3680SOL    HW221080   1.620   9.740   1.392
 3681SOL     OW21081   3.920   1.315   0.398
 3681SOL    HW121082   3.875   1.225   0.400
 3681SOL    HW221083   3.993   1.317   0.467
 3682SOL     OW21084   8.673   0.972   2.146
 3682SOL    HW121085   8.648   1.069   2.150
 3682SOL    HW221086   8.590   0.917   2.136
 3683SOL     OW21087   8.966   9.731   1.964
 3683SOL    HW121088   8.955   9.777   2.052
 3683SOL    HW221089   8.887   9.753   1.906
 3684SOL     OW21090   2.830   8.632   0.671
 3684SOL    HW121091   2.747   8.657   0.721
 3684SOL    HW221092   2.908   8.680   0.711
 3685SOL     OW21093   3.537   3.250   0.398
 3685SOL    HW121094   3.591   3.306   0.461
 3685SOL    HW221095   3.569   3.156   0.402
 3686SOL     OW21096   2.727   2.023   1.252
 3686SOL    HW121097   2.659   1.964   1.296
 3686SOL    HW221098   2.816   1.978   1.254
 3687SOL     OW21099   3.763   2.377   1.919
 3687SOL    HW121100   3.675   2.389   1.873
 3687SOL    HW221101   3.796   2.284   1.901
 3688SOL     OW21102   0.279   4.026   0.863
 3688SOL    HW121103   0.211   4.096   0.839
 3688SOL    HW221104   0.234   3.951   0.910
 3689SOL     OW21105   2.526   7.040   2.125
 3689SOL    HW121106   2.620   7.072   2.122
 3689SOL    HW221107   2.519   6.963   2.189
 3690SOL     OW21108   9.144   6.067   1.905
 3690SOL    HW121109   9.075   6.123   1.951
 3690SOL    HW221110   9.162   5.985   1.959
 3691SOL     OW21111   1.040   8.188   0.781
 3691SOL    HW121112   1.077   8.227   0.697
 3691SOL    HW221113   1.114   8.147   0.834
 3692SOL     OW21114   2.093   3.874   0.975
 3692SOL    HW121115   2.021   3.805   0.979
 3692SOL    HW221116   2.127   3.882   0.881
 3693SOL     OW21117   0.611   4.148   2.214
 3693SOL    HW121118   0.517   4.168   2.243
 3693SOL    HW221119   0.666   4.232   2.218
 3694SOL     OW21120   0.350   1.218   1.582
 3694SOL    HW121121   0.254   1.245   1.588
 3694SOL    HW221122   0.408   1.290   1.620
 3695SOL     OW21123   0.204   0.129   1.438
 3695SOL    HW121124   0.234   0.083   1.355
 3695SOL    HW221125   0.228   0.225   1.434
 3696SOL     OW21126   1.011   8.846   1.676
 3696SOL    HW121127   1.023   8.840   1.775
 3696SOL    HW221128   0.999   8.941   1.649
 3697SOL     OW21129   9.685   2.782   1.618
 3697SOL    HW121130   9.707   2.766   1.714
 3697SOL    HW221131   9.733   2.864   1.586
 3698SOL     OW21132   8.627   7.487   0.380
 3698SOL    HW121133   8.726   7.490   0.396
 3698SOL    HW221134   8.608   7.432   0.299
 3699SOL     OW21135   8.966   9.186   1.186
 3699SOL    HW121136   8.934   9.187   1.281
 3699SOL    HW221137   8.888   9.202   1.125
 3700SOL     OW21138   1.881   7.698   0.906
 3700SOL    HW121139   1.884   7.618   0.845
 3700SOL    HW221140   1.785   7.719   0.927
 3701SOL     OW21141   1.474   6.926   0.739
 3701SOL    HW121142   1.440   6.932   0.645
 3701SOL    HW221143   1.467   7.016   0.783
 3702SOL     OW21144   0.290   0.198   2.007
 3702SOL    HW121145   0.336   0.114   1.982
 3702SOL    HW221146   0.338   0.276   1.968
 3703SOL     OW21147   0.217   8.081   0.447
 3703SOL    HW121148   0.274   8.042   0.375
 3703SOL    HW221149   0.244   8.044   0.536
 3704SOL     OW21150   0.471   3.428   0.654
 3704SOL    HW121151   0.447   3.510   0.603
 3704SOL    HW221152   0.538   3.375   0.601
 3705SOL     OW21153   0.100   9.580   0.906
 3705SOL    HW121154   0.108   9.609   0.811
 3705SOL    HW221155   0.033   9.637   0.953
 3706SOL     OW21156   7.693   9.212   2.102
 3706SOL    HW121157   7.715   9.131   2.156
 3706SOL    HW221158   7.614   9.258   2.143
 3707SOL     OW21159   8.919   9.706   0.542
 3707SOL    HW121160   8.940   9.709   0.640
 3707SOL    HW221161   8.932   9.612   0.508
 3708SOL     OW21162   1.026   4.194   1.267
 3708SOL    HW121163   1.056   4.281   1.228
 3708SOL    HW221164   1.090   4.166   1.338
 3709SOL     OW21165   1.881   4.396   1.207
 3709SOL    HW121166   1.865   4.349   1.121
 3709SOL    HW221167   1.912   4.331   1.276
 3710SOL     OW21168   3.273   9.870   1.993
 3710SOL    HW121169   3.327   9.914   1.921
 3710SOL    HW221170   3.223   9.793   1.954
 3711SOL     OW21171   3.507   4.840   2.257
 3711SOL    HW121172   3.530   4.931   2.291
 3711SOL    HW221173   3.590   4.789   2.239
 3712SOL     OW21174   3.658   8.559   1.197
 3712SOL    HW121175   3.719   8.623   1.151
 3712SOL    HW221176   3.705   8.518   1.275
 3713SOL     OW21177   1.522   5.661   0.352
 3713SOL    HW121178   1.525   5.584   0.416
 3713SOL    HW221179   1.580   5.640   0.273
 3714SOL     OW21180   4.280   1.055   1.549
 3714SOL    HW121181   4.277   1.075   1.452
 3714SOL    HW221182   4.282   0.956   1.562
 3715SOL     OW21183   1.481   1.016   0.953
 3715SOL    HW121184   1.550   0.944   0.964
 3715SOL    HW221185   1.521   1.105   0.975
 3716SOL     OW21186   8.857   1.131   0.531
 3716SOL    HW121187   8.780   1.190   0.510
 3716SOL    HW221188   8.939   1.187   0.544
 3717SOL     OW21189   3.254   8.954   1.950
 3717SOL    HW121190   3.191   9.024   1.916
 3717SOL    HW221191   3.207   8.896   2.016
 3718SOL     OW21192   0.048   6.220   0.533
 3718SOL    HW121193   9.998   6.133   0.542
 3718SOL    HW221194   0.140   6.209   0.569
 3719SOL     OW21195   7.967   9.825   0.448
 3719SOL    HW121196   8.029   9.758   0.490
 3719SOL    HW221197   7.994   9.917   0.475
 3720SOL     OW21198   9.717   0.083   0.951
 3720SOL    HW121199   9.701   0.166   1.005
 3720SOL    HW221200   9.814   0.059   0.953
 3721SOL     OW21201   3.457   1.341   1.106
 3721SOL    HW121202   3.393   1.408   1.143
 3721SOL    HW221203   3.411   1.254   1.094
 3722SOL     OW21204   1.519   6.475   0.822
 3722SOL    HW121205   1.615   6.473   0.848
 3722SOL    HW221206   1.472   6.396   0.861
 3723SOL     OW21207   1.157   6.854   0.944
 3723SOL    HW121208   1.169   6.948   0.914
 3723SOL    HW221209   1.241   6.802   0.929
 3724SOL     OW21210   8.971   4.200   2.057
 3724SOL    HW121211   8.953   4.223   2.153
 3724SOL    HW221212   9.026   4.117   2.052
 3725SOL     OW21213   8.813   2.265   1.186
 3725SOL    HW121214   8.906   2.299   1.197
 3725SOL    HW221215   8.749   2.341   1.182
 3726SOL     OW21216   9.551   5.096   0.585
 3726SOL    HW121217   9.468   5.117   0.534
 3726SOL    HW221218   9.616   5.049   0.525
  10.00000  10.00000   2.82000
